Title
82277
    1SAPS     N    1   3.346   6.438  10.995 -0.5232 -0.4271 -0.2888
    1SAPS   HN1    2   3.328   6.506  11.072 -0.2005 -0.5546 -0.0982
    1SAPS   HN2    3   3.423   6.480  10.939 -0.7983 -0.4121 -0.6577
    1SAPS   HN3    4   3.264   6.427  10.932  0.0860  2.8900 -1.8859
    1SAPS   C12    5   3.396   6.301  11.050 -0.3739 -0.0664  0.4695
    1SAPS  H12A    6   3.475   6.329  11.118  0.7364 -1.0869 -0.3632
    1SAPS   C13    7   3.295   6.211  11.127  0.0990  0.0379 -1.0873
    1SAPS  O13A    8   3.176   6.242  11.118 -0.2598 -0.0975  0.2354
    1SAPS  O13B    9   3.328   6.106  11.188 -0.9346 -0.2816  0.4662
    1SAPS   C11   10   3.453   6.220  10.932  0.0880  0.4158 -0.4478
    1SAPS  H11A   11   3.483   6.118  10.962  2.1254  0.5836 -1.7050
    1SAPS  H11B   12   3.545   6.276  10.905  0.4297  0.0900  0.0318
    1SAPS     P   13   3.420   6.155  10.672 -0.1429  0.1798  0.2002
    1SAPS   O13   14   3.539   6.066  10.696 -0.0206 -0.3292  0.1906
    1SAPS   O14   15   3.311   6.084  10.597  0.3243  0.3901 -0.5133
    1SAPS   O12   16   3.371   6.212  10.814 -0.0324 -0.2821 -0.6417
    1SAPS   O11   17   3.458   6.288  10.604  0.3998 -0.5012 -0.0263
    1SAPS    C1   18   3.367   6.376  10.539  0.1780  0.2114  0.1629
    1SAPS    HA   19   3.262   6.338  10.539  0.8342 -1.7092 -0.4410
    1SAPS    HB   20   3.354   6.473  10.591 -0.2823 -0.0539  0.5537
    1SAPS    C2   21   3.405   6.393  10.385  0.5564 -0.2749  0.2920
    1SAPS    HS   22   3.330   6.455  10.331  0.3428 -1.9692 -1.4692
    1SAPS   O21   23   3.412   6.259  10.331 -0.3413 -0.4277  0.4776
    1SAPS   C21   24   3.299   6.209  10.285  0.3850 -0.2867  0.3877
    1SAPS   O22   25   3.199   6.275  10.262 -0.3232  0.0649  0.0998
    1SAPS   C22   26   3.318   6.066  10.237 -0.1451 -0.0667  0.2893
    1SAPS   H2R   27   3.370   5.995  10.305 -1.2396 -1.7950 -0.5899
    1SAPS   H2S   28   3.214   6.039  10.210 -0.3533  1.6143 -0.6988
    1SAPS    C3   29   3.550   6.463  10.374  0.0907  0.3677  0.0604
    1SAPS    HX   30   3.619   6.388  10.418  0.4747 -1.1632 -2.8754
    1SAPS    HY   31   3.558   6.553  10.439  0.6002  0.0810  0.3976
    1SAPS   O31   32   3.590   6.490  10.240 -0.1908  0.0840 -0.2233
    1SAPS   C31   33   3.539   6.598  10.192 -0.6211  0.0335 -0.3693
    1SAPS   O32   34   3.465   6.675  10.252  0.1815  0.5142  0.0105
    1SAPS   C32   35   3.595   6.612  10.054  0.1731  0.2577 -0.4337
    1SAPS   H2X   36   3.655   6.524  10.024 -0.7198 -0.5184 -0.0204
    1SAPS   H2Y   37   3.632   6.716  10.043 -0.3789  0.3539 -1.5267
    1SAPS   C23   38   3.405   6.059  10.100  0.3527  0.3520 -0.2574
    1SAPS   H3R   39   3.512   6.073  10.124  0.1470  0.0694  0.8901
    1SAPS   H3S   40   3.361   6.140  10.037 -0.8818 -0.7433 -0.8592
    1SAPS   C24   41   3.389   5.928  10.016  0.2055  0.0040  0.6494
    1SAPS   H4R   42   3.400   5.849  10.093 -3.1317  0.3067  1.5774
    1SAPS   H4S   43   3.479   5.924   9.951 -1.0478 -0.3308 -1.1262
    1SAPS   C25   44   3.262   5.911   9.939 -0.1182 -0.1999  0.2432
    1SAPS   H5R   45   3.169   5.947   9.985  0.6864  0.5504  1.3156
    1SAPS   C26   46   3.256   5.869   9.812  0.7086  0.0839  0.0279
    1SAPS   H6R   47   3.165   5.856   9.752  2.8174 -0.8600 -3.2062
    1SAPS   C27   48   3.383   5.830   9.736  0.7645  0.3569 -0.5677
    1SAPS   H7R   49   3.360   5.763   9.650 -0.0615  0.7855 -0.6831
    1SAPS   H7S   50   3.433   5.761   9.808  0.2748  0.1230 -0.4486
    1SAPS   C28   51   3.471   5.947   9.687  0.0682  0.2437 -0.4759
    1SAPS   H8R   52   3.494   6.019   9.767 -1.2294  0.5251 -0.3192
    1SAPS   C29   53   3.523   5.957   9.562  0.1469 -0.2989 -0.0001
    1SAPS   H9R   54   3.606   6.028   9.552  0.4148 -0.4898  0.8214
    1SAPS  C210   55   3.505   5.869   9.443 -0.3335 -0.1250  0.1332
    1SAPS  H10R   56   3.523   5.925   9.349 -1.8926 -0.6894 -0.5408
    1SAPS  H10S   57   3.397   5.851   9.461  0.1435 -0.5859  2.9829
    1SAPS  C211   58   3.588   5.744   9.451 -0.0785 -0.0846 -0.2688
    1SAPS  H11R   59   3.592   5.689   9.547  1.8091  0.1368 -0.1712
    1SAPS  C212   60   3.665   5.676   9.356 -0.2203 -0.7892  0.4141
    1SAPS  H12R   61   3.724   5.585   9.373 -0.8850 -1.5373 -1.0513
    1SAPS  C213   62   3.676   5.724   9.211 -0.2104 -0.0965  0.7624
    1SAPS  H13R   63   3.584   5.777   9.179 -1.6276 -2.9394 -0.2590
    1SAPS  H13S   64   3.679   5.633   9.147 -1.8021  1.1206 -1.1497
    1SAPS  C214   65   3.804   5.808   9.187 -0.2968 -0.2104  0.8566
    1SAPS  H14R   66   3.825   5.889   9.258  1.0226 -0.5301  0.8546
    1SAPS  C215   67   3.912   5.765   9.113 -0.7354 -0.5336 -0.2308
    1SAPS  H15R   68   4.002   5.828   9.120 -0.0125 -1.2933 -2.1552
    1SAPS  C216   69   3.925   5.623   9.051 -0.5505  0.1372  0.2561
    1SAPS  H16R   70   3.987   5.632   8.959 -1.1193 -1.1204 -0.2678
    1SAPS  H16S   71   3.830   5.580   9.015  0.6051 -2.9868  0.6507
    1SAPS  C217   72   3.978   5.519   9.155  0.7511 -0.1852 -0.4086
    1SAPS  H17R   73   3.884   5.486   9.204  1.3920 -0.2935  0.7846
    1SAPS  H17S   74   4.047   5.578   9.219  0.0134  1.1064 -0.7578
    1SAPS  C218   75   4.048   5.397   9.091  1.1143 -0.0380  0.4093
    1SAPS  H18R   76   4.148   5.422   9.048  1.1003  0.4971  0.6778
    1SAPS  H18S   77   3.992   5.374   8.997  1.3410  0.7040  0.0833
    1SAPS  C219   78   4.050   5.279   9.179 -0.7698  1.0591  0.5363
    1SAPS  H19R   79   4.084   5.190   9.122  0.2948  0.6192  1.8026
    1SAPS  H19S   80   3.953   5.240   9.217 -0.6993 -0.6817 -0.9182
    1SAPS  C220   81   4.148   5.280   9.301  0.1871 -0.6746  0.3719
    1SAPS  H20R   82   4.134   5.192   9.367 -1.1212 -0.8893 -0.1616
    1SAPS  H20S   83   4.133   5.374   9.358  0.9173 -0.5524  0.3700
    1SAPS  H20T   84   4.246   5.282   9.250 -0.5382 -2.1453 -1.1824
    1SAPS   C33   85   3.474   6.598   9.953  0.1172  0.2383  0.0399
    1SAPS   H3X   86   3.514   6.623   9.851  0.7451 -2.5249 -0.4591
    1SAPS   H3Y   87   3.392   6.667   9.983  1.8254  1.5122  2.0755
    1SAPS   C34   88   3.425   6.448   9.939  0.1793 -1.0558 -0.1808
    1SAPS   H4X   89   3.372   6.409  10.029 -1.8184 -0.9426 -1.2445
    1SAPS   H4Y   90   3.512   6.388   9.907 -1.0700 -2.4285 -1.1577
    1SAPS   C35   91   3.317   6.441   9.830  0.2050 -0.3081 -0.3921
    1SAPS   H5X   92   3.359   6.457   9.729  1.5416  0.4301  0.2548
    1SAPS   H5Y   93   3.243   6.522   9.848  0.5288 -0.2545  0.8149
    1SAPS   C36   94   3.249   6.305   9.821  0.6652  0.0765  0.5846
    1SAPS   H6X   95   3.176   6.307   9.905  2.7884  1.1886  2.4992
    1SAPS   H6Y   96   3.308   6.212   9.834 -3.1706 -2.9567 -1.5602
    1SAPS   C37   97   3.163   6.295   9.688  0.3229 -0.4576 -0.1855
    1SAPS   H7X   98   3.130   6.392   9.646 -0.0736 -0.6023 -0.2132
    1SAPS   H7Y   99   3.077   6.226   9.702  0.7904 -1.0163 -0.0073
    1SAPS   C38  100   3.246   6.231   9.576 -0.3245 -0.2811  0.2594
    1SAPS   H8X  101   3.304   6.143   9.611  2.1157  0.2895 -2.0874
    1SAPS   H8Y  102   3.329   6.300   9.552 -1.1140  0.8529  0.6744
    1SAPS   C39  103   3.145   6.189   9.465 -0.5483  0.1313  0.0140
    1SAPS   H9X  104   3.132   6.275   9.396  2.0121 -0.4814 -1.3788
    1SAPS   H9Y  105   3.052   6.142   9.505 -0.2279  0.4112  1.0982
    1SAPS  C310  106   3.199   6.076   9.371  0.0526  0.0385  1.0987
    1SAPS  H10X  107   3.196   5.992   9.442  1.5448 -1.3142 -0.3644
    1SAPS  H10Y  108   3.302   6.103   9.340 -1.4038  2.9956 -1.9335
    1SAPS  C311  109   3.107   6.044   9.250  0.0463  0.0296 -1.2512
    1SAPS  H11X  110   3.106   6.129   9.178 -1.8167  1.2116  0.0804
    1SAPS  H11Y  111   3.004   6.029   9.289  0.3846  0.1581 -0.2776
    1SAPS  C312  112   3.146   5.908   9.180 -0.5068 -0.6198 -0.1653
    1SAPS  H12X  113   3.067   5.881   9.106 -1.1504  0.0796  0.2429
    1SAPS  H12Y  114   3.161   5.827   9.254  0.5645 -0.8241 -0.6019
    1SAPS  C313  115   3.274   5.918   9.094  0.1399  0.2243  0.0861
    1SAPS  H13X  116   3.369   5.926   9.151 -0.8021  2.3595  1.4801
    1SAPS  H13Y  117   3.280   6.017   9.044  1.1499 -0.2135 -0.6887
    1SAPS  C314  118   3.295   5.804   8.990  0.0953  0.5165 -0.4985
    1SAPS  H14X  119   3.392   5.817   8.936 -0.3696 -0.8101 -1.7368
    1SAPS  H14Y  120   3.215   5.828   8.917  2.1482 -0.0805 -3.1009
    1SAPS  C315  121   3.288   5.658   9.041 -0.0439 -0.3296 -0.1308
    1SAPS  H15X  122   3.181   5.641   9.067  0.4844 -2.2698  0.9759
    1SAPS  H15Y  123   3.349   5.651   9.133 -0.1428 -3.0255 -0.1782
    1SAPS  C316  124   3.338   5.554   8.941 -0.3796 -0.1305 -0.6684
    1SAPS  H16X  125   3.357   5.460   8.998 -0.9082 -0.4767 -1.0569
    1SAPS  H16Y  126   3.435   5.584   8.895 -0.3746  0.9878  0.0450
    1SAPS  C317  127   3.239   5.511   8.834  0.0737  0.2768  0.5441
    1SAPS  H17X  128   3.226   5.599   8.769 -0.7914 -0.7688 -0.7627
    1SAPS  H17Y  129   3.144   5.489   8.889  1.9032 -1.4274  3.2763
    1SAPS  C318  130   3.273   5.389   8.746  0.2085 -0.3577 -0.6467
    1SAPS  H18X  131   3.275   5.291   8.797 -1.6329 -0.3758 -0.5357
    1SAPS  H18Y  132   3.376   5.399   8.705  0.7306  2.1417  0.9932
    1SAPS  H18Z  133   3.204   5.377   8.660 -0.9864  1.2840  0.0220
    2SAPS     N  134   1.739   6.664  10.815  0.4750 -0.9362  0.7803
    2SAPS   HN1  135   1.678   6.714  10.748  0.1749  0.5350  2.0952
    2SAPS   HN2  136   1.820   6.626  10.763 -0.0134 -0.6866 -0.1784
    2SAPS   HN3  137   1.685   6.591  10.867  0.5555 -0.3810  1.6625
    2SAPS   C12  138   1.785   6.757  10.921 -0.2002  0.4269  0.4497
    2SAPS  H12A  139   1.694   6.810  10.947 -2.1796 -1.0605 -2.8066
    2SAPS   C13  140   1.849   6.692  11.041 -0.3963 -0.2917 -0.3380
    2SAPS  O13A  141   1.852   6.564  11.059  0.0483  0.1329  0.1781
    2SAPS  O13B  142   1.880   6.768  11.134 -0.2033 -1.3918  0.2428
    2SAPS   C11  143   1.894   6.858  10.869  0.0226  0.5689  0.0420
    2SAPS  H11A  144   1.924   6.937  10.942  1.5140 -0.9553  1.1710
    2SAPS  H11B  145   1.847   6.916  10.787 -1.2996 -1.9031 -1.0705
    2SAPS     P  146   2.039   6.758  10.677 -0.1537 -0.3552 -0.1347
    2SAPS   O13  147   2.184   6.736  10.651  0.8158  0.4753 -0.2150
    2SAPS   O14  148   1.942   6.650  10.647  0.7828 -0.3683  0.7819
    2SAPS   O12  149   2.022   6.797  10.826  0.1900 -0.2889  0.1801
    2SAPS   O11  150   2.000   6.895  10.595 -0.6218 -0.0594  0.2210
    2SAPS    C1  151   2.096   6.998  10.569 -0.6389  0.4410  0.2972
    2SAPS    HA  152   2.043   7.096  10.565 -0.5587  0.4796  0.1703
    2SAPS    HB  153   2.166   7.009  10.654  0.5655  2.8789 -0.9176
    2SAPS    C2  154   2.182   6.991  10.437  0.2485  0.4536 -0.0975
    2SAPS    HS  155   2.268   6.922  10.451  2.1790  2.5157 -1.2730
    2SAPS   O21  156   2.227   7.123  10.405 -0.2425 -0.0277 -0.6073
    2SAPS   C21  157   2.331   7.162  10.481 -0.3683 -0.6404  0.3325
    2SAPS   O22  158   2.380   7.083  10.568  0.1754 -0.1146  0.1840
    2SAPS   C22  159   2.375   7.307  10.453  0.3142 -0.2427  0.4354
    2SAPS   H2R  160   2.346   7.330  10.348  2.9219 -0.9817 -0.5057
    2SAPS   H2S  161   2.311   7.373  10.516 -0.3742 -1.4651  1.0665
    2SAPS    C3  162   2.098   6.936  10.318 -0.3797  0.1384 -0.2175
    2SAPS    HX  163   2.006   6.999  10.316 -0.5795 -0.1734 -1.0189
    2SAPS    HY  164   2.070   6.831  10.341  1.2076 -0.7049 -1.9114
    2SAPS   O31  165   2.178   6.933  10.199  0.1448 -0.1127 -0.3880
    2SAPS   C31  166   2.148   7.031  10.116  0.3049 -0.2705 -0.1929
    2SAPS   O32  167   2.049   7.104  10.117  0.1110 -0.1052 -0.6137
    2SAPS   C32  168   2.259   7.036  10.012 -0.2024 -0.0595 -0.3806
    2SAPS   H2X  169   2.225   6.966   9.932 -3.0982 -0.3390  0.9930
    2SAPS   H2Y  170   2.347   6.990  10.062 -1.0616  0.8733  2.1215
    2SAPS   C23  171   2.523   7.337  10.488 -0.4908 -1.0166  0.2434
    2SAPS   H3R  172   2.543   7.311  10.594  2.3670  1.0186  0.3154
    2SAPS   H3S  173   2.535   7.446  10.471 -1.1837 -1.0692 -0.6646
    2SAPS   C24  174   2.623   7.270  10.392  0.1837 -0.5164  0.1798
    2SAPS   H4R  175   2.640   7.165  10.424  2.0135 -0.1370  0.5603
    2SAPS   H4S  176   2.726   7.309  10.408  1.0389 -2.8640  0.8662
    2SAPS   C25  177   2.593   7.292  10.247  0.0111 -0.0171  0.0742
    2SAPS   H5R  178   2.561   7.394  10.222  3.2044  0.5136 -2.6410
    2SAPS   C26  179   2.587   7.194  10.152  1.1872 -0.9624 -0.0081
    2SAPS   H6R  180   2.548   7.235  10.058  1.1638 -0.0574  0.3779
    2SAPS   C27  181   2.624   7.048  10.164  0.0267  0.1972  1.1064
    2SAPS   H7R  182   2.567   6.979  10.098 -0.0765  0.5852  0.7871
    2SAPS   H7S  183   2.599   7.024  10.270  1.7296  1.7871  1.9263
    2SAPS   C28  184   2.774   7.028  10.141  0.3069  0.4177  0.4549
    2SAPS   H8R  185   2.838   7.011  10.229  1.6389 -0.5416 -0.6726
    2SAPS   C29  186   2.837   7.034  10.023 -0.0139 -0.2222 -0.3035
    2SAPS   H9R  187   2.943   7.004  10.034  0.4055  1.8866  2.9011
    2SAPS  C210  188   2.788   7.055   9.886 -0.5843  0.0870 -0.3469
    2SAPS  H10R  189   2.820   7.158   9.860  2.9171 -0.5909  0.7477
    2SAPS  H10S  190   2.677   7.054   9.891 -0.6087  0.3164 -0.8058
    2SAPS  C211  191   2.826   6.937   9.805  0.3909  0.3685  0.1892
    2SAPS  H11R  192   2.880   6.853   9.851  1.3846 -0.6326 -2.6432
    2SAPS  C212  193   2.809   6.939   9.667 -0.0179  0.6920 -0.5847
    2SAPS  H12R  194   2.834   6.849   9.609  0.0331 -0.2632  0.8596
    2SAPS  C213  195   2.750   7.051   9.582  0.2794 -0.7941 -0.5368
    2SAPS  H13R  196   2.843   7.106   9.554  1.6608 -2.3625  0.7554
    2SAPS  H13S  197   2.709   7.135   9.643  0.8860 -1.9379  1.5220
    2SAPS  C214  198   2.642   7.012   9.486 -0.2269  0.1729  0.0632
    2SAPS  H14R  199   2.547   6.969   9.522 -0.4568 -0.4843 -1.2648
    2SAPS  C215  200   2.651   7.026   9.353 -0.4881  0.2430  0.5568
    2SAPS  H15R  201   2.559   7.003   9.295 -0.4638  1.8238 -0.1552
    2SAPS  C216  202   2.769   7.084   9.277  0.3934  0.5550 -0.8424
    2SAPS  H16R  203   2.827   7.007   9.221  0.9789  1.1993 -1.1460
    2SAPS  H16S  204   2.846   7.119   9.349  0.4743 -1.0256 -0.1281
    2SAPS  C217  205   2.709   7.175   9.174  0.7041 -0.1729 -0.0256
    2SAPS  H17R  206   2.661   7.262   9.223 -1.0068 -0.9470 -0.2336
    2SAPS  H17S  207   2.632   7.124   9.111  2.1593 -0.7836 -1.3754
    2SAPS  C218  208   2.810   7.214   9.070  0.5724  0.6314 -0.1720
    2SAPS  H18R  209   2.829   7.113   9.027 -2.4893 -0.1034 -0.0669
    2SAPS  H18S  210   2.905   7.248   9.116  0.5803 -0.3563  0.5696
    2SAPS  C219  211   2.766   7.316   8.967 -0.5581  0.3584 -0.7395
    2SAPS  H19R  212   2.847   7.328   8.892 -0.7342 -0.6362 -1.0922
    2SAPS  H19S  213   2.762   7.411   9.025 -0.3240 -1.1091  1.8319
    2SAPS  C220  214   2.639   7.274   8.885 -0.0530 -0.6083  0.0553
    2SAPS  H20R  215   2.665   7.178   8.836 -1.0899 -0.3375 -1.0628
    2SAPS  H20S  216   2.615   7.348   8.805  0.8270 -0.6923 -0.2966
    2SAPS  H20T  217   2.556   7.261   8.959  0.8520 -0.7406  1.0637
    2SAPS   C33  218   2.280   7.171   9.953  0.0453  1.2235 -0.5527
    2SAPS   H3X  219   2.313   7.243  10.031 -1.1682  1.7970 -0.5403
    2SAPS   H3Y  220   2.180   7.211   9.923  0.3876  2.1932 -0.4355
    2SAPS   C34  221   2.366   7.163   9.825 -0.3949 -0.3920  0.4603
    2SAPS   H4X  222   2.368   7.067   9.770  1.7177 -1.7824  2.7927
    2SAPS   H4Y  223   2.474   7.177   9.845  0.0909 -0.6939 -1.6922
    2SAPS   C35  224   2.312   7.274   9.730 -0.8488  0.0077  0.0439
    2SAPS   H5X  225   2.306   7.370   9.785 -0.6747  0.3271 -0.4825
    2SAPS   H5Y  226   2.209   7.254   9.693 -1.1274 -0.5348  1.0830
    2SAPS   C36  227   2.407   7.290   9.601  0.0554  0.4948 -0.5585
    2SAPS   H6X  228   2.429   7.193   9.553  0.7609  0.6915 -0.6390
    2SAPS   H6Y  229   2.505   7.321   9.644 -0.4198 -1.5614  2.3593
    2SAPS   C37  230   2.350   7.377   9.493  0.3397  0.4422  0.3795
    2SAPS   H7X  231   2.329   7.475   9.542  0.6219  0.7256 -0.0556
    2SAPS   H7Y  232   2.258   7.322   9.463  2.1120 -2.4804 -0.0329
    2SAPS   C38  233   2.447   7.413   9.380 -0.7519  0.3287 -0.6528
    2SAPS   H8X  234   2.485   7.321   9.332 -1.3005 -1.6524  2.4610
    2SAPS   H8Y  235   2.531   7.480   9.408 -0.4801 -0.4537  0.4852
    2SAPS   C39  236   2.376   7.497   9.270  0.7594 -0.3273  0.5222
    2SAPS   H9X  237   2.307   7.582   9.290  1.3807  0.7367 -1.5243
    2SAPS   H9Y  238   2.307   7.425   9.221 -2.3622  1.0255  2.5949
    2SAPS  C310  239   2.475   7.554   9.165  0.5168 -0.4449  0.0292
    2SAPS  H10X  240   2.565   7.493   9.138  1.2380 -0.0458  1.4550
    2SAPS  H10Y  241   2.505   7.648   9.214 -0.0650  0.7689 -1.8363
    2SAPS  C311  242   2.406   7.607   9.034  0.6243  0.5149  0.0408
    2SAPS  H11X  243   2.332   7.686   9.061  1.9197  1.3967  1.1178
    2SAPS  H11Y  244   2.342   7.523   8.998 -1.5260  1.2474  1.9013
    2SAPS  C312  245   2.505   7.671   8.937  0.5238  0.2300 -0.4190
    2SAPS  H12X  246   2.553   7.591   8.876 -0.2737 -1.5578  1.1884
    2SAPS  H12Y  247   2.585   7.724   8.993 -1.5522  1.8428  1.1616
    2SAPS  C313  248   2.437   7.780   8.844 -0.4955  0.8748 -0.3678
    2SAPS  H13X  249   2.389   7.864   8.899 -2.3010  0.0388 -0.5803
    2SAPS  H13Y  250   2.350   7.726   8.801 -0.4270 -0.5396  1.1711
    2SAPS  C314  251   2.526   7.826   8.728 -0.0676 -0.6450 -0.1445
    2SAPS  H14X  252   2.593   7.741   8.705  0.5690 -0.5167  1.1477
    2SAPS  H14Y  253   2.597   7.899   8.773 -1.5601 -0.0556  1.3445
    2SAPS  C315  254   2.473   7.887   8.591 -0.3139  0.1028  0.0066
    2SAPS  H15X  255   2.449   7.993   8.617  1.3672  0.0986  1.8675
    2SAPS  H15Y  256   2.381   7.835   8.559 -2.4935  2.1017  2.5588
    2SAPS  C316  257   2.575   7.883   8.480  0.2058  0.2243  0.0319
    2SAPS  H16X  258   2.594   7.775   8.463  0.4352  0.3724 -0.6788
    2SAPS  H16Y  259   2.672   7.936   8.495  0.4933 -0.2130 -0.2836
    2SAPS  C317  260   2.521   7.944   8.342 -0.0422  0.2134 -0.0996
    2SAPS  H17X  261   2.429   7.888   8.314  0.7471 -0.3663 -1.6797
    2SAPS  H17Y  262   2.589   7.931   8.255  1.8288  2.3058  0.9520
    2SAPS  C318  263   2.495   8.093   8.355 -0.0061 -0.6315 -0.6620
    2SAPS  H18X  264   2.588   8.153   8.365 -0.4279 -0.2060  1.2338
    2SAPS  H18Y  265   2.430   8.118   8.442 -1.9155  1.4245 -2.5392
    2SAPS  H18Z  266   2.438   8.128   8.266 -0.6060  1.5514  0.4873
    3SAPS     N  267   0.872   1.966  11.016  0.4418 -0.3524 -0.1786
    3SAPS   HN1  268   0.821   2.012  10.938  1.6805 -0.9863 -1.4106
    3SAPS   HN2  269   0.888   1.863  11.015  0.1831 -0.4383  1.3205
    3SAPS   HN3  270   0.806   1.972  11.096  1.1337 -2.0063  0.5705
    3SAPS   C12  271   1.004   2.025  11.056 -0.1185 -0.5353 -0.3475
    3SAPS  H12A  272   1.012   2.130  11.033 -2.5110 -0.3667 -0.6858
    3SAPS   C13  273   1.035   2.010  11.208 -0.2731  0.5133 -0.3677
    3SAPS  O13A  274   0.943   1.972  11.283 -0.0662  0.7589  0.0255
    3SAPS  O13B  275   1.134   2.075  11.245 -0.3460 -0.1575 -0.2795
    3SAPS   C11  276   1.116   1.957  10.976 -0.1549  0.4562 -0.2041
    3SAPS  H11A  277   1.086   1.945  10.870  0.9516  2.2352 -0.7631
    3SAPS  H11B  278   1.121   1.858  11.025  1.6930  1.1794  1.1803
    3SAPS     P  279   1.310   2.095  10.879  0.3568  0.2120 -0.0173
    3SAPS   O13  280   1.250   2.232  10.873 -0.2995 -0.2874  0.3821
    3SAPS   O14  281   1.458   2.089  10.887 -0.1374  0.2397 -0.5081
    3SAPS   O12  282   1.243   2.010  10.998 -0.0325  0.3857 -0.3091
    3SAPS   O11  283   1.265   2.019  10.747 -0.5456 -0.1955 -0.1930
    3SAPS    C1  284   1.329   1.892  10.723  0.7868 -0.4949  0.3048
    3SAPS    HA  285   1.438   1.897  10.745  0.8522 -1.4875  0.2585
    3SAPS    HB  286   1.293   1.807  10.785 -0.1573 -1.4081 -1.4197
    3SAPS    C2  287   1.314   1.854  10.571 -0.1884 -0.1063 -0.6109
    3SAPS    HS  288   1.390   1.777  10.548  0.7889  0.5885  0.2370
    3SAPS   O21  289   1.316   1.963  10.483  0.4228  0.1512  0.0721
    3SAPS   C21  290   1.424   2.043  10.492 -0.6231 -0.8114  0.4000
    3SAPS   O22  291   1.521   2.013  10.552  0.4920  0.5225  0.0206
    3SAPS   C22  292   1.408   2.183  10.414  0.5322 -0.2426  0.2965
    3SAPS   H2R  293   1.380   2.145  10.313 -0.0658 -1.4911  0.9007
    3SAPS   H2S  294   1.315   2.230  10.451 -0.4902 -1.5431 -0.5124
    3SAPS    C3  295   1.181   1.775  10.550  0.1092 -0.2602  0.1186
    3SAPS    HX  296   1.103   1.853  10.560  0.3999 -0.2150  2.6630
    3SAPS    HY  297   1.173   1.697  10.628  1.1637  0.8749  1.4232
    3SAPS   O31  298   1.189   1.714  10.422  0.3465 -0.4089  0.3086
    3SAPS   C31  299   1.074   1.672  10.375 -0.1971  0.0266 -0.3783
    3SAPS   O32  300   0.966   1.680  10.429 -0.3318 -0.0221 -0.0001
    3SAPS   C32  301   1.095   1.604  10.237  0.1012  0.2993  0.3660
    3SAPS   H2X  302   0.998   1.554  10.218 -0.0583  0.3734  0.9718
    3SAPS   H2Y  303   1.185   1.539  10.243 -0.5209 -0.8278 -1.6128
    3SAPS   C23  304   1.527   2.280  10.420 -0.2130 -0.0465 -0.7754
    3SAPS   H3R  305   1.542   2.283  10.530  0.1119  0.0860 -0.8236
    3SAPS   H3S  306   1.497   2.380  10.384 -1.6550 -0.1939 -0.0707
    3SAPS   C24  307   1.661   2.228  10.349 -0.3800 -0.7044 -0.2504
    3SAPS   H4R  308   1.682   2.127  10.392 -2.6751 -0.6125  1.2844
    3SAPS   H4S  309   1.743   2.295  10.381 -0.6654  0.1125 -1.1895
    3SAPS   C25  310   1.643   2.238  10.197 -0.1133  0.4554 -0.1326
    3SAPS   H5R  311   1.538   2.227  10.167  0.5726 -2.1967 -1.9244
    3SAPS   C26  312   1.742   2.262  10.109 -0.1218  0.1600 -0.0554
    3SAPS   H6R  313   1.738   2.266   9.999  0.3375 -1.1098 -0.1463
    3SAPS   C27  314   1.892   2.270  10.140 -0.2239 -0.2308 -0.3405
    3SAPS   H7R  315   1.943   2.175  10.114  1.1862  0.5876 -0.6814
    3SAPS   H7S  316   1.923   2.281  10.246  4.6986 -0.6446 -1.4816
    3SAPS   C28  317   1.944   2.400  10.081  0.5066 -0.2530  0.1284
    3SAPS   H8R  318   1.915   2.500  10.117 -0.0568 -0.0284 -0.9337
    3SAPS   C29  319   2.010   2.408   9.963  0.4763 -0.7141 -0.1407
    3SAPS   H9R  320   2.036   2.504   9.915  0.1909 -1.6200 -2.1912
    3SAPS  C210  321   2.046   2.289   9.872  0.0608  1.1691  0.0177
    3SAPS  H10R  322   2.071   2.196   9.927  1.5405  1.5924  0.1085
    3SAPS  H10S  323   2.141   2.303   9.816  0.4702  0.0195  0.4179
    3SAPS  C211  324   1.945   2.265   9.758  0.0991  0.1485 -0.2600
    3SAPS  H11R  325   1.848   2.315   9.772 -1.1309 -2.5065  1.4391
    3SAPS  C212  326   1.974   2.192   9.651 -0.0855 -0.2680  0.0350
    3SAPS  H12R  327   1.902   2.186   9.569 -1.7219  3.6070  0.9867
    3SAPS  C213  328   2.109   2.132   9.628 -0.3366  0.5557  0.0949
    3SAPS  H13R  329   2.192   2.205   9.618  0.1503 -0.0595 -0.4128
    3SAPS  H13S  330   2.101   2.101   9.521  1.0453  2.9474 -0.7818
    3SAPS  C214  331   2.149   2.003   9.702 -0.4586 -0.0814  0.3838
    3SAPS  H14R  332   2.067   1.931   9.711  0.6335 -1.7585 -2.1630
    3SAPS  C215  333   2.271   1.977   9.757  0.1271 -0.5064 -0.2194
    3SAPS  H15R  334   2.285   1.874   9.795 -2.3143 -1.3730 -1.4772
    3SAPS  C216  335   2.392   2.058   9.748  0.1700 -0.0194  0.1729
    3SAPS  H16R  336   2.381   2.133   9.667 -0.7055  0.6195  0.8640
    3SAPS  H16S  337   2.487   2.009   9.718 -0.1358 -0.7029  0.3022
    3SAPS  C217  338   2.416   2.139   9.872  0.0117  0.0155 -0.8242
    3SAPS  H17R  339   2.334   2.161   9.944 -0.0263 -0.3353 -0.7623
    3SAPS  H17S  340   2.464   2.238   9.855 -2.0495  1.2823  0.2535
    3SAPS  C218  341   2.516   2.062   9.967 -0.0178 -0.0256  0.0341
    3SAPS  H18R  342   2.606   2.042   9.905 -0.1407  3.9042 -1.7360
    3SAPS  H18S  343   2.463   1.969   9.997 -0.0957  0.0716  0.2001
    3SAPS  C219  344   2.552   2.143  10.088  0.6530  0.0351  0.1719
    3SAPS  H19R  345   2.450   2.169  10.125  0.3136  0.3836 -0.9737
    3SAPS  H19S  346   2.600   2.236  10.051 -0.5965  0.8391  0.4883
    3SAPS  C220  347   2.641   2.085  10.197 -0.2633 -1.3334 -0.0625
    3SAPS  H20R  348   2.649   2.162  10.277  0.2157  0.8243 -2.0631
    3SAPS  H20S  349   2.744   2.061  10.162 -0.0247 -0.3932 -0.0308
    3SAPS  H20T  350   2.603   1.993  10.245  0.8122  0.2371  4.3378
    3SAPS   C33  351   1.119   1.713  10.128 -0.0480  0.1373  0.1533
    3SAPS   H3X  352   1.215   1.762  10.154 -0.4945  2.0121 -1.4636
    3SAPS   H3Y  353   1.040   1.791  10.126  0.2421  0.4827  1.3286
    3SAPS   C34  354   1.125   1.654   9.991 -0.2180  0.2660  0.5980
    3SAPS   H4X  355   1.038   1.587   9.973 -0.0344  0.3797 -0.8176
    3SAPS   H4Y  356   1.207   1.578   9.990  0.1846  0.6962  0.8929
    3SAPS   C35  357   1.167   1.758   9.885  0.0638 -0.2069 -0.3639
    3SAPS   H5X  358   1.266   1.801   9.910  0.7628 -0.6955 -2.1710
    3SAPS   H5Y  359   1.098   1.844   9.901  0.9026  0.2763  0.8142
    3SAPS   C36  360   1.166   1.710   9.746  0.1371 -0.8805  0.7683
    3SAPS   H6X  361   1.063   1.679   9.720  0.2733 -1.6303  1.0843
    3SAPS   H6Y  362   1.238   1.626   9.730  0.2626 -1.1475  2.5509
    3SAPS   C37  363   1.207   1.827   9.658 -0.0858 -0.8767 -0.4613
    3SAPS   H7X  364   1.297   1.881   9.694 -1.8740  2.4897 -0.6555
    3SAPS   H7Y  365   1.130   1.907   9.662  2.3560  1.5625  0.5301
    3SAPS   C38  366   1.227   1.778   9.516 -0.1803  0.6113 -0.0296
    3SAPS   H8X  367   1.157   1.694   9.500  1.5790 -1.3357  1.8919
    3SAPS   H8Y  368   1.332   1.742   9.505 -0.3273 -0.7560  2.4008
    3SAPS   C39  369   1.213   1.892   9.411 -0.1632 -0.2595  0.4441
    3SAPS   H9X  370   1.274   1.972   9.459  3.1660  0.3840 -4.1367
    3SAPS   H9Y  371   1.105   1.916   9.401 -0.3447 -0.6618  1.3823
    3SAPS  C310  372   1.286   1.868   9.282  0.0436  0.2225  0.5031
    3SAPS  H10X  373   1.381   1.818   9.311 -0.9028 -1.4062  0.9401
    3SAPS  H10Y  374   1.314   1.951   9.215 -1.0001 -0.0343 -0.2783
    3SAPS  C311  375   1.212   1.760   9.205  0.7726 -0.8363 -0.1355
    3SAPS  H11X  376   1.118   1.803   9.166  1.5350 -0.4431 -1.6289
    3SAPS  H11Y  377   1.164   1.685   9.271  0.2615 -1.5293 -1.2684
    3SAPS  C312  378   1.297   1.694   9.094  0.5924  0.1473 -0.3121
    3SAPS  H12X  379   1.393   1.661   9.140 -0.4702 -2.5418  0.1603
    3SAPS  H12Y  380   1.335   1.768   9.020  1.0055 -0.6938 -0.9619
    3SAPS  C313  381   1.228   1.573   9.031 -0.1226 -0.7077  0.1378
    3SAPS  H13X  382   1.119   1.588   9.042  0.2187  2.0036  0.5704
    3SAPS  H13Y  383   1.255   1.481   9.088 -0.0624 -1.7373 -1.4758
    3SAPS  C314  384   1.253   1.539   8.880  0.1675 -0.1291  0.2231
    3SAPS  H14X  385   1.359   1.512   8.862  0.7791  1.7233  0.7913
    3SAPS  H14Y  386   1.229   1.626   8.815  1.9908 -0.2386 -0.6767
    3SAPS  C315  387   1.165   1.425   8.829  0.3450  0.1589 -0.0775
    3SAPS  H15X  388   1.065   1.472   8.819  0.4172 -0.0188 -2.0213
    3SAPS  H15Y  389   1.157   1.337   8.898  1.3762 -0.5740 -0.8677
    3SAPS  C316  390   1.204   1.371   8.692 -0.0942 -0.0586  1.1604
    3SAPS  H16X  391   1.314   1.362   8.679 -0.2402  1.7038 -3.4853
    3SAPS  H16Y  392   1.173   1.442   8.611 -2.0075 -0.1019  1.8023
    3SAPS  C317  393   1.136   1.243   8.656  0.0624 -0.0348 -0.0796
    3SAPS  H17X  394   1.025   1.256   8.654 -0.1230  0.2459  3.7020
    3SAPS  H17Y  395   1.151   1.161   8.729  0.3637 -0.5214 -0.6872
    3SAPS  C318  396   1.198   1.182   8.529  0.0576  0.0746 -1.1730
    3SAPS  H18X  397   1.136   1.093   8.508 -0.2671 -0.2585  0.9919
    3SAPS  H18Y  398   1.302   1.150   8.552 -0.6465 -0.8700  0.9084
    3SAPS  H18Z  399   1.198   1.253   8.443 -1.1245  0.8606 -0.5574
    4SAPS     N  400   0.431   3.360  10.936  0.2716 -0.2692  0.3111
    4SAPS   HN1  401   0.410   3.313  11.025  0.1330 -0.7505  0.0253
    4SAPS   HN2  402   0.361   3.437  10.927  0.1604 -0.2990  0.9121
    4SAPS   HN3  403   0.406   3.296  10.858  0.9956 -1.3449  0.9394
    4SAPS   C12  404   0.572   3.392  10.929 -0.0889  0.8349  0.1048
    4SAPS  H12A  405   0.566   3.478  10.994 -2.6997  1.2491 -0.5643
    4SAPS   C13  406   0.675   3.282  10.986  0.2203 -0.3225 -0.3173
    4SAPS  O13A  407   0.631   3.163  11.011  0.1442  0.3337  0.7789
    4SAPS  O13B  408   0.798   3.304  10.965  0.1708  0.2968  0.0650
    4SAPS   C11  409   0.598   3.439  10.784 -0.0689  0.4014  0.0637
    4SAPS  H11A  410   0.576   3.350  10.722  0.5586 -0.7832  1.4706
    4SAPS  H11B  411   0.705   3.469  10.786  0.7652 -2.2313  2.1036
    4SAPS     P  412   0.493   3.597  10.595 -0.1201 -0.2947 -0.0479
    4SAPS   O13  413   0.368   3.682  10.581 -0.1776  0.3096  0.1747
    4SAPS   O14  414   0.621   3.657  10.568  0.1160  0.1943 -0.0456
    4SAPS   O12  415   0.505   3.542  10.746 -0.3822 -0.0538 -0.0507
    4SAPS   O11  416   0.481   3.470  10.499 -0.1034  0.9773 -0.8578
    4SAPS    C1  417   0.591   3.381  10.460 -0.0897 -0.1736 -0.8090
    4SAPS    HA  418   0.676   3.391  10.531 -1.1872  1.2312  0.3811
    4SAPS    HB  419   0.552   3.277  10.470  0.6720 -0.2453  4.6620
    4SAPS    C2  420   0.649   3.414  10.320  0.4252 -0.8180  0.0559
    4SAPS    HS  421   0.660   3.525  10.323 -0.2234 -0.6801 -1.5494
    4SAPS   O21  422   0.543   3.378  10.231 -0.6079  0.4828 -0.7168
    4SAPS   C21  423   0.528   3.459  10.135  0.4576  0.0039 -0.5614
    4SAPS   O22  424   0.562   3.576  10.127  0.6006 -0.3083  0.0615
    4SAPS   C22  425   0.448   3.377  10.033  0.0805 -0.4937 -0.3515
    4SAPS   H2R  426   0.473   3.269  10.036 -0.4285 -0.6194  2.2944
    4SAPS   H2S  427   0.345   3.400  10.068  0.7415 -1.4197  2.5335
    4SAPS    C3  428   0.794   3.350  10.301  0.2713  0.5383  0.1545
    4SAPS    HX  429   0.759   3.248  10.276 -1.3159  0.0479  3.7898
    4SAPS    HY  430   0.844   3.336  10.399 -2.0603  0.3337  1.3817
    4SAPS   O31  431   0.859   3.418  10.189  0.3653 -0.2392 -0.0709
    4SAPS   C31  432   0.892   3.344  10.083 -0.0475 -0.3578 -0.1944
    4SAPS   O32  433   0.874   3.227  10.063  0.4395 -0.4122  0.9928
    4SAPS   C32  434   0.942   3.445   9.974 -0.5949  0.1796  0.4858
    4SAPS   H2X  435   1.036   3.493  10.008 -0.4986  1.5221 -1.4715
    4SAPS   H2Y  436   0.860   3.520   9.960 -1.8194 -1.4733 -1.9747
    4SAPS   C23  437   0.461   3.437   9.890  0.7486 -0.2604 -0.3234
    4SAPS   H3R  438   0.424   3.542   9.877  0.1295 -0.3880  0.3183
    4SAPS   H3S  439   0.388   3.388   9.822  1.7869  0.6019 -2.1365
    4SAPS   C24  440   0.597   3.421   9.806 -0.4122  0.1606 -0.3361
    4SAPS   H4R  441   0.682   3.439   9.875 -1.4213 -0.8927  1.2647
    4SAPS   H4S  442   0.606   3.500   9.728  1.2272 -1.9783 -2.4872
    4SAPS   C25  443   0.615   3.283   9.743  0.3055 -0.5247  0.4359
    4SAPS   H5R  444   0.656   3.213   9.816 -0.3527 -2.3393 -0.8603
    4SAPS   C26  445   0.561   3.248   9.623 -0.4840  0.3902  0.2043
    4SAPS   H6R  446   0.557   3.143   9.590 -0.5387  0.6642 -0.6752
    4SAPS   C27  447   0.472   3.338   9.548 -0.0893  0.2718 -0.1237
    4SAPS   H7R  448   0.391   3.383   9.610  1.4658  0.3383  1.9924
    4SAPS   H7S  449   0.407   3.275   9.484 -0.3843  1.2473 -0.8199
    4SAPS   C28  450   0.535   3.449   9.471  0.9034 -0.2902  0.1588
    4SAPS   H8R  451   0.538   3.541   9.532  0.3957 -1.0289  1.3283
    4SAPS   C29  452   0.586   3.450   9.347 -0.2266 -0.3129  0.0946
    4SAPS   H9R  453   0.639   3.535   9.303  0.7144 -0.8707  0.1233
    4SAPS  C210  454   0.576   3.332   9.263 -0.5270 -0.3603  0.3548
    4SAPS  H10R  455   0.601   3.240   9.321  3.4588  0.2201 -0.1176
    4SAPS  H10S  456   0.664   3.342   9.196  0.8779  0.9406  2.2482
    4SAPS  C211  457   0.450   3.318   9.179 -0.2074  0.6010 -0.4792
    4SAPS  H11R  458   0.405   3.408   9.134 -1.9336 -0.3928 -0.8181
    4SAPS  C212  459   0.396   3.201   9.157 -0.8437 -0.2142 -0.6417
    4SAPS  H12R  460   0.299   3.203   9.106 -1.0876  0.7349 -0.1629
    4SAPS  C213  461   0.447   3.058   9.194 -0.8293  0.1005 -0.5353
    4SAPS  H13R  462   0.361   2.988   9.199 -0.3461 -0.4423  0.2834
    4SAPS  H13S  463   0.484   3.061   9.298  0.0718  0.2745 -0.8529
    4SAPS  C214  464   0.556   3.012   9.109 -0.3976  0.5367  0.3443
    4SAPS  H14R  465   0.654   3.053   9.136 -1.0527  2.0770  0.5290
    4SAPS  C215  466   0.551   2.925   9.002 -0.2375  0.3780 -0.2083
    4SAPS  H15R  467   0.637   2.884   8.946  0.4348 -0.6438  1.4767
    4SAPS  C216  468   0.423   2.857   8.949 -0.3110 -0.0997  0.4802
    4SAPS  H16R  469   0.424   2.876   8.840  1.0198 -1.8087  0.1391
    4SAPS  H16S  470   0.333   2.897   8.999 -0.4259  0.6122 -0.2761
    4SAPS  C217  471   0.420   2.700   8.952 -0.2500  0.1713 -0.8094
    4SAPS  H17R  472   0.516   2.659   8.914  0.8724  0.3925  1.6157
    4SAPS  H17S  473   0.338   2.662   8.886  1.3976 -2.4738 -1.5181
    4SAPS  C218  474   0.402   2.645   9.091 -0.2247  0.7088  0.2760
    4SAPS  H18R  475   0.295   2.665   9.116 -0.5590  0.4042 -0.8277
    4SAPS  H18S  476   0.457   2.705   9.166  1.2012 -0.7043  0.3973
    4SAPS  C219  477   0.436   2.493   9.112 -0.2886  0.0024  0.7369
    4SAPS  H19R  478   0.490   2.484   9.209 -1.7656 -2.2582  1.4248
    4SAPS  H19S  479   0.508   2.461   9.034  1.5344  1.4982  1.7243
    4SAPS  C220  480   0.320   2.404   9.136  0.6472  0.6958  0.1031
    4SAPS  H20R  481   0.261   2.437   9.224  0.0010  0.4887 -0.2475
    4SAPS  H20S  482   0.346   2.297   9.146  2.5138  1.1173  0.0729
    4SAPS  H20T  483   0.252   2.400   9.048  1.8078  0.0376 -0.7933
    4SAPS   C33  484   0.954   3.369   9.839  0.0708  0.8905 -0.6238
    4SAPS   H3X  485   0.867   3.301   9.830  1.4981 -1.1975  0.3763
    4SAPS   H3Y  486   1.044   3.304   9.839  0.6516  1.6483  0.5818
    4SAPS   C34  487   0.968   3.474   9.736 -0.3726  0.0668 -0.5429
    4SAPS   H4X  488   1.048   3.547   9.763  0.9408 -1.0708 -1.2566
    4SAPS   H4Y  489   0.875   3.535   9.737 -0.1276  0.5651  2.6379
    4SAPS   C35  490   0.982   3.424   9.588  0.2148 -0.0153 -0.4756
    4SAPS   H5X  491   0.895   3.367   9.550  0.5703 -0.4368 -0.6594
    4SAPS   H5Y  492   1.057   3.343   9.576 -1.8437 -1.8863 -1.4279
    4SAPS   C36  493   1.009   3.543   9.494  0.5129  0.1185 -1.1361
    4SAPS   H6X  494   1.106   3.593   9.515  0.3223  0.1145 -0.2134
    4SAPS   H6Y  495   0.917   3.601   9.514  1.0862  0.5293  0.3743
    4SAPS   C37  496   1.020   3.508   9.344  0.1221 -0.1313  0.2709
    4SAPS   H7X  497   0.957   3.420   9.319 -0.0651 -0.1533  0.7896
    4SAPS   H7Y  498   1.127   3.493   9.322 -0.0016  0.2907 -0.6441
    4SAPS   C38  499   0.974   3.623   9.246 -0.3047  0.5077 -0.5479
    4SAPS   H8X  500   0.865   3.633   9.265 -0.2610  1.2214 -0.6760
    4SAPS   H8Y  501   0.983   3.586   9.142 -1.0885 -2.9236  0.4597
    4SAPS   C39  502   1.053   3.754   9.252 -0.5066 -0.3039  0.3606
    4SAPS   H9X  503   1.057   3.788   9.358 -0.0196  0.1005  0.2187
    4SAPS   H9Y  504   0.993   3.827   9.194  2.7229  0.7993 -1.8832
    4SAPS  C310  505   1.194   3.749   9.201 -0.6845 -0.4373  0.2471
    4SAPS  H10X  506   1.245   3.670   9.260 -0.8667 -0.2017  0.7335
    4SAPS  H10Y  507   1.249   3.844   9.219 -2.2734  1.2975 -3.0150
    4SAPS  C311  508   1.202   3.710   9.048  0.1715  0.5136 -0.4284
    4SAPS  H11X  509   1.173   3.604   9.032 -0.9262  0.8126 -0.5051
    4SAPS  H11Y  510   1.308   3.730   9.020  0.0225  1.7252 -0.1956
    4SAPS  C312  511   1.113   3.797   8.964 -0.0157 -0.1478 -0.0872
    4SAPS  H12X  512   1.128   3.903   8.993 -2.4565  0.1113  0.4031
    4SAPS  H12Y  513   1.006   3.775   8.982  0.0366 -0.4228 -0.1091
    4SAPS  C313  514   1.131   3.778   8.810  0.0604  0.1618 -0.3924
    4SAPS  H13X  515   1.111   3.675   8.773 -0.7398  1.0087 -2.5107
    4SAPS  H13Y  516   1.235   3.809   8.784 -0.2966 -0.0618 -2.2947
    4SAPS  C314  517   1.039   3.870   8.732  0.2796 -0.6058 -0.0027
    4SAPS  H14X  518   1.083   3.893   8.633  0.6322  0.7223  0.4438
    4SAPS  H14Y  519   1.045   3.969   8.782  2.6618 -1.8838  2.5184
    4SAPS  C315  520   0.889   3.834   8.730  0.6533  0.0668 -0.2091
    4SAPS  H15X  521   0.851   3.862   8.831  0.4772  0.8883 -0.5047
    4SAPS  H15Y  522   0.865   3.725   8.723  0.3143 -0.0646  2.0816
    4SAPS  C316  523   0.803   3.913   8.629 -0.0361  0.2000  0.6092
    4SAPS  H16X  524   0.863   3.899   8.537  0.3556 -1.7302  1.1082
    4SAPS  H16Y  525   0.793   4.020   8.656  0.0321  0.2896  0.2883
    4SAPS  C317  526   0.655   3.859   8.601 -0.3520  0.0031  0.3467
    4SAPS  H17X  527   0.576   3.864   8.680 -1.7791 -0.7552 -0.9703
    4SAPS  H17Y  528   0.668   3.750   8.587  0.4386  0.3775 -2.3453
    4SAPS  C318  529   0.583   3.905   8.480  0.2908 -0.5381  0.3667
    4SAPS  H18X  530   0.539   4.007   8.489  0.0198 -0.5514 -0.7059
    4SAPS  H18Y  531   0.515   3.824   8.447  0.8684 -0.9028  0.0543
    4SAPS  H18Z  532   0.661   3.916   8.402 -0.7351 -0.3545 -0.6567
    5SAPS     N  533   4.126   1.365  10.438  0.0039 -0.7592  0.5723
    5SAPS   HN1  534   4.148   1.454  10.488  1.3584 -1.0114  0.4606
    5SAPS   HN2  535   4.209   1.307  10.415  0.2883  0.2826 -1.1527
    5SAPS   HN3  536   4.068   1.383  10.354 -0.2075 -0.4191  0.7858
    5SAPS   C12  537   4.041   1.291  10.545 -0.0535  0.8746  0.2290
    5SAPS  H12A  538   3.977   1.220  10.495  1.7573 -0.7106  0.0307
    5SAPS   C13  539   4.119   1.204  10.648  1.0896  0.0928  0.6792
    5SAPS  O13A  540   4.243   1.203  10.638  0.4133  0.3729  0.9753
    5SAPS  O13B  541   4.057   1.139  10.733 -0.4411 -0.2765  0.1270
    5SAPS   C11  542   3.942   1.392  10.614 -0.6325 -0.4999  0.1997
    5SAPS  H11A  543   3.889   1.344  10.699 -1.1037 -3.9812 -1.8549
    5SAPS  H11B  544   3.867   1.430  10.541 -0.3637 -0.1252  0.1112
    5SAPS     P  545   3.942   1.652  10.691 -0.4348  0.1848  0.1056
    5SAPS   O13  546   3.818   1.616  10.761 -0.0842 -0.3696  0.1768
    5SAPS   O14  547   4.038   1.740  10.762 -0.1438  0.1013 -0.0238
    5SAPS   O12  548   4.014   1.508  10.658  0.7800  0.4200  0.0217
    5SAPS   O11  549   3.928   1.703  10.545 -0.2848  0.1769  0.1942
    5SAPS    C1  550   3.843   1.659  10.440  0.2076 -0.1839  0.0303
    5SAPS    HA  551   3.898   1.588  10.375  0.3520  0.2481 -0.3274
    5SAPS    HB  552   3.750   1.612  10.478 -1.6035  1.8455 -1.6139
    5SAPS    C2  553   3.799   1.779  10.352  0.6977  0.3102 -0.3721
    5SAPS    HS  554   3.882   1.853  10.358 -0.2169  1.3121  0.3876
    5SAPS   O21  555   3.666   1.823  10.396  0.3941 -0.1491 -0.0079
    5SAPS   C21  556   3.669   1.905  10.501  0.9764  0.0432 -0.1179
    5SAPS   O22  557   3.772   1.946  10.543  0.5167 -0.4214  0.0633
    5SAPS   C22  558   3.529   1.964  10.543  0.6263  0.1074  0.3248
    5SAPS   H2R  559   3.457   1.880  10.555  1.1228 -0.4528 -0.5747
    5SAPS   H2S  560   3.546   2.008  10.644  1.1038 -0.3549  0.4441
    5SAPS    C3  561   3.790   1.752  10.196  0.0004 -0.3695  0.0277
    5SAPS    HX  562   3.732   1.836  10.154 -0.5618 -0.6332  0.2652
    5SAPS    HY  563   3.727   1.661  10.179  0.0501 -0.4028  0.0229
    5SAPS   O31  564   3.920   1.733  10.132 -0.5171 -0.1815 -0.5263
    5SAPS   C31  565   3.978   1.847  10.097 -0.5406 -0.3359  0.8135
    5SAPS   O32  566   3.925   1.957  10.102  0.2377  0.2561 -0.4260
    5SAPS   C32  567   4.110   1.816  10.020  0.0856 -0.5073  0.3449
    5SAPS   H2X  568   4.109   1.714   9.976 -0.8092 -0.3968  0.0995
    5SAPS   H2Y  569   4.192   1.817  10.095 -0.1308 -0.8987  0.5882
    5SAPS   C23  570   3.483   2.061  10.438  0.2979 -0.0559  0.2367
    5SAPS   H3R  571   3.562   2.083  10.363 -0.1886 -0.0996 -0.2938
    5SAPS   H3S  572   3.472   2.158  10.491 -1.0147 -0.5615  0.9315
    5SAPS   C24  573   3.351   2.017  10.378 -0.1270 -0.0547  0.3635
    5SAPS   H4R  574   3.296   2.099  10.327  0.0768 -0.6432 -0.8265
    5SAPS   H4S  575   3.271   2.005  10.455 -1.2124 -1.8955 -0.9564
    5SAPS   C25  576   3.376   1.897  10.285 -0.3758  0.4189 -0.1171
    5SAPS   H5R  577   3.377   1.801  10.340  0.5692  0.6132  0.2205
    5SAPS   C26  578   3.409   1.882  10.157  0.3127 -0.1452  0.3768
    5SAPS   H6R  579   3.435   1.780  10.124  1.1942 -0.1370  0.9864
    5SAPS   C27  580   3.434   1.989  10.050 -0.6168 -0.1796  0.2671
    5SAPS   H7R  581   3.389   2.082  10.091  0.8100 -0.3886  2.4907
    5SAPS   H7S  582   3.371   1.961   9.963 -2.1508  0.7138  1.0476
    5SAPS   C28  583   3.582   2.022  10.032 -0.3961 -0.4041  0.1222
    5SAPS   H8R  584   3.628   2.066  10.122  0.3659  1.7323 -1.2280
    5SAPS   C29  585   3.666   2.010   9.926  0.5048  0.2776 -0.3734
    5SAPS   H9R  586   3.768   2.048   9.940  0.2521  0.3472  1.5072
    5SAPS  C210  587   3.636   1.953   9.788  0.4395 -0.3704  0.4588
    5SAPS  H10R  588   3.699   2.011   9.718 -0.0053  0.0450  0.3932
    5SAPS  H10S  589   3.530   1.973   9.759  1.2464  0.9011 -1.8622
    5SAPS  C211  590   3.664   1.799   9.787  0.1947  0.3739  0.1569
    5SAPS  H11R  591   3.601   1.741   9.856 -0.4425 -0.7568 -1.3129
    5SAPS  C212  592   3.746   1.736   9.703 -0.7584 -0.2633  0.0386
    5SAPS  H12R  593   3.741   1.626   9.704 -1.6001 -0.2350  0.0957
    5SAPS  C213  594   3.840   1.806   9.604 -0.3377  0.0866 -0.7983
    5SAPS  H13R  595   3.884   1.896   9.651 -1.1218 -0.0514  0.2221
    5SAPS  H13S  596   3.780   1.854   9.524  1.3650  0.5338 -1.8504
    5SAPS  C214  597   3.955   1.719   9.549  0.4987 -0.5434  0.0548
    5SAPS  H14R  598   4.050   1.716   9.604  0.7156  0.2851 -0.2661
    5SAPS  C215  599   3.963   1.665   9.423  0.1324  0.4160 -0.2224
    5SAPS  H15R  600   4.061   1.621   9.400  0.7831 -0.8697  4.1470
    5SAPS  C216  601   3.862   1.654   9.310  0.0147  0.0300 -0.4280
    5SAPS  H16R  602   3.765   1.706   9.324 -2.0683 -3.6764  0.3086
    5SAPS  H16S  603   3.835   1.549   9.287 -0.4327 -0.2691  1.3119
    5SAPS  C217  604   3.926   1.704   9.175  0.0583  0.5089 -0.3578
    5SAPS  H17R  605   4.025   1.658   9.157  0.9524  0.7736  3.2453
    5SAPS  H17S  606   3.950   1.812   9.188  4.4611 -0.0507 -2.0738
    5SAPS  C218  607   3.851   1.694   9.046  0.0045  0.2219  0.6021
    5SAPS  H18R  608   3.905   1.746   8.965  0.2088 -0.8345  0.0409
    5SAPS  H18S  609   3.846   1.590   9.007 -1.1903  0.4076  0.2173
    5SAPS  C219  610   3.702   1.746   9.056 -0.4590 -0.2575  0.1382
    5SAPS  H19R  611   3.701   1.855   9.079 -0.8949  0.0823 -1.4001
    5SAPS  H19S  612   3.655   1.687   9.138 -0.5549  0.8117  0.8710
    5SAPS  C220  613   3.632   1.733   8.924 -0.2050 -0.2371  0.2870
    5SAPS  H20R  614   3.615   1.626   8.902 -0.3173 -0.2619  0.4983
    5SAPS  H20S  615   3.696   1.782   8.848  1.7767  2.0264  3.1983
    5SAPS  H20T  616   3.529   1.777   8.931 -1.2447 -2.6006  0.6151
    5SAPS   C33  617   4.120   1.922   9.911 -0.3190 -0.2173 -0.3408
    5SAPS   H3X  618   4.149   2.019   9.957  0.1807 -1.4304  2.0030
    5SAPS   H3Y  619   4.025   1.938   9.855 -0.5806 -1.1060 -0.1544
    5SAPS   C34  620   4.234   1.893   9.818  0.3663 -0.2333 -0.4256
    5SAPS   H4X  621   4.218   1.791   9.776 -0.4287 -0.8706  1.3326
    5SAPS   H4Y  622   4.317   1.900   9.892 -2.4641  0.6539  2.9369
    5SAPS   C35  623   4.240   1.985   9.696 -0.2899  0.8893 -0.2722
    5SAPS   H5X  624   4.266   2.085   9.735  0.2617  1.5823 -2.2980
    5SAPS   H5Y  625   4.153   1.994   9.627 -1.7586  3.0450  1.7180
    5SAPS   C36  626   4.360   1.937   9.618  0.0652 -0.1011  0.3805
    5SAPS   H6X  627   4.439   1.908   9.690 -0.7465  0.3785  1.4891
    5SAPS   H6Y  628   4.404   2.018   9.556 -0.8531  0.6686  0.7110
    5SAPS   C37  629   4.334   1.812   9.531 -0.4871 -0.3600 -0.2848
    5SAPS   H7X  630   4.268   1.853   9.452 -1.2687 -0.4275  0.3273
    5SAPS   H7Y  631   4.271   1.734   9.577  1.1513 -1.5854 -0.0111
    5SAPS   C38  632   4.465   1.757   9.475  0.1439  0.4730  1.0588
    5SAPS   H8X  633   4.513   1.688   9.548 -2.4004 -0.2851  2.1223
    5SAPS   H8Y  634   4.547   1.828   9.450 -0.3017  0.1953 -1.4044
    5SAPS   C39  635   4.447   1.680   9.346 -0.6691 -0.8441  0.2315
    5SAPS   H9X  636   4.361   1.611   9.358 -0.1813 -1.6152 -0.6132
    5SAPS   H9Y  637   4.537   1.620   9.322  3.1211  4.5861 -1.1868
    5SAPS  C310  638   4.431   1.778   9.225 -0.5221 -0.4388  1.0157
    5SAPS  H10X  639   4.492   1.871   9.226 -0.1672 -0.5266 -1.9634
    5SAPS  H10Y  640   4.322   1.798   9.226 -0.9906 -2.1466 -2.1071
    5SAPS  C311  641   4.446   1.702   9.095  0.2647  0.1701  0.7296
    5SAPS  H11X  642   4.402   1.750   9.006  1.8097  1.1886  0.4654
    5SAPS  H11Y  643   4.387   1.609   9.103 -2.8210  1.7670 -1.6390
    5SAPS  C312  644   4.586   1.653   9.060 -0.1859  0.0338  0.9627
    5SAPS  H12X  645   4.609   1.583   9.143 -1.1130  0.1892  1.3557
    5SAPS  H12Y  646   4.656   1.739   9.061  0.1505 -0.2382  0.9517
    5SAPS  C313  647   4.579   1.579   8.920 -1.0322  0.3440  0.1056
    5SAPS  H13X  648   4.490   1.513   8.923  0.5976 -2.0790 -0.7024
    5SAPS  H13Y  649   4.666   1.510   8.908  0.0264  1.8963 -1.7000
    5SAPS  C314  650   4.587   1.674   8.802 -0.0052 -0.1012 -0.8205
    5SAPS  H14X  651   4.657   1.758   8.822 -0.0743 -0.5849  1.8355
    5SAPS  H14Y  652   4.487   1.721   8.798 -0.0075  0.3426  2.1129
    5SAPS  C315  653   4.643   1.625   8.668  0.2879  0.3679 -0.9728
    5SAPS  H15X  654   4.567   1.568   8.610  0.3973  0.4292 -1.1745
    5SAPS  H15Y  655   4.728   1.555   8.684  1.4999  1.8606 -0.6289
    5SAPS  C316  656   4.691   1.741   8.586  0.0938 -0.2550 -0.1093
    5SAPS  H16X  657   4.776   1.793   8.635  0.5396 -0.6918 -0.4036
    5SAPS  H16Y  658   4.607   1.811   8.571  0.3456  0.7982  2.7992
    5SAPS  C317  659   4.731   1.696   8.448  0.0365  0.0661  0.0727
    5SAPS  H17X  660   4.639   1.667   8.393 -0.7949 -1.0137  1.9355
    5SAPS  H17Y  661   4.782   1.598   8.450 -2.3100 -1.2312  0.4754
    5SAPS  C318  662   4.808   1.799   8.366 -0.1349  0.1040  0.1918
    5SAPS  H18X  663   4.841   1.761   8.267  1.9169  2.9211 -0.3030
    5SAPS  H18Y  664   4.904   1.820   8.417  0.6875 -0.6565 -0.9923
    5SAPS  H18Z  665   4.747   1.889   8.345  1.5642  1.1782 -0.3310
    6SAPS     N  666   1.504   0.404  10.710  0.3652  0.1857  0.0164
    6SAPS   HN1  667   1.568   0.481  10.739  2.0932 -1.2952  0.3779
    6SAPS   HN2  668   1.534   0.351  10.625  0.4191 -0.7878  0.6220
    6SAPS   HN3  669   1.409   0.442  10.696  1.0199  1.7092 -0.5026
    6SAPS   C12  670   1.524   0.309  10.823  0.0863 -0.9298 -0.7864
    6SAPS  H12A  671   1.630   0.296  10.811  0.5243  0.8922  0.7139
    6SAPS   C13  672   1.507   0.377  10.965  0.2319 -0.6148 -0.0377
    6SAPS  O13A  673   1.502   0.505  10.962 -0.1605 -0.3706 -0.0561
    6SAPS  O13B  674   1.512   0.307  11.071 -0.4131 -0.3524  0.2077
    6SAPS   C11  675   1.444   0.182  10.791  0.1217 -0.2536  0.2377
    6SAPS  H11A  676   1.334   0.193  10.802 -0.1265 -0.1969 -1.7789
    6SAPS  H11B  677   1.479   0.110  10.867 -0.4956  0.6321  1.3881
    6SAPS     P  678   1.467  -0.007  10.620 -0.3406  0.2388 -0.4031
    6SAPS   O13  679   1.594  -0.074  10.625  0.2663  0.3244 -0.3711
    6SAPS   O14  680   1.358  -0.078  10.688  0.2025 -0.2123 -0.0979
    6SAPS   O12  681   1.488   0.135  10.663  1.0630  0.3064 -0.6584
    6SAPS   O11  682   1.438   0.026  10.473  0.3163  0.0607 -0.0467
    6SAPS    C1  683   1.334  -0.047  10.402  0.1036  0.7387 -0.6030
    6SAPS    HA  684   1.361  -0.154  10.387  1.5202  1.0902 -0.6924
    6SAPS    HB  685   1.234  -0.040  10.451  0.7801  2.7502  0.6015
    6SAPS    C2  686   1.306   0.015  10.260  0.9962 -0.3208  0.0865
    6SAPS    HS  687   1.224  -0.045  10.214 -0.7027  1.4870  0.5986
    6SAPS   O21  688   1.424   0.025  10.175  0.0573  0.1959  0.6437
    6SAPS   C21  689   1.477  -0.091  10.127  0.3417 -0.0951  0.0988
    6SAPS   O22  690   1.421  -0.204  10.132 -0.1968  0.4173 -1.0089
    6SAPS   C22  691   1.613  -0.073  10.061  0.0853 -0.2346  0.3291
    6SAPS   H2R  692   1.616  -0.148   9.979  0.0090  0.9577 -0.8003
    6SAPS   H2S  693   1.623   0.025  10.010  0.0676  0.0532  0.8727
    6SAPS    C3  694   1.236   0.162  10.268 -0.4158  0.7758  0.4649
    6SAPS    HX  695   1.317   0.227  10.309  3.1625 -1.5581 -2.2696
    6SAPS    HY  696   1.153   0.141  10.339 -2.3849 -1.7701 -2.3772
    6SAPS   O31  697   1.188   0.214  10.144  0.0747 -0.1122 -0.5536
    6SAPS   C31  698   1.230   0.329  10.116  0.1774  0.1656  0.0660
    6SAPS   O32  699   1.325   0.391  10.161 -0.0359  0.2813  0.2557
    6SAPS   C32  700   1.165   0.383   9.990  0.0730 -0.3385 -0.3035
    6SAPS   H2X  701   1.212   0.480   9.962 -0.9119 -0.0924 -1.1438
    6SAPS   H2Y  702   1.056   0.387  10.005  0.3126 -0.4494  1.7484
    6SAPS   C23  703   1.727  -0.072  10.161 -0.2007 -0.1672  0.5912
    6SAPS   H3R  704   1.720  -0.172  10.208 -1.1674 -0.5866 -0.4136
    6SAPS   H3S  705   1.709   0.018  10.224 -2.0008  0.9920 -1.4394
    6SAPS   C24  706   1.873  -0.063  10.105  0.1983  0.7326 -0.1305
    6SAPS   H4R  707   1.946  -0.101  10.179 -0.0918  0.4703  0.0237
    6SAPS   H4S  708   1.897   0.045  10.092  0.7134  0.5265 -0.9431
    6SAPS   C25  709   1.879  -0.138   9.976 -0.3153 -0.0071  0.3630
    6SAPS   H5R  710   1.863  -0.246   9.986  0.8504 -0.3046 -0.7398
    6SAPS   C26  711   1.901  -0.092   9.847  0.8306 -0.0807  0.4420
    6SAPS   H6R  712   1.918  -0.169   9.770 -0.7796 -1.3606  1.2987
    6SAPS   C27  713   1.925   0.047   9.794  0.1679  0.5423 -0.0821
    6SAPS   H7R  714   2.029   0.082   9.778 -0.3476  2.3575  0.3494
    6SAPS   H7S  715   1.890   0.109   9.879 -1.5755  0.7339 -0.9104
    6SAPS   C28  716   1.841   0.079   9.675 -0.0143 -0.5227 -0.3318
    6SAPS   H8R  717   1.739   0.108   9.702 -0.0520 -0.8405 -0.1352
    6SAPS   C29  718   1.890   0.109   9.550  0.5617 -0.6132 -0.6063
    6SAPS   H9R  719   1.815   0.132   9.473  1.4819  0.9610 -1.0787
    6SAPS  C210  720   2.031   0.091   9.504  0.3112 -0.0206 -0.0749
    6SAPS  H10R  721   2.041   0.003   9.436  1.8885 -0.2203  0.3665
    6SAPS  H10S  722   2.090   0.056   9.592 -0.1692 -5.0020 -1.3892
    6SAPS  C211  723   2.077   0.214   9.428  0.4236  0.4775  0.0508
    6SAPS  H11R  724   2.104   0.301   9.490 -0.5918  0.8147  0.0370
    6SAPS  C212  725   2.080   0.232   9.298 -0.4806 -0.6450  0.3538
    6SAPS  H12R  726   2.131   0.324   9.265 -1.9241  1.4590  3.4220
    6SAPS  C213  727   2.039   0.137   9.189  0.2650  0.3187  0.5775
    6SAPS  H13R  728   2.025   0.198   9.097  1.0164  0.1925  0.3781
    6SAPS  H13S  729   1.942   0.085   9.209  0.0490  0.3071 -0.4361
    6SAPS  C214  730   2.138   0.026   9.152  1.0564 -0.1013  0.3642
    6SAPS  H14R  731   2.105  -0.078   9.167  1.0557  0.1255  2.1081
    6SAPS  C215  732   2.259   0.045   9.095 -0.5654  0.3451  0.2837
    6SAPS  H15R  733   2.316  -0.048   9.078 -1.5648 -0.0723 -0.9362
    6SAPS  C216  734   2.323   0.176   9.048 -0.1781 -0.0924 -0.2401
    6SAPS  H16R  735   2.431   0.189   9.073 -0.3203  1.7132 -0.4241
    6SAPS  H16S  736   2.269   0.259   9.099 -0.6177 -0.8503  0.5711
    6SAPS  C217  737   2.315   0.212   8.899 -0.3548  0.5533  0.0482
    6SAPS  H17R  738   2.374   0.137   8.841  2.9329  2.0546  1.2128
    6SAPS  H17S  739   2.378   0.302   8.880  0.9456 -0.2569  0.3736
    6SAPS  C218  740   2.177   0.240   8.845  0.2164 -0.3089 -0.7630
    6SAPS  H18R  741   2.115   0.151   8.870  3.9882 -2.8330  0.4583
    6SAPS  H18S  742   2.182   0.242   8.735 -0.3289  1.5328 -0.7916
    6SAPS  C219  743   2.119   0.377   8.882  0.0275  0.8956 -0.8904
    6SAPS  H19R  744   2.200   0.452   8.870  0.1340  0.7921 -0.8291
    6SAPS  H19S  745   2.084   0.377   8.988 -0.5870  1.3215 -1.0927
    6SAPS  C220  746   2.005   0.425   8.792  0.3633 -0.4568 -0.8680
    6SAPS  H20R  747   1.932   0.341   8.791  2.1576 -2.0713 -0.5917
    6SAPS  H20S  748   2.046   0.442   8.691  0.4623 -0.3670 -0.8120
    6SAPS  H20T  749   1.959   0.517   8.834 -1.4066 -1.7234  0.1285
    6SAPS   C33  750   1.202   0.280   9.879 -0.0663 -0.2181  0.5500
    6SAPS   H3X  751   1.161   0.180   9.902 -0.0409 -0.5646 -0.8128
    6SAPS   H3Y  752   1.313   0.277   9.874  0.0629  2.5996 -3.0016
    6SAPS   C34  753   1.154   0.331   9.741  0.3683 -0.7297  0.1823
    6SAPS   H4X  754   1.189   0.436   9.742 -1.7388  0.0190 -0.4943
    6SAPS   H4Y  755   1.044   0.318   9.737  0.2652  0.3153 -1.6397
    6SAPS   C35  756   1.218   0.258   9.621  0.8231  0.1595  0.2268
    6SAPS   H5X  757   1.207   0.148   9.638  2.4576  0.0140  0.5212
    6SAPS   H5Y  758   1.328   0.268   9.619  0.8122  0.2368 -1.4602
    6SAPS   C36  759   1.154   0.297   9.489  0.1820 -0.1665  0.1219
    6SAPS   H6X  760   1.177   0.403   9.467 -1.8593  0.2313 -0.2610
    6SAPS   H6Y  761   1.043   0.288   9.491  0.1806 -0.7080 -1.2833
    6SAPS   C37  762   1.195   0.208   9.373 -0.7341 -0.0677 -0.3200
    6SAPS   H7X  763   1.220   0.104   9.403  1.9181  0.1474 -1.4581
    6SAPS   H7Y  764   1.289   0.247   9.327 -2.0489  0.3257 -2.8672
    6SAPS   C38  765   1.095   0.194   9.250 -0.6230  0.2871 -0.2879
    6SAPS   H8X  766   1.000   0.147   9.283  0.3862 -2.5258 -1.0483
    6SAPS   H8Y  767   1.138   0.120   9.179  0.2819 -1.7338  2.2048
    6SAPS   C39  768   1.089   0.336   9.188 -0.0400 -0.6678 -0.0609
    6SAPS   H9X  769   1.193   0.374   9.177  0.1492 -1.0209  0.4785
    6SAPS   H9Y  770   1.036   0.407   9.256  1.5908  0.4578  0.0911
    6SAPS  C310  771   1.016   0.349   9.050 -0.0646  0.6589 -0.3240
    6SAPS  H10X  772   1.036   0.453   9.016 -0.9910  0.1256 -2.6676
    6SAPS  H10Y  773   0.907   0.327   9.058  0.4635 -1.6595  1.8532
    6SAPS  C311  774   1.080   0.273   8.940 -0.1627 -0.6389  0.3842
    6SAPS  H11X  775   1.016   0.283   8.850  0.2939 -0.4372  0.0749
    6SAPS  H11Y  776   1.071   0.166   8.968 -2.1084 -0.2075  1.5526
    6SAPS  C312  777   1.224   0.312   8.902 -0.4948  0.9650 -0.3722
    6SAPS  H12X  778   1.289   0.335   8.989 -1.5532  3.1846 -0.1110
    6SAPS  H12Y  779   1.218   0.396   8.830 -0.1625  1.6356  0.3804
    6SAPS  C313  780   1.286   0.193   8.816  0.4845  0.4685  0.0652
    6SAPS  H13X  781   1.208   0.160   8.744  0.1265  0.8500  0.2729
    6SAPS  H13Y  782   1.302   0.114   8.893 -0.3667  0.8175  0.6133
    6SAPS  C314  783   1.421   0.237   8.752  0.5620  0.6991  0.0530
    6SAPS  H14X  784   1.460   0.321   8.813  0.1457  2.2136 -1.6977
    6SAPS  H14Y  785   1.409   0.288   8.655 -0.0173 -0.0090 -0.2617
    6SAPS  C315  786   1.506   0.116   8.725 -0.2995 -0.2948  0.2837
    6SAPS  H15X  787   1.452   0.058   8.647 -1.5889  3.2617 -1.6713
    6SAPS  H15Y  788   1.503   0.052   8.816 -0.4818  0.2061  0.6359
    6SAPS  C316  789   1.644   0.154   8.674  0.6038  0.3294 -0.0647
    6SAPS  H16X  790   1.705   0.193   8.758  2.4313  0.4130 -1.3798
    6SAPS  H16Y  791   1.635   0.238   8.601  3.8879 -0.0403 -1.0552
    6SAPS  C317  792   1.723   0.039   8.613  1.1771 -0.5651  0.1287
    6SAPS  H17X  793   1.674  -0.003   8.522 -0.6250 -1.3501  1.4042
    6SAPS  H17Y  794   1.728  -0.048   8.680  1.8991  0.2865  1.2083
    6SAPS  C318  795   1.869   0.080   8.569 -0.3708  0.3477  0.2958
    6SAPS  H18X  796   1.932   0.095   8.659 -0.6763  2.5220  0.2063
    6SAPS  H18Y  797   1.862   0.178   8.517  2.0427  1.2642  1.5386
    6SAPS  H18Z  798   1.895  -0.007   8.506 -2.0115 -0.4771  0.6963
    7SAPS     N  799   5.503   1.551  10.629 -0.1508 -0.5504 -0.0926
    7SAPS   HN1  800   5.429   1.496  10.581  0.1201 -0.0479 -1.1281
    7SAPS   HN2  801   5.539   1.617  10.556  0.2858  1.0891  1.5299
    7SAPS   HN3  802   5.571   1.482  10.665 -0.1176 -1.2342 -1.4010
    7SAPS   C12  803   5.434   1.641  10.731  0.2542  0.4883  0.3893
    7SAPS  H12A  804   5.349   1.686  10.682  0.4941  3.7707  2.6881
    7SAPS   C13  805   5.373   1.572  10.855 -0.2801 -0.0979  0.0443
    7SAPS  O13A  806   5.400   1.449  10.872 -0.1300  0.6313 -0.1672
    7SAPS  O13B  807   5.324   1.648  10.939  0.1002 -0.2654  0.0118
    7SAPS   C11  808   5.536   1.746  10.775 -0.0609 -0.4014 -0.0672
    7SAPS  H11A  809   5.609   1.696  10.843  0.8507  2.0211  0.8314
    7SAPS  H11B  810   5.480   1.824  10.832  0.5063 -2.2480  3.3352
    7SAPS     P  811   5.738   1.874  10.653  0.4756  0.5987 -0.5376
    7SAPS   O13  812   5.746   1.964  10.767  0.2108 -0.0158 -0.2980
    7SAPS   O14  813   5.837   1.767  10.635 -0.5494  0.4605 -0.5349
    7SAPS   O12  814   5.595   1.809  10.661  0.3879  0.6139  0.0414
    7SAPS   O11  815   5.730   1.952  10.513  0.4502  0.0417  0.0997
    7SAPS    C1  816   5.665   2.079  10.505 -0.3254 -0.3962 -1.0116
    7SAPS    HA  817   5.672   2.133  10.602  2.4061 -0.3890 -1.1318
    7SAPS    HB  818   5.704   2.147  10.426 -0.9731 -1.8895 -2.6954
    7SAPS    C2  819   5.510   2.064  10.479  1.0240  0.2224  0.6672
    7SAPS    HS  820   5.453   2.008  10.555 -2.1255 -1.0011 -2.3443
    7SAPS   O21  821   5.496   1.991  10.353  0.8050 -0.2819  0.1042
    7SAPS   C21  822   5.383   1.919  10.334 -0.5552  0.2867 -1.0899
    7SAPS   O22  823   5.299   1.897  10.416  0.2531 -0.6964 -0.0530
    7SAPS   C22  824   5.377   1.856  10.204  0.1950 -0.2861  0.5137
    7SAPS   H2R  825   5.364   1.941  10.134 -0.8310 -0.8890 -0.0675
    7SAPS   H2S  826   5.473   1.807  10.178 -0.5986 -2.0136  0.6436
    7SAPS    C3  827   5.441   2.204  10.469 -0.5454 -0.1559  0.1798
    7SAPS    HX  828   5.491   2.264  10.390  0.6652 -1.0087  0.2740
    7SAPS    HY  829   5.473   2.250  10.565  0.7059  1.5271 -0.9826
    7SAPS   O31  830   5.292   2.207  10.480 -0.0253  0.0151  0.0342
    7SAPS   C31  831   5.228   2.219  10.368 -0.3509 -0.3809  0.2214
    7SAPS   O32  832   5.285   2.234  10.258  0.6835 -0.1926 -0.6173
    7SAPS   C32  833   5.081   2.191  10.394  0.0938  0.6457 -0.4834
    7SAPS   H2X  834   5.038   2.270  10.459 -1.6048 -1.4896  1.1732
    7SAPS   H2Y  835   5.087   2.097  10.453 -0.0664 -0.1740 -1.7309
    7SAPS   C23  836   5.281   1.737  10.187  0.8139  0.4444  0.0937
    7SAPS   H3R  837   5.182   1.769  10.227  1.3524 -0.1548  2.0407
    7SAPS   H3S  838   5.325   1.653  10.245  0.2093  0.1333  0.1093
    7SAPS   C24  839   5.275   1.676  10.043  0.1721 -0.5062 -0.2423
    7SAPS   H4R  840   5.375   1.633  10.020  0.9226  1.5981 -1.2381
    7SAPS   H4S  841   5.264   1.758   9.969 -1.3474  0.0706  0.5848
    7SAPS   C25  842   5.153   1.577  10.043 -0.3342  0.2351 -0.0011
    7SAPS   H5R  843   5.059   1.621  10.078  0.0843  1.1877 -0.0372
    7SAPS   C26  844   5.150   1.446  10.003 -0.0406 -0.3223  0.2484
    7SAPS   H6R  845   5.055   1.394  10.021  1.0297 -1.7186  2.1453
    7SAPS   C27  846   5.265   1.376   9.945  1.3642 -0.0412 -0.5781
    7SAPS   H7R  847   5.342   1.356  10.023  0.9086 -1.7832 -0.5479
    7SAPS   H7S  848   5.320   1.436   9.869  0.6974  0.8194 -0.3923
    7SAPS   C28  849   5.221   1.251   9.884 -0.2405 -0.9201 -0.4718
    7SAPS   H8R  850   5.263   1.162   9.933  0.3302 -0.1995  0.3872
    7SAPS   C29  851   5.164   1.229   9.765  0.2649  0.6828  0.0645
    7SAPS   H9R  852   5.147   1.125   9.735  0.1640  1.2513 -1.9773
    7SAPS  C210  853   5.129   1.339   9.667  0.5011 -0.3089  0.6221
    7SAPS  H10R  854   5.120   1.437   9.718  2.0627  0.8945 -1.3078
    7SAPS  H10S  855   5.025   1.314   9.638  1.3859 -3.1013 -0.4770
    7SAPS  C211  856   5.229   1.356   9.561  0.8585 -0.0414 -0.5120
    7SAPS  H11R  857   5.337   1.356   9.586  1.3490  1.7531 -2.3440
    7SAPS  C212  858   5.203   1.366   9.429 -0.1384 -0.2355  0.9235
    7SAPS  H12R  859   5.283   1.368   9.353 -2.3839  1.5029 -1.5679
    7SAPS  C213  860   5.061   1.374   9.358  0.4448  0.1456 -0.1177
    7SAPS  H13R  861   5.048   1.452   9.280 -0.4717 -0.0668 -0.1798
    7SAPS  H13S  862   4.984   1.407   9.431  1.0494  2.8908 -0.6007
    7SAPS  C214  863   5.021   1.236   9.311  0.1957  0.1700 -0.0687
    7SAPS  H14R  864   4.970   1.174   9.387 -0.1893 -0.6129 -0.9495
    7SAPS  C215  865   5.049   1.185   9.189  0.7084 -0.2295 -0.3627
    7SAPS  H15R  866   5.024   1.080   9.168  1.3233 -0.4120 -0.2052
    7SAPS  C216  867   5.126   1.239   9.071 -0.0404 -0.3972 -0.7556
    7SAPS  H16R  868   5.192   1.162   9.026  4.3392  2.0169  0.8682
    7SAPS  H16S  869   5.196   1.320   9.102 -2.4084  1.7745 -0.7019
    7SAPS  C217  870   5.040   1.308   8.960 -0.1992  0.4455 -0.1853
    7SAPS  H17R  871   4.980   1.391   9.002  0.1890  1.1683 -1.0362
    7SAPS  H17S  872   4.968   1.228   8.933 -1.7573  1.2187  1.4777
    7SAPS  C218  873   5.118   1.354   8.841  0.0963 -0.5691 -0.2942
    7SAPS  H18R  874   5.185   1.276   8.799 -0.2872 -0.9979 -0.1187
    7SAPS  H18S  875   5.173   1.447   8.866 -2.5620  1.0417 -0.0407
    7SAPS  C219  876   5.019   1.401   8.735 -0.4816  0.0006 -0.5866
    7SAPS  H19R  877   4.948   1.468   8.789 -1.3932 -1.3017 -0.1261
    7SAPS  H19S  878   4.954   1.320   8.695  0.4529 -2.3275  2.1980
    7SAPS  C220  879   5.095   1.481   8.634 -0.6183  0.4390 -0.3159
    7SAPS  H20R  880   5.029   1.513   8.551 -0.1768  1.0319 -0.4471
    7SAPS  H20S  881   5.178   1.419   8.596  0.1259  1.7650 -0.9279
    7SAPS  H20T  882   5.144   1.570   8.680 -0.6094  1.3296 -1.9544
    7SAPS   C33  883   5.002   2.167  10.265 -0.1392 -0.2103 -0.2831
    7SAPS   H3X  884   5.018   2.256  10.201  0.0511  0.4705  0.7038
    7SAPS   H3Y  885   4.893   2.171  10.289 -0.3631  1.1821 -1.4122
    7SAPS   C34  886   5.007   2.029  10.199  0.8632  0.0411 -0.8753
    7SAPS   H4X  887   4.990   1.954  10.279 -1.7083  0.1393 -1.2621
    7SAPS   H4Y  888   5.101   2.002  10.146 -0.6096 -1.5726 -2.7930
    7SAPS   C35  889   4.903   2.012  10.090 -0.4753  0.2429 -0.3003
    7SAPS   H5X  890   4.898   2.102  10.026 -1.3365 -0.4708 -1.2808
    7SAPS   H5Y  891   4.803   1.989  10.133 -0.6247 -1.1785 -1.3060
    7SAPS   C36  892   4.928   1.885  10.001 -0.1875 -0.1251 -0.2688
    7SAPS   H6X  893   4.923   1.796  10.068  2.4572 -0.1447  0.0163
    7SAPS   H6Y  894   5.030   1.878   9.958 -0.6786 -0.9005 -1.3441
    7SAPS   C37  895   4.829   1.852   9.886 -0.7399  0.1504 -0.6522
    7SAPS   H7X  896   4.807   1.945   9.830 -0.9622  0.4136 -0.1337
    7SAPS   H7Y  897   4.735   1.806   9.924  0.5151 -1.3055  0.8344
    7SAPS   C38  898   4.879   1.746   9.789 -0.4072  0.1787  0.6970
    7SAPS   H8X  899   4.845   1.646   9.821  0.2328 -0.9627 -1.9442
    7SAPS   H8Y  900   4.990   1.752   9.790 -0.4573  2.4720 -0.1244
    7SAPS   C39  901   4.814   1.755   9.648  0.2945  0.2470  0.1911
    7SAPS   H9X  902   4.720   1.814   9.654  0.1043  0.1154 -1.1485
    7SAPS   H9Y  903   4.799   1.647   9.626  1.8334 -0.2767  1.5208
    7SAPS  C310  904   4.909   1.796   9.545 -0.5789  0.1361  0.9001
    7SAPS  H10X  905   5.004   1.740   9.559 -0.5288 -0.3907 -1.3072
    7SAPS  H10Y  906   4.926   1.906   9.550  1.8929 -0.0671 -1.2986
    7SAPS  C311  907   4.862   1.766   9.402 -0.4985 -0.0175  0.1107
    7SAPS  H11X  908   4.778   1.833   9.377 -0.3429  0.7533  1.5477
    7SAPS  H11Y  909   4.817   1.664   9.402  2.1658 -1.3039  1.3357
    7SAPS  C312  910   4.972   1.772   9.287 -0.3735  0.9040  0.0106
    7SAPS  H12X  911   5.034   1.681   9.301  0.7687  1.6837  0.1989
    7SAPS  H12Y  912   5.026   1.867   9.308 -1.8196  2.2032 -1.8470
    7SAPS  C313  913   4.900   1.753   9.156 -0.1673 -0.1497  0.3819
    7SAPS  H13X  914   4.814   1.821   9.138 -1.2905 -1.4173  0.7672
    7SAPS  H13Y  915   4.850   1.654   9.155 -1.2742  0.3880 -0.8881
    7SAPS  C314  916   4.992   1.746   9.034 -0.2741 -0.5469  0.4472
    7SAPS  H14X  917   4.927   1.757   8.944 -2.4797  2.6635  2.2249
    7SAPS  H14Y  918   5.053   1.653   9.035  0.5284 -0.0422 -0.1051
    7SAPS  C315  919   5.087   1.873   9.021 -0.0023  0.8246 -0.8920
    7SAPS  H15X  920   5.151   1.866   9.112 -1.9359 -0.8446  0.4384
    7SAPS  H15Y  921   5.033   1.970   9.020  1.4725  1.6675 -1.3449
    7SAPS  C316  922   5.182   1.872   8.904 -0.3280  0.2965 -0.7559
    7SAPS  H16X  923   5.241   1.777   8.910  1.2359  1.3212  2.1008
    7SAPS  H16Y  924   5.245   1.964   8.912  0.1775 -0.2215  2.0658
    7SAPS  C317  925   5.127   1.868   8.762 -0.5315 -0.6702  0.7410
    7SAPS  H17X  926   5.078   1.967   8.749 -0.0862 -0.5219  0.1266
    7SAPS  H17Y  927   5.049   1.791   8.746  1.1532 -2.4359  0.6612
    7SAPS  C318  928   5.241   1.863   8.660 -0.6552  0.4843 -0.0789
    7SAPS  H18X  929   5.207   1.884   8.556 -0.1694  0.8319 -0.1715
    7SAPS  H18Y  930   5.296   1.766   8.653  0.2745  0.9812  0.1842
    7SAPS  H18Z  931   5.314   1.945   8.676  0.1345 -0.3590  0.8159
    8SAPS     N  932   2.847   2.846  11.262  0.3564 -0.8952 -1.0399
    8SAPS   HN1  933   2.838   2.787  11.177 -2.3701  1.5258 -2.6261
    8SAPS   HN2  934   2.906   2.806  11.337 -0.0578 -1.0617 -0.7992
    8SAPS   HN3  935   2.754   2.866  11.303  1.1571 -0.1622  0.4891
    8SAPS   C12  936   2.902   2.984  11.224 -0.4088 -0.4533 -0.0212
    8SAPS  H12A  937   2.914   3.030  11.321 -0.7755  0.3756 -0.3608
    8SAPS   C13  938   3.048   2.980  11.167  0.1753 -0.1057  0.1488
    8SAPS  O13A  939   3.110   2.872  11.161  0.4758 -0.3853 -0.7765
    8SAPS  O13B  940   3.095   3.092  11.141  0.0071 -0.1413  0.0914
    8SAPS   C11  941   2.804   3.052  11.130 -0.1204 -0.4416  0.1339
    8SAPS  H11A  942   2.827   3.161  11.124  0.3932 -0.4933  1.0409
    8SAPS  H11B  943   2.706   3.052  11.182 -0.1688 -0.8410  0.0447
    8SAPS     P  944   2.657   2.999  10.922 -0.0183 -0.2493 -0.1795
    8SAPS   O13  945   2.647   2.914  10.803  0.2631  0.4898 -0.2715
    8SAPS   O14  946   2.536   2.993  11.013  0.3851  0.1044 -0.8340
    8SAPS   O12  947   2.792   2.975  11.002 -0.1728 -0.2701 -0.2228
    8SAPS   O11  948   2.663   3.143  10.871 -0.5320 -0.4425  0.1276
    8SAPS    C1  949   2.774   3.222  10.850 -0.4853 -0.4839  0.5188
    8SAPS    HA  950   2.746   3.329  10.862 -0.6188 -0.5630  0.9327
    8SAPS    HB  951   2.864   3.196  10.910  3.0169 -1.3641 -4.4868
    8SAPS    C2  952   2.822   3.206  10.702  0.6133  0.3565  0.6932
    8SAPS    HS  953   2.817   3.095  10.690 -0.2210  0.4641 -0.0745
    8SAPS   O21  954   2.956   3.257  10.689 -0.3000  0.0214 -0.7481
    8SAPS   C21  955   3.020   3.227  10.577 -0.2678  0.6027 -0.5294
    8SAPS   O22  956   3.012   3.118  10.518  0.3886 -0.3073 -0.8543
    8SAPS   C22  957   3.129   3.330  10.543 -0.0799  0.2636 -0.3325
    8SAPS   H2R  958   3.087   3.432  10.556 -0.3412  0.6852 -3.6888
    8SAPS   H2S  959   3.205   3.320  10.623 -0.6583 -1.2069  0.0595
    8SAPS    C3  960   2.727   3.298  10.612  0.9033 -0.2257 -0.0458
    8SAPS    HX  961   2.746   3.405  10.633 -0.6531  0.0121  0.2592
    8SAPS    HY  962   2.621   3.278  10.640  1.0915 -1.1125  0.0838
    8SAPS   O31  963   2.746   3.282  10.470 -0.4663 -0.0433 -0.1996
    8SAPS   C31  964   2.695   3.171  10.416 -0.3307 -0.1541  0.0778
    8SAPS   O32  965   2.620   3.091  10.473 -1.4233  0.3577 -0.6221
    8SAPS   C32  966   2.728   3.153  10.267  0.9763 -0.2280  0.0469
    8SAPS   H2X  967   2.824   3.097  10.259  0.6307 -0.7170 -0.7023
    8SAPS   H2Y  968   2.736   3.257  10.229  0.6463  0.3653  1.5209
    8SAPS   C23  969   3.189   3.298  10.402  0.5712 -0.3894  0.0572
    8SAPS   H3R  970   3.203   3.188  10.393 -0.8986 -0.7922  2.0109
    8SAPS   H3S  971   3.283   3.356  10.389  0.4956  0.0810  1.4490
    8SAPS   C24  972   3.092   3.343  10.292  0.9481 -0.1355  0.0460
    8SAPS   H4R  973   2.993   3.294  10.302 -0.3376  1.9599 -1.5312
    8SAPS   H4S  974   3.146   3.303  10.204  3.1838 -3.1378  2.5690
    8SAPS   C25  975   3.071   3.493  10.286  0.3590 -1.1204 -0.7824
    8SAPS   H5R  976   3.076   3.557  10.376  1.0512  0.5408 -1.9476
    8SAPS   C26  977   3.051   3.553  10.169 -0.4173 -0.3680 -0.6444
    8SAPS   H6R  978   3.060   3.663  10.173  4.4554 -0.5663 -1.2593
    8SAPS   C27  979   3.040   3.490  10.032 -0.3716 -0.1497  0.5853
    8SAPS   H7R  980   2.992   3.391  10.047  1.8418 -1.2553  0.6796
    8SAPS   H7S  981   3.144   3.469  10.000  0.1683  1.5842  1.0909
    8SAPS   C28  982   2.979   3.574   9.927  0.0816  1.0240  1.0867
    8SAPS   H8R  983   2.925   3.663   9.961 -0.2189  0.2248  2.8005
    8SAPS   C29  984   2.972   3.530   9.797 -0.3017 -0.7163  0.2356
    8SAPS   H9R  985   2.923   3.605   9.732  3.2832  1.5359 -0.1258
    8SAPS  C210  986   2.999   3.401   9.737  0.2223  0.2356 -0.9671
    8SAPS  H10R  987   3.049   3.333   9.809 -1.3285  1.0376  0.9490
    8SAPS  H10S  988   3.077   3.418   9.659 -1.7812  0.7445 -3.0011
    8SAPS  C211  989   2.872   3.348   9.678  0.7793  0.6998 -0.1177
    8SAPS  H11R  990   2.801   3.316   9.755  1.0620 -0.4855 -0.3258
    8SAPS  C212  991   2.846   3.309   9.550 -0.5769 -0.0725  0.6258
    8SAPS  H12R  992   2.747   3.267   9.526 -0.4304  0.0628 -0.2732
    8SAPS  C213  993   2.944   3.320   9.437  0.3093  0.2041 -0.1582
    8SAPS  H13R  994   2.987   3.219   9.419 -1.1161 -0.5922  0.7359
    8SAPS  H13S  995   3.035   3.383   9.453  0.8997 -0.4487 -0.8583
    8SAPS  C214  996   2.875   3.379   9.319  0.8597  0.1778 -0.0855
    8SAPS  H14R  997   2.890   3.487   9.304  0.4136  0.2244 -0.2088
    8SAPS  C215  998   2.808   3.319   9.222  0.5727  0.4633 -0.3355
    8SAPS  H15R  999   2.760   3.371   9.138 -0.0999 -0.3564 -0.4741
    8SAPS  C216 1000   2.783   3.176   9.214 -0.1632  0.1811  0.0963
    8SAPS  H16R 1001   2.672   3.174   9.223 -0.3398 -0.8524 -1.8068
    8SAPS  H16S 1002   2.828   3.131   9.305 -0.4880 -2.1306 -0.8059
    8SAPS  C217 1003   2.829   3.096   9.090  0.5589 -0.0094  0.6720
    8SAPS  H17R 1004   2.803   2.990   9.111 -1.7262  0.0800 -1.2694
    8SAPS  H17S 1005   2.936   3.111   9.065  0.3428 -1.3489 -1.3082
    8SAPS  C218 1006   2.740   3.127   8.959  0.3356 -0.1150  0.7377
    8SAPS  H18R 1007   2.770   3.228   8.923 -0.8460 -0.9941 -3.2046
    8SAPS  H18S 1008   2.630   3.128   8.976  0.0682  0.9346 -0.9106
    8SAPS  C219 1009   2.759   3.020   8.850  0.3970  0.3837 -0.2765
    8SAPS  H19R 1010   2.702   2.929   8.876 -0.7336  1.1090 -0.1375
    8SAPS  H19S 1011   2.864   2.984   8.848  1.3186  2.8847 -2.3779
    8SAPS  C220 1012   2.713   3.070   8.720 -0.0284  0.5784 -0.2068
    8SAPS  H20R 1013   2.697   2.980   8.656 -0.8524 -1.2679  2.4484
    8SAPS  H20S 1014   2.795   3.129   8.673  0.2847  0.7351  0.5215
    8SAPS  H20T 1015   2.620   3.131   8.724  0.2541  1.0424 -0.5513
    8SAPS   C33 1016   2.619   3.073  10.190 -0.3120 -0.6241  0.0385
    8SAPS   H3X 1017   2.514   3.099  10.220  0.0951  0.1199  0.8761
    8SAPS   H3Y 1018   2.629   2.970  10.231  1.3565 -0.6581 -0.4146
    8SAPS   C34 1019   2.644   3.089  10.041  0.0924 -0.4754  0.1001
    8SAPS   H4X 1020   2.754   3.091  10.028  0.2085  4.0599  0.0367
    8SAPS   H4Y 1021   2.603   3.186  10.006 -2.1822 -1.2642  0.4336
    8SAPS   C35 1022   2.580   2.966   9.963 -0.1867  0.1294  0.1711
    8SAPS   H5X 1023   2.470   2.982   9.959 -0.2180 -0.0880  0.1580
    8SAPS   H5Y 1024   2.601   2.875  10.023  1.1325  0.7664  0.7163
    8SAPS   C36 1025   2.642   2.937   9.823 -0.1857 -0.0681 -0.0144
    8SAPS   H6X 1026   2.595   2.841   9.791 -1.5128  0.0457  1.4742
    8SAPS   H6Y 1027   2.750   2.918   9.843 -0.0794  1.4328  0.9910
    8SAPS   C37 1028   2.606   3.040   9.714  0.2314  0.1499 -0.7977
    8SAPS   H7X 1029   2.624   3.135   9.769  0.3987 -1.4734  2.1472
    8SAPS   H7Y 1030   2.496   3.034   9.699 -0.1698  0.9335  1.5169
    8SAPS   C38 1031   2.687   3.014   9.584 -0.7054  0.3564  0.5691
    8SAPS   H8X 1032   2.792   3.048   9.600 -0.5071 -0.1857  0.4390
    8SAPS   H8Y 1033   2.643   3.084   9.510 -2.3177  0.4050  1.5255
    8SAPS   C39 1034   2.680   2.863   9.543  0.0283 -0.1160  0.2434
    8SAPS   H9X 1035   2.579   2.817   9.546  0.7376 -1.8160 -0.5549
    8SAPS   H9Y 1036   2.746   2.814   9.618 -0.2983 -0.2641  0.4386
    8SAPS  C310 1037   2.742   2.844   9.401 -0.0198  0.2140 -0.6975
    8SAPS  H10X 1038   2.844   2.888   9.394 -0.0872  0.6576  0.8704
    8SAPS  H10Y 1039   2.674   2.888   9.326 -0.6599 -0.7959 -0.7231
    8SAPS  C311 1040   2.756   2.692   9.374  0.6019 -0.8441  0.3017
    8SAPS  H11X 1041   2.669   2.639   9.419  0.6181 -2.0691 -1.0392
    8SAPS  H11Y 1042   2.845   2.651   9.426  0.1652 -0.2871  1.5215
    8SAPS  C312 1043   2.763   2.658   9.229  0.5037  1.1214  0.0794
    8SAPS  H12X 1044   2.787   2.550   9.220 -2.3322  0.2701  1.7308
    8SAPS  H12Y 1045   2.840   2.723   9.182 -1.3014  2.3386 -1.3437
    8SAPS  C313 1046   2.644   2.691   9.137 -0.4339 -0.3682 -0.2376
    8SAPS  H13X 1047   2.627   2.801   9.132  1.3740 -0.0906 -2.5217
    8SAPS  H13Y 1048   2.555   2.641   9.179  0.5118 -2.5760 -0.7239
    8SAPS  C314 1049   2.659   2.640   8.993  0.5839  0.4778 -0.6014
    8SAPS  H14X 1050   2.670   2.529   8.998  3.3168  0.7159  0.5104
    8SAPS  H14Y 1051   2.754   2.682   8.954  1.1404  2.0908  2.1766
    8SAPS  C315 1052   2.549   2.657   8.889  0.3681 -0.0502 -0.1210
    8SAPS  H15X 1053   2.508   2.759   8.874 -1.0744 -0.4702  0.7753
    8SAPS  H15Y 1054   2.470   2.589   8.929  0.3195 -0.5716 -1.0682
    8SAPS  C316 1055   2.603   2.592   8.757 -0.0943  0.5767 -0.1592
    8SAPS  H16X 1056   2.515   2.546   8.707  0.8535 -1.2300 -0.2663
    8SAPS  H16Y 1057   2.663   2.500   8.774 -0.9539  0.1063  0.3960
    8SAPS  C317 1058   2.679   2.694   8.673  1.2486 -0.1499  0.0535
    8SAPS  H17X 1059   2.773   2.728   8.721  0.0484  1.2598  1.5145
    8SAPS  H17Y 1060   2.611   2.783   8.677  1.3520 -0.1310  2.3471
    8SAPS  C318 1061   2.689   2.646   8.524  0.0658  0.6761 -0.6927
    8SAPS  H18X 1062   2.590   2.604   8.496  0.5326 -0.9058 -0.1162
    8SAPS  H18Y 1063   2.768   2.568   8.529  0.7295  1.3938  0.6544
    8SAPS  H18Z 1064   2.715   2.716   8.443 -0.5265  1.0227 -0.5903
    9SAPS     N 1065   2.959   4.645   6.244  0.0709 -0.4228 -0.1652
    9SAPS   HN1 1066   2.979   4.551   6.203  1.5985 -0.2721  0.1636
    9SAPS   HN2 1067   2.878   4.641   6.310  0.0032 -0.0099 -0.2273
    9SAPS   HN3 1068   2.943   4.706   6.162 -1.3499 -0.7809 -0.1749
    9SAPS   C12 1069   3.081   4.688   6.317  0.1334  0.1573  0.2485
    9SAPS  H12A 1070   3.063   4.680   6.424 -1.3091  3.1532  0.3355
    9SAPS   C13 1071   3.207   4.610   6.275 -0.1664 -0.6020  0.4452
    9SAPS  O13A 1072   3.200   4.512   6.196  0.1629  0.6581 -0.3534
    9SAPS  O13B 1073   3.315   4.636   6.337  0.2509 -0.5934 -0.1550
    9SAPS   C11 1074   3.106   4.841   6.292 -0.4908 -0.3483  0.1635
    9SAPS  H11A 1075   3.144   4.849   6.188  1.7806  1.8099  1.0621
    9SAPS  H11B 1076   3.192   4.875   6.354 -1.3624 -1.0371  1.8362
    9SAPS     P 1077   2.949   5.006   6.439 -0.2606  0.3323  0.3906
    9SAPS   O13 1078   3.020   5.135   6.442 -0.2348  0.0794  0.4106
    9SAPS   O14 1079   2.802   5.008   6.450  0.2541  0.2327  0.2234
    9SAPS   O12 1080   2.991   4.924   6.309 -0.1303  0.1644  0.3463
    9SAPS   O11 1081   3.023   4.923   6.556 -0.4925  0.8923  0.4881
    9SAPS    C1 1082   2.963   4.829   6.642  0.3529  0.2225  0.2511
    9SAPS    HA 1083   2.852   4.838   6.648  0.2060 -2.1242  3.5121
    9SAPS    HB 1084   3.002   4.727   6.626  2.5283  0.8439  1.1602
    9SAPS    C2 1085   3.004   4.857   6.792 -0.3135  0.6849  0.5052
    9SAPS    HS 1086   2.965   4.776   6.859 -1.8599  0.0145 -1.1082
    9SAPS   O21 1087   2.970   4.990   6.834 -0.4545 -0.6661 -0.3467
    9SAPS   C21 1088   2.845   4.998   6.880  0.0650 -0.1474  0.2317
    9SAPS   O22 1089   2.779   4.901   6.921 -0.2014  0.3042 -0.0761
    9SAPS   C22 1090   2.801   5.145   6.898 -0.7702  0.1571 -0.3274
    9SAPS   H2R 1091   2.823   5.198   6.803  0.7292  0.1127 -0.0343
    9SAPS   H2S 1092   2.695   5.144   6.931 -0.8730 -0.5786 -0.6528
    9SAPS    C3 1093   3.156   4.845   6.805 -0.2108  0.3986 -0.2649
    9SAPS    HX 1094   3.201   4.905   6.724  0.6497  0.8016  0.4892
    9SAPS    HY 1095   3.184   4.739   6.786 -1.2361 -0.0891  0.7640
    9SAPS   O31 1096   3.198   4.901   6.932 -0.1068  0.1925  0.2364
    9SAPS   C31 1097   3.180   4.824   7.042 -0.3776  0.5013 -0.7398
    9SAPS   O32 1098   3.110   4.725   7.055 -0.0480  0.0555 -0.0233
    9SAPS   C32 1099   3.273   4.870   7.158  0.0788 -0.1469  0.0211
    9SAPS   H2X 1100   3.263   4.977   7.185 -0.9174 -0.2148 -0.0391
    9SAPS   H2Y 1101   3.374   4.862   7.114 -0.8923 -1.4774 -2.1110
    9SAPS   C23 1102   2.888   5.213   7.010 -0.2400 -0.5031 -0.1768
    9SAPS   H3R 1103   2.878   5.323   6.997  1.9251 -0.1851  0.5203
    9SAPS   H3S 1104   2.995   5.185   7.005 -0.7247 -2.5228 -0.0868
    9SAPS   C24 1105   2.827   5.185   7.153 -0.6585  0.5210 -0.3930
    9SAPS   H4R 1106   2.717   5.199   7.151 -0.5000  2.8265 -4.4363
    9SAPS   H4S 1107   2.860   5.267   7.221 -1.3117 -0.1085  0.7197
    9SAPS   C25 1108   2.871   5.053   7.217  0.4628 -0.8201  0.0368
    9SAPS   H5R 1109   2.834   4.965   7.161  0.6860 -0.6634 -0.3628
    9SAPS   C26 1110   2.930   5.028   7.334  0.3236  0.0421 -0.3121
    9SAPS   H6R 1111   2.943   4.925   7.370  0.1117  0.5606  1.3209
    9SAPS   C27 1112   2.974   5.124   7.438  0.3814 -0.6114 -1.1881
    9SAPS   H7R 1113   2.901   5.126   7.522  0.4576  0.0146 -1.1373
    9SAPS   H7S 1114   2.975   5.231   7.409 -0.5497 -0.3796 -0.4200
    9SAPS   C28 1115   3.112   5.098   7.494  0.2863  0.6365  0.0529
    9SAPS   H8R 1116   3.182   5.109   7.409 -0.0039 -3.8324 -1.0248
    9SAPS   C29 1117   3.153   5.075   7.620 -0.9681 -1.1791 -0.0301
    9SAPS   H9R 1118   3.263   5.067   7.625 -0.8170 -0.1404 -1.0592
    9SAPS  C210 1119   3.066   5.063   7.738  0.5005  0.1367 -0.3563
    9SAPS  H10R 1120   3.101   4.983   7.807 -0.3827  1.1457  1.3292
    9SAPS  H10S 1121   2.972   5.018   7.699  0.2582  0.6519 -0.3774
    9SAPS  C211 1122   3.046   5.194   7.814 -0.0462 -0.6207  0.5459
    9SAPS  H11R 1123   3.012   5.281   7.755  0.5412  0.3352  1.5834
    9SAPS  C212 1124   3.081   5.226   7.937 -0.3915 -0.2594 -0.2818
    9SAPS  H12R 1125   3.061   5.330   7.966  0.9036  0.1800 -0.8690
    9SAPS  C213 1126   3.154   5.142   8.038 -0.3439 -0.5772  0.3047
    9SAPS  H13R 1127   3.128   5.035   8.026  1.2578 -0.9608  0.0324
    9SAPS  H13S 1128   3.112   5.179   8.134 -1.1425  1.6985 -0.8625
    9SAPS  C214 1129   3.301   5.155   8.024  0.0047 -0.1268 -0.8887
    9SAPS  H14R 1130   3.344   5.191   7.930 -1.3042 -0.2789 -1.5583
    9SAPS  C215 1131   3.382   5.111   8.121 -0.1682  0.1906  0.0153
    9SAPS  H15R 1132   3.491   5.114   8.106 -0.0322 -2.0361  0.2255
    9SAPS  C216 1133   3.336   5.044   8.243 -0.0560 -0.0805  0.0922
    9SAPS  H16R 1134   3.360   4.935   8.247  0.0686 -0.1828 -2.1837
    9SAPS  H16S 1135   3.227   5.046   8.267 -0.5678  0.0297 -2.0150
    9SAPS  C217 1136   3.401   5.120   8.359  0.1805  0.0101  0.2272
    9SAPS  H17R 1137   3.371   5.227   8.356 -0.0270  0.0022  1.4327
    9SAPS  H17S 1138   3.512   5.125   8.354  0.1853  0.0259  0.3418
    9SAPS  C218 1139   3.349   5.052   8.485 -0.7327 -0.5841 -0.5453
    9SAPS  H18R 1140   3.240   5.054   8.501 -0.4497 -0.5979  1.6815
    9SAPS  H18S 1141   3.384   5.116   8.569  0.3778 -1.0609 -0.6211
    9SAPS  C219 1142   3.424   4.921   8.510 -0.5952  0.0005  0.1792
    9SAPS  H19R 1143   3.534   4.922   8.491 -0.3554  1.3218  1.5041
    9SAPS  H19S 1144   3.404   4.842   8.434 -1.0375  0.2946 -0.0171
    9SAPS  C220 1145   3.391   4.873   8.651  0.8002 -0.5147  0.1502
    9SAPS  H20R 1146   3.409   4.953   8.726 -0.0666 -2.2898  2.3650
    9SAPS  H20S 1147   3.448   4.780   8.670 -1.3600 -1.8893  0.2779
    9SAPS  H20T 1148   3.283   4.848   8.656  1.2162 -2.1809  1.6936
    9SAPS   C33 1149   3.248   4.792   7.290 -0.1641  0.5124  1.1240
    9SAPS   H3X 1150   3.272   4.685   7.269  0.2487  0.6886  0.6739
    9SAPS   H3Y 1151   3.143   4.803   7.324 -0.5344 -1.4639  0.7313
    9SAPS   C34 1152   3.346   4.832   7.396 -0.2363  0.1845  0.6475
    9SAPS   H4X 1153   3.361   4.942   7.403 -0.9479  0.3121  0.1664
    9SAPS   H4Y 1154   3.445   4.801   7.357 -0.1589  2.2072 -0.9596
    9SAPS   C35 1155   3.303   4.774   7.526  0.7137  0.2617  0.5655
    9SAPS   H5X 1156   3.300   4.664   7.511 -0.5998  0.0555  2.0879
    9SAPS   H5Y 1157   3.211   4.820   7.568  0.9198  1.0148  0.2149
    9SAPS   C36 1158   3.409   4.788   7.636 -0.2792 -0.1749 -0.9829
    9SAPS   H6X 1159   3.428   4.896   7.650 -2.4963 -0.0886  2.6602
    9SAPS   H6Y 1160   3.506   4.737   7.614  0.1952  0.0657  0.4270
    9SAPS   C37 1161   3.358   4.740   7.772  0.7975  0.1787 -0.1374
    9SAPS   H7X 1162   3.376   4.631   7.777 -0.8404 -0.1538 -0.8730
    9SAPS   H7Y 1163   3.247   4.748   7.777  0.6837  0.4781 -2.2552
    9SAPS   C38 1164   3.421   4.814   7.898 -0.3560  0.5952 -0.3614
    9SAPS   H8X 1165   3.353   4.811   7.986  1.0349  2.7712  0.9033
    9SAPS   H8Y 1166   3.433   4.922   7.872 -0.8253  0.1506 -2.6260
    9SAPS   C39 1167   3.556   4.759   7.943 -0.2779 -0.2361 -0.1294
    9SAPS   H9X 1168   3.631   4.790   7.866  1.0738  1.8299  1.8736
    9SAPS   H9Y 1169   3.534   4.651   7.956 -0.2823 -0.3335 -0.8820
    9SAPS  C310 1170   3.599   4.809   8.075  0.5907  0.2879  0.0924
    9SAPS  H10X 1171   3.535   4.771   8.157  1.4573 -1.4077  0.0207
    9SAPS  H10Y 1172   3.604   4.919   8.087  0.6496  0.1195  1.8878
    9SAPS  C311 1173   3.734   4.745   8.123 -0.2523  0.4229  0.1406
    9SAPS  H11X 1174   3.814   4.747   8.046 -1.3903  2.8715 -1.1057
    9SAPS  H11Y 1175   3.714   4.637   8.138 -0.9932  0.6145  0.5732
    9SAPS  C312 1176   3.796   4.798   8.261  0.1423 -0.1892 -0.2340
    9SAPS  H12X 1177   3.892   4.742   8.265  0.0319 -0.4368 -0.8889
    9SAPS  H12Y 1178   3.725   4.773   8.343 -0.1694 -1.2187 -0.7919
    9SAPS  C313 1179   3.819   4.952   8.267 -0.4273  0.4131 -0.5967
    9SAPS  H13X 1180   3.726   5.008   8.242 -1.3389 -1.0163 -0.4728
    9SAPS  H13Y 1181   3.902   4.986   8.201  1.0359 -1.6802  0.0648
    9SAPS  C314 1182   3.861   4.998   8.412  0.2784  1.0143 -0.3279
    9SAPS  H14X 1183   3.952   4.942   8.443  0.6909  2.4750  1.2842
    9SAPS  H14Y 1184   3.774   4.966   8.473  1.2945 -0.0653  0.5904
    9SAPS  C315 1185   3.879   5.152   8.431  0.0849 -0.1584 -0.8490
    9SAPS  H15X 1186   3.783   5.195   8.465  0.3775  1.1597 -1.6132
    9SAPS  H15Y 1187   3.910   5.191   8.332  2.4143 -1.0047 -0.5163
    9SAPS  C316 1188   3.983   5.188   8.539  0.4829 -0.7047  0.4889
    9SAPS  H16X 1189   4.080   5.141   8.512 -0.0169 -0.3950 -2.0986
    9SAPS  H16Y 1190   3.963   5.151   8.642  1.5723  1.1487  1.4382
    9SAPS  C317 1191   4.006   5.343   8.552  1.2564 -0.8364 -0.1054
    9SAPS  H17X 1192   4.057   5.379   8.460 -0.2718  0.7733 -0.3952
    9SAPS  H17Y 1193   4.072   5.360   8.639 -1.8822 -0.5829  2.4237
    9SAPS  C318 1194   3.879   5.430   8.563  1.1013 -0.2459  0.5929
    9SAPS  H18X 1195   3.825   5.433   8.466  4.1499 -1.6236 -1.3067
    9SAPS  H18Y 1196   3.903   5.532   8.600 -0.0860  0.0393  0.6230
    9SAPS  H18Z 1197   3.816   5.397   8.649  0.3450  0.0438  0.1614
   10SAPS     N 1198   4.181   6.712   6.280 -0.1574  0.2776  0.5434
   10SAPS   HN1 1199   4.269   6.657   6.285  0.6317  1.3032 -1.0950
   10SAPS   HN2 1200   4.199   6.811   6.251 -1.3987  0.4333  0.2590
   10SAPS   HN3 1201   4.141   6.720   6.376 -1.5188  2.1133 -0.1143
   10SAPS   C12 1202   4.088   6.654   6.181 -0.3922 -0.0972  0.1755
   10SAPS  H12A 1203   3.991   6.687   6.213  0.1498  0.9161  0.8359
   10SAPS   C13 1204   4.114   6.714   6.039  0.8864 -0.9043  0.6882
   10SAPS  O13A 1205   4.208   6.796   6.016  0.2403  0.2606  0.1708
   10SAPS  O13B 1206   4.027   6.683   5.950 -0.0889  0.0646 -0.4034
   10SAPS   C11 1207   4.109   6.502   6.185  0.8330  0.1783  0.2340
   10SAPS  H11A 1208   4.218   6.483   6.185  0.8461  0.1190 -1.3080
   10SAPS  H11B 1209   4.062   6.451   6.099  0.9330 -1.0726  0.9076
   10SAPS     P 1210   3.936   6.351   6.314  0.4578 -0.0990  0.1123
   10SAPS   O13 1211   3.815   6.424   6.267  0.1391 -0.1569 -0.4371
   10SAPS   O14 1212   3.974   6.221   6.252 -0.0637 -0.2071  0.2871
   10SAPS   O12 1213   4.058   6.454   6.302 -0.4772  0.0039 -0.3197
   10SAPS   O11 1214   3.912   6.328   6.474 -0.0498 -0.3829 -0.0167
   10SAPS    C1 1215   3.802   6.396   6.537 -0.1563 -0.3359  0.5511
   10SAPS    HA 1216   3.703   6.385   6.488 -0.1981 -1.4658  0.8647
   10SAPS    HB 1217   3.788   6.352   6.638 -0.6347 -1.1526  0.1374
   10SAPS    C2 1218   3.827   6.548   6.561  0.3969 -0.1778  0.0200
   10SAPS    HS 1219   3.848   6.591   6.461 -0.2490 -1.6306 -0.7703
   10SAPS   O21 1220   3.938   6.553   6.645  0.0589 -0.0530 -0.2608
   10SAPS   C21 1221   4.035   6.640   6.605  0.4858 -0.0428 -0.0324
   10SAPS   O22 1222   4.026   6.709   6.503 -0.4538 -0.2626 -0.0967
   10SAPS   C22 1223   4.152   6.620   6.695 -0.4355  0.4725 -0.2110
   10SAPS   H2R 1224   4.148   6.696   6.776 -1.9957  0.4706 -0.2657
   10SAPS   H2S 1225   4.145   6.519   6.739  1.1241  0.5361  0.2635
   10SAPS    C3 1226   3.708   6.638   6.627 -0.3244 -0.0415  0.8952
   10SAPS    HX 1227   3.665   6.580   6.712 -2.1773  1.0297  0.7398
   10SAPS    HY 1228   3.628   6.654   6.552 -1.2610  0.7832  2.0460
   10SAPS   O31 1229   3.764   6.765   6.666  0.5385 -0.3048  0.8422
   10SAPS   C31 1230   3.674   6.866   6.677  0.1587 -0.1581  0.0107
   10SAPS   O32 1231   3.556   6.868   6.644 -0.1236 -0.3199  0.5311
   10SAPS   C32 1232   3.741   6.986   6.748  0.4843  0.3064  0.2533
   10SAPS   H2X 1233   3.725   7.078   6.687  0.1533 -0.1900 -0.4291
   10SAPS   H2Y 1234   3.846   6.956   6.764 -1.0241 -5.3435  2.1228
   10SAPS   C23 1235   4.291   6.628   6.620  0.0754  0.5925  0.1342
   10SAPS   H3R 1236   4.311   6.732   6.585 -0.4448  0.5614 -0.2718
   10SAPS   H3S 1237   4.293   6.582   6.519 -0.5654 -0.7411  0.6999
   10SAPS   C24 1238   4.401   6.565   6.706 -1.1121 -0.2959  0.0984
   10SAPS   H4R 1239   4.491   6.597   6.650 -0.8360 -0.6996  0.3100
   10SAPS   H4S 1240   4.395   6.455   6.721  0.7510 -0.6692 -1.5716
   10SAPS   C25 1241   4.429   6.631   6.838 -0.3219 -0.3504 -0.1190
   10SAPS   H5R 1242   4.419   6.741   6.829  0.4977 -0.2435  0.2698
   10SAPS   C26 1243   4.437   6.582   6.958 -0.1156  0.2464 -0.3842
   10SAPS   H6R 1244   4.454   6.656   7.038 -0.0846  1.4603 -1.4736
   10SAPS   C27 1245   4.438   6.434   7.001 -0.2195  0.1812  0.3979
   10SAPS   H7R 1246   4.406   6.372   6.914  1.3861 -0.9765  0.5932
   10SAPS   H7S 1247   4.361   6.416   7.079 -1.6606 -1.3003 -1.2641
   10SAPS   C28 1248   4.576   6.385   7.042 -0.3193 -0.3605  0.0642
   10SAPS   H8R 1249   4.641   6.378   6.954  1.5735  1.1218  1.2337
   10SAPS   C29 1250   4.617   6.347   7.166  0.2032 -0.3490 -0.3119
   10SAPS   H9R 1251   4.726   6.332   7.170  0.2502  0.0966  2.3581
   10SAPS  C210 1252   4.541   6.343   7.298 -0.5458  0.1085 -0.9042
   10SAPS  H10R 1253   4.435   6.375   7.286 -0.6972  0.5438  1.2269
   10SAPS  H10S 1254   4.594   6.406   7.373 -0.0809 -0.1103 -1.0443
   10SAPS  C211 1255   4.522   6.205   7.362  0.2236 -0.3575  0.3941
   10SAPS  H11R 1256   4.451   6.142   7.306  1.1739 -0.5285 -0.6406
   10SAPS  C212 1257   4.577   6.154   7.477 -0.3088  0.4643 -0.4978
   10SAPS  H12R 1258   4.530   6.061   7.513  0.6689 -0.1634 -0.7816
   10SAPS  C213 1259   4.678   6.215   7.570 -0.0670  0.4809 -0.4660
   10SAPS  H13R 1260   4.733   6.292   7.512  0.3377 -1.1643 -2.3695
   10SAPS  H13S 1261   4.754   6.137   7.597 -2.0347 -1.0672  0.9139
   10SAPS  C214 1262   4.612   6.281   7.692 -0.3261  0.0769  0.2200
   10SAPS  H14R 1263   4.575   6.381   7.664 -0.4570 -0.6931 -2.6891
   10SAPS  C215 1264   4.589   6.225   7.814 -0.0552 -0.0660  0.0088
   10SAPS  H15R 1265   4.519   6.279   7.879 -2.8130 -0.9213 -2.0349
   10SAPS  C216 1266   4.628   6.086   7.871  0.1165 -0.1966  0.9844
   10SAPS  H16R 1267   4.657   6.025   7.783  2.1860  4.5738 -2.0152
   10SAPS  H16S 1268   4.544   6.037   7.924  0.9959 -2.0769  0.7420
   10SAPS  C217 1269   4.755   6.082   7.966 -0.3394 -0.1373 -0.1675
   10SAPS  H17R 1270   4.829   6.152   7.922  0.6973 -0.0025  1.6839
   10SAPS  H17S 1271   4.803   5.982   7.973  0.2322  0.0433 -1.2833
   10SAPS  C218 1272   4.732   6.119   8.114  0.5905 -0.5438  0.3754
   10SAPS  H18R 1273   4.663   6.048   8.165  0.5971 -0.0045  1.1506
   10SAPS  H18S 1274   4.675   6.215   8.114  1.6984  0.1314 -0.4411
   10SAPS  C219 1275   4.866   6.125   8.190 -0.2324  0.6043 -0.1469
   10SAPS  H19R 1276   4.932   6.167   8.111 -0.3528  3.2281  1.0302
   10SAPS  H19S 1277   4.895   6.023   8.222 -2.9125  0.0712  0.8872
   10SAPS  C220 1278   4.884   6.204   8.318  0.6456  0.1675  0.5227
   10SAPS  H20R 1279   4.827   6.168   8.406  0.6980  0.3005  0.6113
   10SAPS  H20S 1280   4.848   6.308   8.301 -1.4486 -0.6606 -0.5121
   10SAPS  H20T 1281   4.985   6.193   8.363 -0.0305  1.0836  2.3827
   10SAPS   C33 1282   3.685   7.001   6.893  0.3644  0.5207 -0.3340
   10SAPS   H3X 1283   3.588   7.054   6.877  0.3580  0.0675 -2.0390
   10SAPS   H3Y 1284   3.742   7.068   6.959  0.4942 -0.4879  0.6170
   10SAPS   C34 1285   3.665   6.877   6.977 -0.2069  0.0266 -0.0562
   10SAPS   H4X 1286   3.763   6.833   7.004 -0.1452  0.6161  0.7139
   10SAPS   H4Y 1287   3.612   6.799   6.918 -1.1085 -0.1408  0.9434
   10SAPS   C35 1288   3.575   6.901   7.104 -0.0885 -0.3970  0.3525
   10SAPS   H5X 1289   3.554   6.798   7.140  0.4245 -0.6290 -0.0003
   10SAPS   H5Y 1290   3.478   6.952   7.086 -0.8337 -1.9867 -0.2756
   10SAPS   C36 1291   3.643   6.974   7.220  0.1429 -0.0521 -1.1342
   10SAPS   H6X 1292   3.682   7.076   7.201 -1.1184  1.0964  1.7890
   10SAPS   H6Y 1293   3.726   6.910   7.257 -2.2409 -1.1907  2.8368
   10SAPS   C37 1294   3.554   6.973   7.344  0.5497  0.2411 -0.0259
   10SAPS   H7X 1295   3.481   6.890   7.358 -0.1532  1.2027  2.8596
   10SAPS   H7Y 1296   3.489   7.062   7.341 -1.0607 -0.8684  0.3862
   10SAPS   C38 1297   3.627   6.991   7.483 -0.1777 -0.1828  0.2744
   10SAPS   H8X 1298   3.542   6.984   7.554  1.5405  0.7004  2.5079
   10SAPS   H8Y 1299   3.664   7.096   7.488 -2.0636  0.5240  0.3915
   10SAPS   C39 1300   3.723   6.881   7.518  0.1480 -0.2110 -0.4468
   10SAPS   H9X 1301   3.811   6.900   7.453 -1.3099 -1.0963 -2.8250
   10SAPS   H9Y 1302   3.689   6.781   7.482  0.5893 -0.1348 -1.1027
   10SAPS  C310 1303   3.753   6.860   7.663  0.7127  0.5666  0.1098
   10SAPS  H10X 1304   3.658   6.845   7.717 -0.2963  0.9822 -1.4662
   10SAPS  H10Y 1305   3.800   6.950   7.709  0.2974  1.0029 -0.3033
   10SAPS  C311 1306   3.847   6.736   7.679 -0.3242  0.1721 -1.0763
   10SAPS  H11X 1307   3.810   6.639   7.640 -1.9584  0.1203  0.4757
   10SAPS  H11Y 1308   3.849   6.723   7.789  1.6982  3.6180 -0.5608
   10SAPS  C312 1309   3.987   6.758   7.619 -0.5401 -0.2076  0.4699
   10SAPS  H12X 1310   4.060   6.705   7.683 -1.8405 -1.1160  1.2561
   10SAPS  H12Y 1311   4.005   6.867   7.622  0.1316 -0.3324  1.2043
   10SAPS  C313 1312   3.991   6.700   7.476  0.1004  0.2193  0.7507
   10SAPS  H13X 1313   3.899   6.723   7.418 -0.0529  0.8282  1.2251
   10SAPS  H13Y 1314   4.010   6.591   7.481 -0.3857  0.1878  2.9064
   10SAPS  C314 1315   4.099   6.752   7.388  0.2369 -0.0261  0.7574
   10SAPS  H14X 1316   4.194   6.752   7.446  0.3071 -2.9580  0.7637
   10SAPS  H14Y 1317   4.074   6.859   7.373  0.9663  0.0876  0.2987
   10SAPS  C315 1318   4.123   6.670   7.262  0.5974  0.3168  0.2637
   10SAPS  H15X 1319   4.135   6.561   7.282  1.0267 -0.0623 -1.8306
   10SAPS  H15Y 1320   4.219   6.711   7.223  1.6379 -1.1849  1.1504
   10SAPS  C316 1321   4.014   6.691   7.151  0.1830  0.0781 -0.0089
   10SAPS  H16X 1322   4.022   6.781   7.086 -1.8475 -0.0675 -0.5251
   10SAPS  H16Y 1323   3.919   6.720   7.200  0.0334 -0.3167 -0.0668
   10SAPS  C317 1324   3.995   6.567   7.060  0.4058  0.3386  0.2108
   10SAPS  H17X 1325   3.951   6.486   7.122 -0.2311  0.8848  0.4786
   10SAPS  H17Y 1326   4.089   6.541   7.006  0.7104  0.9158  0.4575
   10SAPS  C318 1327   3.886   6.588   6.951  0.9785 -0.7846 -0.3043
   10SAPS  H18X 1328   3.783   6.611   6.986  1.8160  1.1936  1.0401
   10SAPS  H18Y 1329   3.877   6.488   6.904  1.7756 -1.0383  0.0554
   10SAPS  H18Z 1330   3.899   6.665   6.872 -4.2013 -0.2538 -0.9964
   11SAPS     N 1331   0.906   3.035   5.803 -0.0589  0.2583  0.4056
   11SAPS   HN1 1332   0.961   3.090   5.734  0.8304 -0.4670  0.5105
   11SAPS   HN2 1333   0.840   3.093   5.859 -1.1574 -0.2104 -0.3654
   11SAPS   HN3 1334   0.974   2.999   5.873  0.1412  1.1545  0.6891
   11SAPS   C12 1335   0.828   2.933   5.725 -0.4661 -0.2377 -0.1987
   11SAPS  H12A 1336   0.745   2.984   5.679  0.3456  0.0802 -1.3350
   11SAPS   C13 1337   0.924   2.870   5.617  0.1775  0.6851 -0.2803
   11SAPS  O13A 1338   1.036   2.910   5.593  0.0119 -0.6459 -0.1562
   11SAPS  O13B 1339   0.868   2.770   5.558 -0.4491 -0.0130 -0.0535
   11SAPS   C11 1340   0.772   2.813   5.819  0.4220 -0.9909  0.7837
   11SAPS  H11A 1341   0.848   2.757   5.877  2.4780  2.3298  1.5525
   11SAPS  H11B 1342   0.721   2.737   5.756  2.0735 -1.4903 -0.0062
   11SAPS     P 1343   0.533   2.817   5.946 -0.3981  0.1330  0.2712
   11SAPS   O13 1344   0.440   2.879   5.851 -0.2544  0.4365  0.1961
   11SAPS   O14 1345   0.536   2.671   5.964 -0.0275 -0.4679  0.2126
   11SAPS   O12 1346   0.685   2.870   5.914 -0.4824 -0.0614  0.4731
   11SAPS   O11 1347   0.510   2.871   6.092  0.1595  0.4712  0.0549
   11SAPS    C1 1348   0.619   2.930   6.165 -0.2219 -0.6325  0.1627
   11SAPS    HA 1349   0.701   2.860   6.189  1.6471  0.1794 -3.1450
   11SAPS    HB 1350   0.664   3.019   6.115 -1.5081 -0.3980 -0.6277
   11SAPS    C2 1351   0.574   2.994   6.299  0.0878 -0.5291  0.3581
   11SAPS    HS 1352   0.653   3.059   6.342 -1.7751  1.8079  0.4656
   11SAPS   O21 1353   0.517   2.893   6.381 -0.3926  0.4296  0.5975
   11SAPS   C21 1354   0.610   2.846   6.472  0.6525  0.1443  0.6477
   11SAPS   O22 1355   0.726   2.880   6.481 -0.0468  0.4153  0.2748
   11SAPS   C22 1356   0.543   2.732   6.550  0.3785  0.5962  0.4138
   11SAPS   H2R 1357   0.435   2.754   6.546  0.3815  0.4546 -1.1363
   11SAPS   H2S 1358   0.549   2.641   6.486  0.9893  1.3724 -0.6807
   11SAPS    C3 1359   0.459   3.102   6.267  0.2735 -0.1552 -0.2926
   11SAPS    HX 1360   0.394   3.059   6.188  1.8124 -1.2115 -1.0132
   11SAPS    HY 1361   0.513   3.188   6.223  2.0838 -0.3298  1.4795
   11SAPS   O31 1362   0.394   3.140   6.389  0.1179 -0.3374  0.3954
   11SAPS   C31 1363   0.263   3.126   6.393 -0.1450  0.2117  0.2515
   11SAPS   O32 1364   0.193   3.079   6.304  0.3887  0.3392  0.1650
   11SAPS   C32 1365   0.209   3.153   6.538  0.8311  0.2321  0.5575
   11SAPS   H2X 1366   0.102   3.122   6.536  0.9039 -0.0376  0.7851
   11SAPS   H2Y 1367   0.215   3.263   6.554  1.7508  0.1264  1.0333
   11SAPS   C23 1368   0.594   2.689   6.686 -0.8157  0.2444  0.5603
   11SAPS   H3R 1369   0.700   2.725   6.689  0.0559 -1.7404 -2.0254
   11SAPS   H3S 1370   0.595   2.579   6.701  2.7617  0.3642  2.1989
   11SAPS   C24 1371   0.524   2.759   6.801 -0.5558 -0.2288  0.9779
   11SAPS   H4R 1372   0.505   2.866   6.777  0.1518 -0.1003  0.9505
   11SAPS   H4S 1373   0.600   2.765   6.882  1.2401 -1.2738 -0.5426
   11SAPS   C25 1374   0.396   2.691   6.849  0.5852 -0.2144  0.5336
   11SAPS   H5R 1375   0.344   2.636   6.769 -1.3681  0.5210  1.2437
   11SAPS   C26 1376   0.341   2.710   6.972 -0.9218  0.1864  0.7586
   11SAPS   H6R 1377   0.239   2.671   6.987 -0.2845 -1.6990  0.4135
   11SAPS   C27 1378   0.407   2.793   7.082  0.4110 -0.1149  0.0263
   11SAPS   H7R 1379   0.331   2.819   7.158 -0.2136 -1.5277 -0.0911
   11SAPS   H7S 1380   0.449   2.889   7.047  0.8506  0.3520  1.7380
   11SAPS   C28 1381   0.517   2.721   7.142  0.2806  0.2961 -0.2271
   11SAPS   H8R 1382   0.583   2.674   7.069  0.4705  0.0293  0.1132
   11SAPS   C29 1383   0.548   2.712   7.280  0.5200 -0.1709 -0.8372
   11SAPS   H9R 1384   0.648   2.675   7.310  0.3254  0.5257  0.7853
   11SAPS  C210 1385   0.471   2.773   7.395 -0.2122 -0.4239 -0.3076
   11SAPS  H10R 1386   0.466   2.881   7.371 -0.5198 -0.8920 -2.5506
   11SAPS  H10S 1387   0.533   2.761   7.486 -0.8681 -3.5013 -0.1508
   11SAPS  C211 1388   0.330   2.725   7.422 -0.1417  0.4271 -0.6220
   11SAPS  H11R 1389   0.283   2.668   7.341 -0.7646 -0.4859  0.3511
   11SAPS  C212 1390   0.278   2.705   7.546  0.3465  0.3935 -0.0459
   11SAPS  H12R 1391   0.174   2.668   7.556  0.1835  1.1937  1.6851
   11SAPS  C213 1392   0.334   2.747   7.676  0.0643  0.9544 -0.5677
   11SAPS  H13R 1393   0.275   2.835   7.709 -1.6817  0.3090 -1.8390
   11SAPS  H13S 1394   0.437   2.784   7.662 -0.2419  1.3152 -1.9796
   11SAPS  C214 1395   0.335   2.644   7.795 -0.6127 -0.2525  0.5310
   11SAPS  H14R 1396   0.294   2.545   7.769  0.0501 -0.5393  0.5660
   11SAPS  C215 1397   0.370   2.664   7.918  0.4067 -0.2474 -1.0340
   11SAPS  H15R 1398   0.374   2.582   7.991  2.2347  1.3145  0.7528
   11SAPS  C216 1399   0.410   2.793   7.979  0.0882  0.3979 -0.9836
   11SAPS  H16R 1400   0.409   2.875   7.903  1.5632  0.0257 -1.4361
   11SAPS  H16S 1401   0.509   2.786   8.029  0.1196 -2.0685 -1.2932
   11SAPS  C217 1402   0.298   2.830   8.084 -0.8204 -0.0848 -0.8305
   11SAPS  H17R 1403   0.326   2.777   8.177 -0.0344 -1.3173 -1.7345
   11SAPS  H17S 1404   0.194   2.799   8.057 -0.8188  0.8791 -2.0506
   11SAPS  C218 1405   0.300   2.982   8.120  0.0802  0.1783  0.0748
   11SAPS  H18R 1406   0.286   3.031   8.022 -0.3912 -1.0983 -0.5276
   11SAPS  H18S 1407   0.399   3.008   8.164 -0.3344  0.5873  0.7756
   11SAPS  C219 1408   0.183   3.030   8.201  0.1284  0.5047 -0.5882
   11SAPS  H19R 1409   0.089   2.987   8.159 -1.2630  2.2897  0.5366
   11SAPS  H19S 1410   0.172   3.140   8.197 -0.4574  0.4672 -0.2328
   11SAPS  C220 1411   0.197   2.994   8.346  0.2348  0.0785 -0.0905
   11SAPS  H20R 1412   0.106   3.033   8.396  0.5178 -1.2012  1.4989
   11SAPS  H20S 1413   0.288   3.047   8.381  1.2497  0.3214 -2.8872
   11SAPS  H20T 1414   0.199   2.884   8.364 -2.4388  0.1742  1.3301
   11SAPS   C33 1415   0.297   3.084   6.639 -0.2067 -0.1482 -0.1402
   11SAPS   H3X 1416   0.402   3.116   6.625 -0.6266  1.5534  0.4417
   11SAPS   H3Y 1417   0.321   2.979   6.610 -0.7828 -0.1175 -0.7428
   11SAPS   C34 1418   0.255   3.085   6.784  0.1277  0.7036 -0.4672
   11SAPS   H4X 1419   0.303   3.000   6.837 -0.9908 -0.1748 -0.8230
   11SAPS   H4Y 1420   0.145   3.073   6.792  0.5143 -3.1429  1.6106
   11SAPS   C35 1421   0.313   3.219   6.845 -0.3365 -0.2567 -0.5021
   11SAPS   H5X 1422   0.271   3.308   6.793  1.8604  1.0216 -0.1894
   11SAPS   H5Y 1423   0.422   3.219   6.824 -0.4298  2.1752 -1.3079
   11SAPS   C36 1424   0.310   3.220   6.996  0.5380  0.5065  0.1888
   11SAPS   H6X 1425   0.355   3.318   7.020 -1.3023  1.8319 -1.4290
   11SAPS   H6Y 1426   0.373   3.139   7.038 -0.6757  0.0115  1.1255
   11SAPS   C37 1427   0.168   3.210   7.058 -0.0257 -0.8224 -0.5366
   11SAPS   H7X 1428   0.097   3.178   6.978 -1.2394 -1.3084  0.6901
   11SAPS   H7Y 1429   0.136   3.308   7.099  0.6651  0.2105 -2.3670
   11SAPS   C38 1430   0.156   3.106   7.169  0.1659 -0.2502  0.2268
   11SAPS   H8X 1431   0.207   3.013   7.137  0.1496  0.3196 -1.5874
   11SAPS   H8Y 1432   0.052   3.069   7.180 -0.2753  1.2018  1.1868
   11SAPS   C39 1433   0.219   3.159   7.293 -0.9042 -0.5731 -0.1492
   11SAPS   H9X 1434   0.189   3.265   7.302 -1.1493 -0.5939 -0.6370
   11SAPS   H9Y 1435   0.329   3.163   7.278 -1.1334  0.8203 -1.7846
   11SAPS  C310 1436   0.194   3.086   7.426 -0.0428  0.6337 -0.1043
   11SAPS  H10X 1437   0.257   2.995   7.421 -0.4039  0.4256 -3.6253
   11SAPS  H10Y 1438   0.087   3.055   7.425 -0.7803  2.9136  0.8045
   11SAPS  C311 1439   0.228   3.169   7.550 -0.4136 -0.0627 -0.4055
   11SAPS  H11X 1440   0.328   3.215   7.532 -0.9169  0.7017 -1.3832
   11SAPS  H11Y 1441   0.241   3.099   7.635  0.5458 -2.6143 -2.5324
   11SAPS  C312 1442   0.125   3.279   7.577 -0.9849 -0.1978 -0.1398
   11SAPS  H12X 1443   0.020   3.244   7.574 -1.4169  0.3961  3.4324
   11SAPS  H12Y 1444   0.143   3.356   7.499 -0.4552  0.1446  0.3071
   11SAPS  C313 1445   0.133   3.334   7.722 -0.2686  0.4180  0.0412
   11SAPS  H13X 1446   0.119   3.248   7.792  1.1996 -1.8444 -2.2365
   11SAPS  H13Y 1447   0.045   3.399   7.741 -0.3369  0.4316 -0.3207
   11SAPS  C314 1448   0.270   3.383   7.769 -0.6196 -0.9907  0.4758
   11SAPS  H14X 1449   0.302   3.476   7.718  0.0786 -0.2876  2.0962
   11SAPS  H14Y 1450   0.339   3.297   7.760  0.7887  0.2275 -0.8897
   11SAPS  C315 1451   0.284   3.419   7.915  0.3035  0.7131 -0.3207
   11SAPS  H15X 1452   0.242   3.337   7.978  1.1682 -0.6884 -1.5128
   11SAPS  H15Y 1453   0.220   3.509   7.927  0.1127  0.4454  0.8156
   11SAPS  C316 1454   0.421   3.447   7.965  0.3232  0.5064 -0.0606
   11SAPS  H16X 1455   0.466   3.526   7.901  0.8118 -0.5847 -1.0862
   11SAPS  H16Y 1456   0.479   3.352   7.959 -1.0211 -0.3925  0.7553
   11SAPS  C317 1457   0.418   3.506   8.109  0.3379 -0.1067  0.3556
   11SAPS  H17X 1458   0.350   3.594   8.105 -1.6583 -1.5758  0.4260
   11SAPS  H17Y 1459   0.521   3.534   8.140  0.4845 -1.0481  0.7346
   11SAPS  C318 1460   0.383   3.397   8.213  0.5996 -0.5627 -0.4522
   11SAPS  H18X 1461   0.464   3.399   8.288  0.9250 -1.0242 -0.7865
   11SAPS  H18Y 1462   0.388   3.295   8.170 -2.1667 -1.4049  0.9910
   11SAPS  H18Z 1463   0.286   3.414   8.266 -0.7069 -1.4378 -2.4328
   12SAPS     N 1464   6.273   5.118   5.755  0.4300  0.3807  1.0306
   12SAPS   HN1 1465   6.189   5.062   5.728  0.7989 -0.2487  1.1820
   12SAPS   HN2 1466   6.260   5.152   5.853 -1.1595 -1.3373  1.4633
   12SAPS   HN3 1467   6.297   5.198   5.693 -2.2714 -0.2903 -1.1085
   12SAPS   C12 1468   6.394   5.029   5.753 -0.0013  0.3077  0.2942
   12SAPS  H12A 1469   6.409   4.997   5.651  3.1475  2.4489 -0.0719
   12SAPS   C13 1470   6.527   5.107   5.796 -0.7729 -0.2271 -0.6440
   12SAPS  O13A 1471   6.530   5.229   5.817 -0.3039 -0.0508 -0.3052
   12SAPS  O13B 1472   6.630   5.037   5.828  1.0553  0.0219  0.0508
   12SAPS   C11 1473   6.374   4.909   5.850  0.2248  0.1954 -0.0681
   12SAPS  H11A 1474   6.355   4.950   5.952 -0.2462  1.4053 -0.6234
   12SAPS  H11B 1475   6.468   4.851   5.837 -1.4481 -2.5589 -0.6433
   12SAPS     P 1476   6.265   4.675   5.851  0.2118 -0.0459  0.1068
   12SAPS   O13 1477   6.138   4.614   5.812  0.3401  0.3284  0.1149
   12SAPS   O14 1478   6.392   4.604   5.821  0.2857 -0.3015  0.0006
   12SAPS   O12 1479   6.273   4.824   5.800  0.3797  0.8384 -0.5687
   12SAPS   O11 1480   6.265   4.685   6.005  0.1041 -0.5284 -1.2067
   12SAPS    C1 1481   6.179   4.772   6.080 -0.2183  0.2218 -0.3723
   12SAPS    HA 1482   6.181   4.876   6.042 -0.8688 -0.3579 -2.1158
   12SAPS    HB 1483   6.077   4.729   6.076 -0.2298  0.2626 -0.5406
   12SAPS    C2 1484   6.203   4.773   6.238  0.5336  0.2889  0.0521
   12SAPS    HS 1485   6.311   4.796   6.253  0.7976 -0.6101 -0.4166
   12SAPS   O21 1486   6.164   4.652   6.304 -0.0041 -0.2131 -0.3114
   12SAPS   C21 1487   6.250   4.555   6.297 -0.5664  0.1831 -0.5921
   12SAPS   O22 1488   6.367   4.563   6.269 -0.1785 -0.0555 -0.1553
   12SAPS   C22 1489   6.195   4.428   6.358  0.1375 -0.4579  0.3007
   12SAPS   H2R 1490   6.098   4.404   6.309 -0.3208 -0.6948  1.2793
   12SAPS   H2S 1491   6.260   4.341   6.337  0.7062 -0.2523  1.1584
   12SAPS    C3 1492   6.140   4.891   6.305  0.6505 -0.4500 -0.3192
   12SAPS    HX 1493   6.039   4.865   6.268  0.8909  0.6783 -1.8721
   12SAPS    HY 1494   6.155   4.991   6.259 -0.2498 -0.8858 -1.6134
   12SAPS   O31 1495   6.135   4.900   6.450 -0.1204  0.0854  0.3417
   12SAPS   C31 1496   6.230   4.968   6.507 -0.4978 -1.0716  0.5286
   12SAPS   O32 1497   6.325   5.024   6.451  0.3050  0.8113 -0.5981
   12SAPS   C32 1498   6.221   4.973   6.657  0.0576  0.2519  0.0965
   12SAPS   H2X 1499   6.183   4.873   6.688 -3.4474  1.1618 -0.8040
   12SAPS   H2Y 1500   6.139   5.039   6.690  2.7847  3.6031  0.6881
   12SAPS   C23 1501   6.189   4.436   6.515 -0.6924 -0.4967  0.2199
   12SAPS   H3R 1502   6.155   4.535   6.550 -0.1609  0.2314 -1.2436
   12SAPS   H3S 1503   6.292   4.421   6.555 -0.1613 -0.5014 -1.0821
   12SAPS   C24 1504   6.083   4.333   6.571 -0.0975 -0.2844  0.1178
   12SAPS   H4R 1505   5.992   4.364   6.516  1.0853  0.5987 -1.4225
   12SAPS   H4S 1506   6.056   4.332   6.679  1.1152  0.0203  0.4354
   12SAPS   C25 1507   6.126   4.189   6.535  0.1886 -0.3382 -0.0893
   12SAPS   H5R 1508   6.057   4.127   6.477 -3.7434  0.2651  3.4201
   12SAPS   C26 1509   6.223   4.130   6.598 -0.9352 -0.1191  0.4975
   12SAPS   H6R 1510   6.252   4.032   6.556  0.0101  1.3788 -2.6070
   12SAPS   C27 1511   6.314   4.185   6.698  0.8354 -0.1163  0.2494
   12SAPS   H7R 1512   6.339   4.110   6.776 -1.1978 -1.8041 -0.6213
   12SAPS   H7S 1513   6.264   4.266   6.755 -0.4721 -0.4885 -0.3418
   12SAPS   C28 1514   6.448   4.229   6.649 -0.9430  0.5827  0.7456
   12SAPS   H8R 1515   6.470   4.199   6.545  0.2215  1.6187  0.6666
   12SAPS   C29 1516   6.543   4.300   6.708  0.4681 -0.8632 -0.3444
   12SAPS   H9R 1517   6.634   4.330   6.655  0.7357  0.9599  1.0195
   12SAPS  C210 1518   6.528   4.359   6.845  0.2480 -0.7809 -0.1300
   12SAPS  H10R 1519   6.630   4.362   6.889  0.2512 -0.6911 -0.1435
   12SAPS  H10S 1520   6.475   4.287   6.911  1.5365 -0.6773  1.0507
   12SAPS  C211 1521   6.460   4.494   6.841 -0.2118 -0.0143 -0.5608
   12SAPS  H11R 1522   6.419   4.537   6.749  2.3229  0.6033 -1.4889
   12SAPS  C212 1523   6.434   4.567   6.953 -0.0752 -0.9145  0.1661
   12SAPS  H12R 1524   6.389   4.666   6.941  2.4089  0.5286  1.8472
   12SAPS  C213 1525   6.482   4.529   7.091  0.0331 -0.4011 -0.2339
   12SAPS  H13R 1526   6.490   4.621   7.152 -2.0513 -0.0819 -0.3494
   12SAPS  H13S 1527   6.576   4.469   7.088 -0.2944 -1.0271  0.9999
   12SAPS  C214 1528   6.372   4.441   7.150 -0.3487 -0.0922 -0.1296
   12SAPS  H14R 1529   6.308   4.384   7.081  0.2447  1.4517 -2.0341
   12SAPS  C215 1530   6.355   4.426   7.285  0.4076  0.2905 -0.3192
   12SAPS  H15R 1531   6.272   4.362   7.320  1.7465 -0.3037  1.9872
   12SAPS  C216 1532   6.443   4.496   7.380  0.1816 -0.1144  0.3955
   12SAPS  H16R 1533   6.404   4.600   7.382  0.4936 -0.0001  0.6655
   12SAPS  H16S 1534   6.549   4.498   7.348 -0.2817  2.0529 -1.2003
   12SAPS  C217 1535   6.429   4.426   7.517 -0.2659 -0.3991  0.3644
   12SAPS  H17R 1536   6.475   4.325   7.507  1.1035  0.2870 -0.6683
   12SAPS  H17S 1537   6.324   4.422   7.551 -0.5504  1.4094 -0.2493
   12SAPS  C218 1538   6.508   4.502   7.618 -0.3831  0.1945 -0.5202
   12SAPS  H18R 1539   6.463   4.602   7.637  0.6956  0.4059  1.1281
   12SAPS  H18S 1540   6.614   4.518   7.587 -0.5033  1.6267 -0.2637
   12SAPS  C219 1541   6.494   4.430   7.760 -0.8671 -0.0613 -0.0680
   12SAPS  H19R 1542   6.548   4.334   7.749  1.4635  1.0416  1.0500
   12SAPS  H19S 1543   6.385   4.430   7.779 -0.8525 -0.6556  0.0286
   12SAPS  C220 1544   6.557   4.495   7.887  0.2242 -0.7191 -0.2889
   12SAPS  H20R 1545   6.665   4.518   7.874  0.0496  1.3994  1.3997
   12SAPS  H20S 1546   6.533   4.439   7.979 -0.3381  0.7360  0.4766
   12SAPS  H20T 1547   6.506   4.593   7.901  1.6238 -0.3184  2.6383
   12SAPS   C33 1548   6.354   4.998   6.715 -0.3452  0.2102 -0.5695
   12SAPS   H3X 1549   6.402   5.095   6.690  0.5714  0.2519  1.1858
   12SAPS   H3Y 1550   6.428   4.918   6.694  1.0075  1.5759 -1.3095
   12SAPS   C34 1551   6.354   4.984   6.868 -0.3756  0.1513 -0.2591
   12SAPS   H4X 1552   6.287   4.903   6.902  1.5703 -1.6774 -0.6258
   12SAPS   H4Y 1553   6.321   5.084   6.905 -0.3021  0.4325 -0.9372
   12SAPS   C35 1554   6.492   4.945   6.940  0.2246  0.6181 -0.5461
   12SAPS   H5X 1555   6.572   5.019   6.919  1.1654 -0.9105 -2.7476
   12SAPS   H5Y 1556   6.530   4.848   6.903  0.3720  0.3300  0.3427
   12SAPS   C36 1557   6.460   4.940   7.090  0.4367  0.4457  0.7377
   12SAPS   H6X 1558   6.399   4.848   7.102 -0.1041  0.6549 -0.2863
   12SAPS   H6Y 1559   6.398   5.027   7.122  0.7816  0.5958  1.0047
   12SAPS   C37 1560   6.579   4.921   7.181  0.0167  0.2510  0.5885
   12SAPS   H7X 1561   6.641   5.011   7.200  0.1440  0.0266  1.2704
   12SAPS   H7Y 1562   6.645   4.854   7.122 -0.4507  1.2272 -1.1013
   12SAPS   C38 1563   6.544   4.875   7.323  0.3299 -0.0595  0.5357
   12SAPS   H8X 1564   6.622   4.825   7.385  1.4991 -0.0220 -0.8719
   12SAPS   H8Y 1565   6.465   4.798   7.310 -0.7172  0.8397  1.2896
   12SAPS   C39 1566   6.474   4.979   7.395 -0.0969  0.0226 -0.0625
   12SAPS   H9X 1567   6.373   4.996   7.352 -0.3065 -1.3475 -0.1401
   12SAPS   H9Y 1568   6.518   5.081   7.383 -3.3374  1.5769  0.1138
   12SAPS  C310 1569   6.450   4.959   7.549  0.0695  0.8310  0.1973
   12SAPS  H10X 1570   6.377   4.876   7.545 -0.6775  1.4753  0.1263
   12SAPS  H10Y 1571   6.398   5.052   7.580  1.6359  1.9950 -0.5541
   12SAPS  C311 1572   6.569   4.930   7.638 -0.7749  0.0435 -0.1631
   12SAPS  H11X 1573   6.629   5.022   7.651 -2.1180  1.1629 -1.4907
   12SAPS  H11Y 1574   6.639   4.858   7.590  0.9535  0.0156  2.1944
   12SAPS  C312 1575   6.545   4.870   7.783  0.5018  0.6183  0.0382
   12SAPS  H12X 1576   6.641   4.817   7.803 -0.1867 -1.4417 -1.8012
   12SAPS  H12Y 1577   6.461   4.797   7.784  0.4766  0.6564  0.7769
   12SAPS  C313 1578   6.515   4.983   7.886  0.4777  0.6261  0.2221
   12SAPS  H13X 1579   6.411   5.018   7.866 -0.2000 -1.2056  0.3451
   12SAPS  H13Y 1580   6.586   5.065   7.863  0.3288  1.2423  1.8426
   12SAPS  C314 1581   6.544   4.954   8.037 -0.4174 -0.7367 -0.4855
   12SAPS  H14X 1582   6.631   4.886   8.054 -0.3584 -0.1223  2.0169
   12SAPS  H14Y 1583   6.455   4.908   8.084  0.5260 -1.6391  0.4860
   12SAPS  C315 1584   6.576   5.074   8.120 -0.3757  0.1577 -0.8040
   12SAPS  H15X 1585   6.646   5.144   8.069  1.8237  0.5717  2.4779
   12SAPS  H15Y 1586   6.619   5.036   8.215 -2.6613  1.0478  0.6502
   12SAPS  C316 1587   6.450   5.158   8.159 -0.1992  0.6305 -0.6227
   12SAPS  H16X 1588   6.375   5.158   8.077  0.2419  1.8614 -1.0454
   12SAPS  H16Y 1589   6.477   5.262   8.188 -4.9635  1.8897  0.1137
   12SAPS  C317 1590   6.359   5.106   8.270  0.3607 -0.1316 -0.2721
   12SAPS  H17X 1591   6.422   5.083   8.359 -1.1034 -1.1165  0.5429
   12SAPS  H17Y 1592   6.314   5.008   8.243  1.7640 -0.6118 -0.9916
   12SAPS  C318 1593   6.249   5.206   8.321 -0.0550 -0.1966 -0.3173
   12SAPS  H18X 1594   6.207   5.162   8.414 -1.2030  1.6928  0.1194
   12SAPS  H18Y 1595   6.176   5.208   8.237  1.5651  0.2881 -1.7640
   12SAPS  H18Z 1596   6.285   5.311   8.332 -0.0441 -0.2262 -0.0642
   13SAPS     N 1597   5.534   2.522   5.884  0.0059 -0.3134 -0.2529
   13SAPS   HN1 1598   5.512   2.428   5.845  1.9009 -1.5496  1.4650
   13SAPS   HN2 1599   5.632   2.554   5.869  0.8686 -1.6562  2.0464
   13SAPS   HN3 1600   5.512   2.519   5.985  2.4549  2.2861  0.4982
   13SAPS   C12 1601   5.458   2.645   5.832  0.0685 -0.1044  0.5447
   13SAPS  H12A 1602   5.492   2.734   5.882 -0.1241 -0.0219  0.5310
   13SAPS   C13 1603   5.476   2.673   5.685 -0.0467  1.1445 -0.0929
   13SAPS  O13A 1604   5.553   2.606   5.609  0.4082 -0.0115  0.2741
   13SAPS  O13B 1605   5.427   2.781   5.645 -0.3814  0.1682 -0.1028
   13SAPS   C11 1606   5.304   2.612   5.849  0.8713 -0.7151 -0.6995
   13SAPS  H11A 1607   5.282   2.523   5.786  0.6220 -0.6735 -0.6713
   13SAPS  H11B 1608   5.250   2.701   5.812  0.2258 -0.4946  0.7311
   13SAPS     P 1609   5.132   2.569   6.036 -0.6619 -0.0478 -0.0462
   13SAPS   O13 1610   5.063   2.693   6.001  0.1149  0.0607  0.2232
   13SAPS   O14 1611   5.096   2.439   5.971 -0.3649 -0.1122  0.2806
   13SAPS   O12 1612   5.280   2.596   5.988 -0.1565  0.6484  0.4430
   13SAPS   O11 1613   5.129   2.554   6.197 -0.1395 -0.0796  0.3777
   13SAPS    C1 1614   5.255   2.539   6.260  0.5004 -0.2981 -0.7530
   13SAPS    HA 1615   5.289   2.433   6.267 -0.4168 -0.5263  0.5876
   13SAPS    HB 1616   5.342   2.580   6.205 -0.7694  0.4986 -2.2257
   13SAPS    C2 1617   5.273   2.605   6.406 -0.7357 -0.0676  0.1428
   13SAPS    HS 1618   5.375   2.586   6.446 -1.8249  0.5546  3.5305
   13SAPS   O21 1619   5.177   2.562   6.505 -0.1688  0.3754  0.4642
   13SAPS   C21 1620   5.190   2.439   6.552  0.5577 -0.0463  0.3854
   13SAPS   O22 1621   5.273   2.357   6.515  0.2765 -0.2159 -0.2296
   13SAPS   C22 1622   5.086   2.403   6.654  0.5254 -0.7892 -0.3955
   13SAPS   H2R 1623   5.086   2.486   6.728  0.8368 -0.3078 -0.9259
   13SAPS   H2S 1624   4.984   2.398   6.610 -0.3102 -3.6297  1.5406
   13SAPS    C3 1625   5.257   2.756   6.386 -0.4318  0.3419 -0.1497
   13SAPS    HX 1626   5.150   2.776   6.364 -0.0346 -0.0835 -2.8100
   13SAPS    HY 1627   5.322   2.770   6.297  2.2323  0.2646  1.6646
   13SAPS   O31 1628   5.304   2.841   6.497 -0.6118  0.0322 -0.4269
   13SAPS   C31 1629   5.436   2.841   6.520 -0.5473 -0.5218 -1.4058
   13SAPS   O32 1630   5.523   2.776   6.465  0.6638  0.5493  0.0589
   13SAPS   C32 1631   5.453   2.951   6.633  0.2054  0.1466  0.7245
   13SAPS   H2X 1632   5.395   2.924   6.723  1.9445 -0.9733  1.5615
   13SAPS   H2Y 1633   5.409   3.041   6.585 -1.3684 -0.8365  0.2315
   13SAPS   C23 1634   5.098   2.256   6.709 -0.2605 -0.4729 -0.1798
   13SAPS   H3R 1635   5.204   2.250   6.743 -0.5752  1.4072  1.2825
   13SAPS   H3S 1636   5.081   2.179   6.631 -0.1905 -2.5437  1.7348
   13SAPS   C24 1637   4.995   2.235   6.824  0.0241  0.1604  0.6660
   13SAPS   H4R 1638   4.902   2.288   6.794  0.3364 -0.0708 -0.7584
   13SAPS   H4S 1639   5.043   2.281   6.913  1.5143 -0.2535  0.1028
   13SAPS   C25 1640   4.970   2.085   6.844 -0.2152 -0.0969 -0.4870
   13SAPS   H5R 1641   4.928   2.036   6.755 -1.6187  0.3851 -0.1162
   13SAPS   C26 1642   5.007   2.012   6.952  0.3676  0.3192  0.1393
   13SAPS   H6R 1643   4.968   1.910   6.966  1.6080  0.0822  2.3489
   13SAPS   C27 1644   5.080   2.060   7.079  0.3237 -0.6108  0.3897
   13SAPS   H7R 1645   5.006   2.120   7.136  0.4682 -1.5156  1.5819
   13SAPS   H7S 1646   5.161   2.134   7.062  0.9479 -1.4899 -0.6249
   13SAPS   C28 1647   5.143   1.950   7.159  0.3479 -0.7595 -0.4120
   13SAPS   H8R 1648   5.160   1.856   7.105  2.6451 -1.0617  0.6968
   13SAPS   C29 1649   5.182   1.961   7.292  0.1412 -0.0408  0.8594
   13SAPS   H9R 1650   5.237   1.878   7.340 -0.5851 -0.7440  0.5150
   13SAPS  C210 1651   5.168   2.081   7.387  0.3369  0.4798  0.0881
   13SAPS  H10R 1652   5.144   2.178   7.337  0.3979  0.6427  0.3737
   13SAPS  H10S 1653   5.264   2.088   7.442 -0.7824 -0.2098  2.2553
   13SAPS  C211 1654   5.054   2.058   7.484 -0.0662  0.2594 -0.0274
   13SAPS  H11R 1655   4.959   2.055   7.428 -0.3436  1.5883  0.3454
   13SAPS  C212 1656   5.048   2.051   7.622 -0.1369 -0.2401  0.1318
   13SAPS  H12R 1657   4.948   2.048   7.668 -0.5885  0.9833 -0.7069
   13SAPS  C213 1658   5.163   2.044   7.710 -0.3107 -0.6381 -0.1584
   13SAPS  H13R 1659   5.156   2.133   7.776  1.3266 -0.7456  0.2110
   13SAPS  H13S 1660   5.252   2.057   7.644  1.0116  2.6980  2.0179
   13SAPS  C214 1661   5.178   1.907   7.767  0.1287  0.2470  0.0484
   13SAPS  H14R 1662   5.196   1.822   7.700 -0.0216 -0.8494  1.3480
   13SAPS  C215 1663   5.147   1.874   7.897  0.3541 -1.1032 -0.1001
   13SAPS  H15R 1664   5.159   1.768   7.923 -0.7928 -1.4773 -1.0096
   13SAPS  C216 1665   5.104   1.977   8.004 -0.0463  0.2402 -0.2179
   13SAPS  H16R 1666   5.034   1.935   8.079 -0.5105 -0.8250 -1.2189
   13SAPS  H16S 1667   5.047   2.060   7.957  1.6220  0.7885 -1.3763
   13SAPS  C217 1668   5.228   2.025   8.078  0.7801  0.2849 -0.2908
   13SAPS  H17R 1669   5.197   2.108   8.145 -2.6102 -1.9230  1.1247
   13SAPS  H17S 1670   5.304   2.058   8.004  1.1269  3.4731  1.2896
   13SAPS  C218 1671   5.289   1.909   8.165  0.5193  0.5439  0.7654
   13SAPS  H18R 1672   5.312   1.826   8.096 -2.6762 -0.5011  0.7661
   13SAPS  H18S 1673   5.211   1.867   8.233  0.3811  1.7648  1.3867
   13SAPS  C219 1674   5.410   1.945   8.256  0.7262  0.1773 -0.1802
   13SAPS  H19R 1675   5.379   2.005   8.344  0.8502  1.1383 -0.7780
   13SAPS  H19S 1676   5.484   2.000   8.194  1.1414 -0.4459 -0.2518
   13SAPS  C220 1677   5.472   1.818   8.327 -0.7489 -0.7397  0.7685
   13SAPS  H20R 1678   5.403   1.766   8.397 -0.7931 -1.1408  0.4333
   13SAPS  H20S 1679   5.557   1.860   8.385 -1.7932  2.3096  0.2559
   13SAPS  H20T 1680   5.496   1.743   8.248 -0.7697 -0.7659  0.7873
   13SAPS   C33 1681   5.594   2.959   6.686  0.0261  0.0814 -0.2900
   13SAPS   H3X 1682   5.640   3.028   6.612  0.5927  1.1340  0.9909
   13SAPS   H3Y 1683   5.658   2.870   6.667  1.8791  1.3129 -0.0890
   13SAPS   C34 1684   5.620   3.019   6.819  0.4531  0.3080  0.0918
   13SAPS   H4X 1685   5.559   3.112   6.834  0.4587  1.0787 -3.6676
   13SAPS   H4Y 1686   5.729   3.041   6.821  0.1842  1.7380  0.7682
   13SAPS   C35 1687   5.608   2.914   6.931 -0.0467  0.1648  0.2298
   13SAPS   H5X 1688   5.708   2.868   6.938 -0.1082  0.0865  0.6302
   13SAPS   H5Y 1689   5.539   2.829   6.910  2.0347 -1.4132 -0.5320
   13SAPS   C36 1690   5.568   2.983   7.058 -0.2470  0.3653  0.5500
   13SAPS   H6X 1691   5.462   3.011   7.041  0.0201  1.8227  1.1458
   13SAPS   H6Y 1692   5.630   3.074   7.063  0.9973 -0.2700 -1.8167
   13SAPS   C37 1693   5.609   2.884   7.172 -0.2124  0.1473 -0.1396
   13SAPS   H7X 1694   5.719   2.868   7.170 -0.0121  1.3931 -2.1528
   13SAPS   H7Y 1695   5.570   2.782   7.155  1.1011  0.0810 -3.6348
   13SAPS   C38 1696   5.572   2.924   7.317 -0.9894 -0.2060  0.2466
   13SAPS   H8X 1697   5.602   2.837   7.378 -3.3013 -1.0208  0.3141
   13SAPS   H8Y 1698   5.462   2.936   7.326 -0.6797  2.3740  1.4201
   13SAPS   C39 1699   5.654   3.053   7.353  0.3483  0.0698 -0.4227
   13SAPS   H9X 1700   5.728   3.077   7.274  0.7089 -1.8262 -0.7233
   13SAPS   H9Y 1701   5.716   3.033   7.443  1.0875  1.1580 -0.6652
   13SAPS  C310 1702   5.561   3.168   7.397 -0.4278 -0.0087  0.3260
   13SAPS  H10X 1703   5.498   3.132   7.481  0.1463  1.5025  1.4527
   13SAPS  H10Y 1704   5.495   3.194   7.312  0.9566  2.1219 -0.1816
   13SAPS  C311 1705   5.639   3.295   7.446  0.1029 -0.3493  0.6829
   13SAPS  H11X 1706   5.686   3.337   7.355  4.0397 -0.7013  2.3837
   13SAPS  H11Y 1707   5.726   3.273   7.512  0.1795  1.6435  1.3017
   13SAPS  C312 1708   5.549   3.409   7.502  0.2754 -0.7537  0.9133
   13SAPS  H12X 1709   5.453   3.407   7.448  1.0288 -0.6791 -0.4596
   13SAPS  H12Y 1710   5.592   3.509   7.483 -1.2884 -0.4188 -1.1828
   13SAPS  C313 1711   5.515   3.407   7.654 -0.5705 -0.0150 -0.6602
   13SAPS  H13X 1712   5.486   3.304   7.683  0.7690  0.0308  1.0156
   13SAPS  H13Y 1713   5.425   3.473   7.665 -0.8128 -0.3814 -0.4297
   13SAPS  C314 1714   5.634   3.456   7.744  0.1184  0.7483  1.0543
   13SAPS  H14X 1715   5.649   3.562   7.712  2.2528  0.4806  1.0551
   13SAPS  H14Y 1716   5.729   3.403   7.724 -0.8575 -0.3962 -0.7816
   13SAPS  C315 1717   5.603   3.452   7.896 -0.0456  0.6238  0.6570
   13SAPS  H15X 1718   5.695   3.486   7.947 -1.6142  0.3264  3.9306
   13SAPS  H15Y 1719   5.573   3.353   7.937 -2.2333  1.1159  0.4112
   13SAPS  C316 1720   5.480   3.536   7.928  0.0847 -0.3197  0.1516
   13SAPS  H16X 1721   5.387   3.480   7.903 -0.7332  0.5275  1.2459
   13SAPS  H16Y 1722   5.490   3.627   7.864  3.1374 -0.1894  0.6839
   13SAPS  C317 1723   5.477   3.589   8.066 -0.0285 -0.3791 -1.1000
   13SAPS  H17X 1724   5.570   3.636   8.105 -2.0042 -0.0479  4.0138
   13SAPS  H17Y 1725   5.470   3.504   8.138  1.2237 -0.4154 -1.0018
   13SAPS  C318 1726   5.355   3.685   8.093 -0.5583  0.6859 -0.3714
   13SAPS  H18X 1727   5.273   3.632   8.040  2.1171  0.5763 -4.9285
   13SAPS  H18Y 1728   5.356   3.786   8.046  0.8021  0.6050 -0.5497
   13SAPS  H18Z 1729   5.333   3.709   8.200  0.0629  0.9075 -0.2875
   14SAPS     N 1730   0.367   2.488   5.894 -0.0438  0.5965 -0.4630
   14SAPS   HN1 1731   0.318   2.425   5.961  0.1684 -0.6512 -1.4432
   14SAPS   HN2 1732   0.422   2.427   5.829  1.8430 -1.3025  2.6275
   14SAPS   HN3 1733   0.436   2.549   5.942  0.4345  2.9497 -3.8269
   14SAPS   C12 1734   0.274   2.568   5.815 -1.0867  0.8959 -0.0385
   14SAPS  H12A 1735   0.261   2.664   5.863 -1.1701  1.8303 -1.8606
   14SAPS   C13 1736   0.317   2.597   5.671 -0.0361  0.0954 -0.0187
   14SAPS  O13A 1737   0.429   2.552   5.626 -0.1275 -0.2598 -0.2541
   14SAPS  O13B 1738   0.230   2.645   5.596  0.4158  0.4560  0.2473
   14SAPS   C11 1739   0.134   2.501   5.820  0.5220 -0.2348  0.4913
   14SAPS  H11A 1740   0.147   2.412   5.755 -0.8069  1.4315 -2.2489
   14SAPS  H11B 1741   0.062   2.566   5.766  0.1314 -1.6637 -0.7764
   14SAPS     P 1742  -0.026   2.365   5.984 -0.3483 -0.6122 -0.1975
   14SAPS   O13 1743  -0.152   2.438   5.952  0.0988  0.0314 -0.3148
   14SAPS   O14 1744  -0.013   2.235   5.922  0.4149 -0.1675  0.3835
   14SAPS   O12 1745   0.093   2.458   5.949  0.2625 -0.4896 -0.2345
   14SAPS   O11 1746  -0.015   2.350   6.143 -0.2693 -0.2409  0.5729
   14SAPS    C1 1747   0.034   2.448   6.233  0.3747 -0.5859 -0.4938
   14SAPS    HA 1748   0.120   2.409   6.292  1.5760  0.6023 -1.4011
   14SAPS    HB 1749   0.078   2.533   6.178  1.3601  0.1285  1.3079
   14SAPS    C2 1750  -0.078   2.500   6.334 -0.3625 -0.0347 -0.6548
   14SAPS    HS 1751  -0.019   2.554   6.412  0.2277 -0.7361 -0.6075
   14SAPS   O21 1752  -0.148   2.395   6.403  0.1627  0.4210  0.5411
   14SAPS   C21 1753  -0.074   2.329   6.489  0.8297  0.6983 -0.1040
   14SAPS   O22 1754   0.035   2.364   6.528  0.6444 -0.3502 -0.2641
   14SAPS   C22 1755  -0.148   2.199   6.539 -0.5454  0.5665 -0.6995
   14SAPS   H2R 1756  -0.219   2.181   6.456  0.7876 -0.3057 -1.6842
   14SAPS   H2S 1757  -0.074   2.118   6.552  1.7766  2.5778 -0.5866
   14SAPS    C3 1758  -0.161   2.607   6.258  0.0269  0.0388 -0.4692
   14SAPS    HX 1759  -0.226   2.564   6.179 -0.9012 -1.3367  0.9823
   14SAPS    HY 1760  -0.081   2.668   6.211 -1.0665  1.5205 -0.4938
   14SAPS   O31 1761  -0.238   2.684   6.354 -0.6401 -0.8575 -0.0435
   14SAPS   C31 1762  -0.361   2.643   6.368  0.3861  0.5169  0.5982
   14SAPS   O32 1763  -0.407   2.551   6.303  0.0666 -0.3398 -0.3390
   14SAPS   C32 1764  -0.422   2.720   6.482  0.6275 -0.1480  0.6865
   14SAPS   H2X 1765  -0.441   2.822   6.442  0.2519 -1.2078 -2.0470
   14SAPS   H2Y 1766  -0.344   2.729   6.561  0.8925  0.0628  0.4046
   14SAPS   C23 1767  -0.227   2.219   6.675 -0.1043  0.0411 -0.4496
   14SAPS   H3R 1768  -0.313   2.151   6.691 -1.0634  0.7031 -2.4047
   14SAPS   H3S 1769  -0.279   2.317   6.674  0.3880  0.3114  0.0469
   14SAPS   C24 1770  -0.138   2.219   6.806 -0.5732  0.2715  0.5762
   14SAPS   H4R 1771  -0.186   2.287   6.879  0.9706  1.4711  0.5337
   14SAPS   H4S 1772  -0.043   2.269   6.778 -1.4184  1.7364  0.2082
   14SAPS   C25 1773  -0.104   2.078   6.844 -0.2041 -0.4925 -0.5144
   14SAPS   H5R 1774  -0.047   2.022   6.769  1.5558  1.5008 -0.7544
   14SAPS   C26 1775  -0.147   2.013   6.952  0.2354 -0.2858  0.3167
   14SAPS   H6R 1776  -0.119   1.907   6.959  1.0956 -0.1783 -1.0909
   14SAPS   C27 1777  -0.245   2.055   7.053 -0.1771 -0.6428  0.0545
   14SAPS   H7R 1778  -0.331   1.985   7.063  1.2399 -2.3936  0.6056
   14SAPS   H7S 1779  -0.286   2.156   7.034 -0.1671 -0.4991  0.7586
   14SAPS   C28 1780  -0.174   2.051   7.185 -0.5197 -0.3436  0.0487
   14SAPS   H8R 1781  -0.069   2.085   7.191 -0.2219 -0.9305 -1.5257
   14SAPS   C29 1782  -0.222   1.999   7.292  0.2891  0.6656 -0.5007
   14SAPS   H9R 1783  -0.148   1.984   7.372  0.2871 -2.0644 -0.8975
   14SAPS  C210 1784  -0.359   1.930   7.305  0.0079  1.1972 -0.7351
   14SAPS  H10R 1785  -0.352   1.861   7.393  1.7792  0.1477 -1.6480
   14SAPS  H10S 1786  -0.373   1.872   7.212 -0.2052  0.5712 -0.3215
   14SAPS  C211 1787  -0.470   2.032   7.313  0.4031 -0.2293  0.1812
   14SAPS  H11R 1788  -0.490   2.083   7.218  2.2447 -0.2277 -0.2455
   14SAPS  C212 1789  -0.540   2.075   7.414  0.1282  0.3655 -0.1865
   14SAPS  H12R 1790  -0.610   2.156   7.387 -0.2853 -0.4163 -1.5605
   14SAPS  C213 1791  -0.533   2.030   7.563 -0.6047  0.0056 -0.0217
   14SAPS  H13R 1792  -0.476   1.935   7.575  1.8458  1.5651  1.7915
   14SAPS  H13S 1793  -0.631   1.998   7.604 -0.5342  2.1119  2.0358
   14SAPS  C214 1794  -0.464   2.136   7.642 -0.2883  0.1742 -0.0676
   14SAPS  H14R 1795  -0.376   2.179   7.591  0.3417  1.3330  1.8632
   14SAPS  C215 1796  -0.493   2.186   7.767 -0.4083  0.4796 -0.3052
   14SAPS  H15R 1797  -0.427   2.261   7.813  1.4539  0.2910 -2.4883
   14SAPS  C216 1798  -0.608   2.134   7.852  0.2533  0.1036 -0.3475
   14SAPS  H16R 1799  -0.704   2.153   7.799  1.2606 -0.3390 -2.4287
   14SAPS  H16S 1800  -0.614   2.184   7.951 -3.6677 -0.7501 -0.0006
   14SAPS  C217 1801  -0.610   1.986   7.889 -0.2789  0.4096  0.5646
   14SAPS  H17R 1802  -0.577   1.916   7.809 -0.5098  0.4425  0.4391
   14SAPS  H17S 1803  -0.714   1.964   7.921 -1.5027  2.2962 -1.8093
   14SAPS  C218 1804  -0.515   1.962   8.005  0.3688  0.3737 -0.5629
   14SAPS  H18R 1805  -0.535   2.027   8.093  1.2093  1.1157 -0.9069
   14SAPS  H18S 1806  -0.415   1.995   7.969  0.7555  0.9340  0.9194
   14SAPS  C219 1807  -0.516   1.813   8.045  0.7518 -0.2178 -0.1522
   14SAPS  H19R 1808  -0.517   1.745   7.958 -0.8415 -2.3298  1.4111
   14SAPS  H19S 1809  -0.610   1.804   8.103  0.3971 -0.6638 -0.7870
   14SAPS  C220 1810  -0.411   1.779   8.145  0.7081 -0.4595  0.3723
   14SAPS  H20R 1811  -0.310   1.762   8.103  0.4552 -1.1528  0.0332
   14SAPS  H20S 1812  -0.444   1.679   8.182 -0.0557  0.0117  0.9822
   14SAPS  H20T 1813  -0.412   1.856   8.225  0.2952 -0.6170  0.5229
   14SAPS   C33 1814  -0.558   2.658   6.528  0.0820 -0.3569 -0.0127
   14SAPS   H3X 1815  -0.635   2.656   6.449  0.5685 -1.6816 -0.4763
   14SAPS   H3Y 1816  -0.601   2.732   6.599  0.0175  0.2601 -0.6944
   14SAPS   C34 1817  -0.542   2.525   6.599 -0.4128 -0.4181 -0.0878
   14SAPS   H4X 1818  -0.486   2.455   6.533 -0.2746 -0.0925 -0.3205
   14SAPS   H4Y 1819  -0.643   2.478   6.594 -0.3394 -0.4780 -2.6737
   14SAPS   C35 1820  -0.501   2.535   6.749  0.2419  0.4224 -0.2080
   14SAPS   H5X 1821  -0.549   2.615   6.810 -0.1208  0.5907 -0.7017
   14SAPS   H5Y 1822  -0.390   2.548   6.747  0.7418 -2.7871  0.8165
   14SAPS   C36 1823  -0.531   2.399   6.823  0.1480  0.1762  0.2520
   14SAPS   H6X 1824  -0.438   2.339   6.831  0.4923  0.4728 -1.2262
   14SAPS   H6Y 1825  -0.616   2.350   6.771  1.1573 -0.5987 -0.7218
   14SAPS   C37 1826  -0.578   2.429   6.963  0.2833  0.1134 -0.5349
   14SAPS   H7X 1827  -0.664   2.499   6.957  0.1449 -0.1147 -1.3469
   14SAPS   H7Y 1828  -0.503   2.485   7.024 -0.1321  0.0233  0.0636
   14SAPS   C38 1829  -0.620   2.301   7.030  0.2731  0.8573 -0.3380
   14SAPS   H8X 1830  -0.532   2.233   7.027  0.7255  1.3204  1.1635
   14SAPS   H8Y 1831  -0.697   2.263   6.960  0.0721 -1.3290  0.9724
   14SAPS   C39 1832  -0.680   2.316   7.170  0.5590 -0.0802  0.2078
   14SAPS   H9X 1833  -0.605   2.370   7.230  1.2123 -2.3748  1.5933
   14SAPS   H9Y 1834  -0.702   2.216   7.214 -2.8730 -1.0342 -3.1000
   14SAPS  C310 1835  -0.804   2.401   7.184  0.8289  0.6432  0.2248
   14SAPS  H10X 1836  -0.898   2.353   7.148  0.4056  1.5835  0.0298
   14SAPS  H10Y 1837  -0.809   2.499   7.131  0.0034 -0.6165 -2.2202
   14SAPS  C311 1838  -0.819   2.427   7.333  0.4751 -0.1410 -0.0400
   14SAPS  H11X 1839  -0.735   2.497   7.352 -0.8123  1.4795 -0.1753
   14SAPS  H11Y 1840  -0.794   2.343   7.403 -1.3523  0.6403  1.6347
   14SAPS  C312 1841  -0.953   2.490   7.370 -0.1881 -0.4607 -0.3680
   14SAPS  H12X 1842  -1.033   2.413   7.368 -1.7380  1.0749 -0.6362
   14SAPS  H12Y 1843  -0.991   2.566   7.298 -2.2997 -0.0487  1.0679
   14SAPS  C313 1844  -0.954   2.539   7.521  0.3352  0.6297 -0.3296
   14SAPS  H13X 1845  -0.872   2.613   7.539  1.3265  0.2551 -2.9385
   14SAPS  H13Y 1846  -0.932   2.453   7.588  0.5845  0.6082 -0.4359
   14SAPS  C314 1847  -1.093   2.596   7.548 -0.4376 -0.2442 -0.2026
   14SAPS  H14X 1848  -1.166   2.523   7.507  0.3677 -1.0416 -0.2403
   14SAPS  H14Y 1849  -1.104   2.684   7.482  0.3767  0.2090  0.2495
   14SAPS  C315 1850  -1.119   2.642   7.693 -0.2492  0.2305  0.7504
   14SAPS  H15X 1851  -1.052   2.731   7.701 -3.0548  2.3850  2.1181
   14SAPS  H15Y 1852  -1.102   2.564   7.769 -2.1490 -0.9370  0.0263
   14SAPS  C316 1853  -1.257   2.699   7.720  0.0699  0.2595  0.1208
   14SAPS  H16X 1854  -1.338   2.635   7.678  0.1950 -0.4283  0.9078
   14SAPS  H16Y 1855  -1.261   2.801   7.675  1.0656 -0.5540 -1.9216
   14SAPS  C317 1856  -1.287   2.721   7.869 -0.2907 -0.1105 -0.6991
   14SAPS  H17X 1857  -1.299   2.618   7.909  0.1625  0.3604  0.7358
   14SAPS  H17Y 1858  -1.378   2.780   7.890 -0.3116 -0.9748  2.0848
   14SAPS  C318 1859  -1.168   2.802   7.943  0.1983 -0.7792  0.6257
   14SAPS  H18X 1860  -1.082   2.732   7.945  0.1887 -0.8491 -0.6672
   14SAPS  H18Y 1861  -1.197   2.842   8.042  1.0817  2.8656 -0.4447
   14SAPS  H18Z 1862  -1.136   2.891   7.884  0.6105 -0.0930  1.8417
   15SAPS     N 1863   6.091   2.436   5.572  0.0264  0.2735  0.2162
   15SAPS   HN1 1864   6.157   2.405   5.498  2.5536  1.2065  1.9266
   15SAPS   HN2 1865   6.147   2.472   5.652  2.9365 -2.2285 -0.5118
   15SAPS   HN3 1866   6.047   2.350   5.609  2.7657 -0.2410  2.6022
   15SAPS   C12 1867   6.006   2.544   5.513 -0.4268 -0.1257 -0.3952
   15SAPS  H12A 1868   6.071   2.623   5.479 -0.2640  0.1914  0.6215
   15SAPS   C13 1869   5.914   2.498   5.397  0.4898 -0.2612  0.3313
   15SAPS  O13A 1870   5.893   2.373   5.370 -0.6885  0.8034  0.6451
   15SAPS  O13B 1871   5.835   2.583   5.346 -0.4117 -0.2667  0.3288
   15SAPS   C11 1872   5.909   2.602   5.625  0.6736 -0.8509  0.4660
   15SAPS  H11A 1873   5.823   2.533   5.632 -0.0868 -0.3675 -2.4597
   15SAPS  H11B 1874   5.868   2.699   5.590 -2.2659 -2.2194 -0.1811
   15SAPS     P 1875   5.910   2.675   5.869 -0.2216  0.3427  0.0994
   15SAPS   O13 1876   5.868   2.813   5.842 -0.6469  0.1933 -0.3779
   15SAPS   O14 1877   5.803   2.576   5.898  0.3107 -0.3754  0.2455
   15SAPS   O12 1878   5.986   2.624   5.746  0.8820  0.0030  0.1402
   15SAPS   O11 1879   6.011   2.665   5.986 -0.4423 -0.5488  0.0495
   15SAPS    C1 1880   6.086   2.556   6.035  0.1860 -0.2950 -1.1090
   15SAPS    HA 1881   6.087   2.477   5.958  3.5001  1.4687 -3.1160
   15SAPS    HB 1882   6.191   2.589   6.053 -0.8693  2.5028  0.6738
   15SAPS    C2 1883   6.024   2.502   6.172  0.0044  0.5886  0.5386
   15SAPS    HS 1884   5.933   2.439   6.161  0.4431 -0.0655  0.5392
   15SAPS   O21 1885   6.005   2.609   6.262 -0.0506 -0.0411 -0.2291
   15SAPS   C21 1886   5.894   2.595   6.331  0.2658 -0.7106  0.4737
   15SAPS   O22 1887   5.813   2.507   6.328 -0.3672 -0.2408 -0.1014
   15SAPS   C22 1888   5.879   2.719   6.411 -0.3281  0.4013  0.0909
   15SAPS   H2R 1889   5.802   2.707   6.491 -0.6954 -1.1247 -0.4503
   15SAPS   H2S 1890   5.972   2.708   6.471 -1.4315 -1.2030  1.6223
   15SAPS    C3 1891   6.123   2.387   6.221  0.6778  0.1543 -0.5324
   15SAPS    HX 1892   6.216   2.437   6.253  0.5343 -0.5700  1.1664
   15SAPS    HY 1893   6.145   2.318   6.137  0.9834 -0.5350  0.0997
   15SAPS   O31 1894   6.068   2.310   6.328 -0.0111  0.2158 -0.3260
   15SAPS   C31 1895   6.148   2.227   6.392 -0.4739  0.2875  0.2853
   15SAPS   O32 1896   6.266   2.212   6.361  0.2453  0.0155  0.2903
   15SAPS   C32 1897   6.072   2.171   6.505  0.9045 -0.6240  0.1448
   15SAPS   H2X 1898   5.973   2.141   6.463  1.0450  0.8216 -1.3324
   15SAPS   H2Y 1899   6.046   2.237   6.590 -0.7635 -0.9549 -0.0735
   15SAPS   C23 1900   5.870   2.861   6.347  0.0311  0.1966 -0.4349
   15SAPS   H3R 1901   5.767   2.894   6.371  0.2017 -0.9666  2.3305
   15SAPS   H3S 1902   5.872   2.864   6.236  2.4680 -0.4938 -0.4740
   15SAPS   C24 1903   5.964   2.967   6.406  0.4492 -0.4541  0.3772
   15SAPS   H4R 1904   6.073   2.949   6.396  1.1424  1.7603  2.7867
   15SAPS   H4S 1905   5.937   2.959   6.514 -0.1721 -1.6004  0.1492
   15SAPS   C25 1906   5.925   3.104   6.338 -0.6712  0.1302  0.5009
   15SAPS   H5R 1907   5.939   3.118   6.230  1.2738  2.9905  1.0372
   15SAPS   C26 1908   5.882   3.219   6.401 -0.3853  0.6472 -0.3403
   15SAPS   H6R 1909   5.857   3.311   6.346  1.3621 -1.1199 -4.4809
   15SAPS   C27 1910   5.868   3.237   6.547 -0.6563  0.4833 -0.4846
   15SAPS   H7R 1911   5.954   3.282   6.600  0.2795 -0.8545 -0.8065
   15SAPS   H7S 1912   5.866   3.134   6.588  1.5254 -0.1030 -1.6725
   15SAPS   C28 1913   5.733   3.298   6.574  0.5760 -0.1457 -0.8272
   15SAPS   H8R 1914   5.651   3.289   6.501 -0.2740  0.3750  0.0537
   15SAPS   C29 1915   5.697   3.355   6.691 -0.4817  0.7923  0.1287
   15SAPS   H9R 1916   5.591   3.381   6.704 -1.0520 -1.8909  1.5865
   15SAPS  C210 1917   5.786   3.367   6.811 -0.4038  0.0294  0.0396
   15SAPS  H10R 1918   5.880   3.308   6.801 -0.7836 -0.5402 -0.2210
   15SAPS  H10S 1919   5.742   3.307   6.893 -1.8272 -1.7238 -1.8891
   15SAPS  C211 1920   5.815   3.501   6.862 -0.2457  0.4305 -0.8810
   15SAPS  H11R 1921   5.778   3.586   6.803  0.3160 -0.1051 -2.0456
   15SAPS  C212 1922   5.879   3.538   6.980  0.0598  0.5128 -0.9609
   15SAPS  H12R 1923   5.891   3.643   7.011  2.2425  0.3794 -1.1569
   15SAPS  C213 1924   5.935   3.449   7.092  0.6933 -0.1187  0.8602
   15SAPS  H13R 1925   5.970   3.347   7.064 -1.6199 -1.3463  2.0938
   15SAPS  H13S 1926   5.856   3.431   7.168  0.5953 -0.7451  0.6161
   15SAPS  C214 1927   6.052   3.514   7.162 -0.1145  0.3053  0.2654
   15SAPS  H14R 1928   6.090   3.612   7.127  1.4372 -1.3219 -3.1308
   15SAPS  C215 1929   6.127   3.446   7.254 -0.0576 -0.5488  1.1455
   15SAPS  H15R 1930   6.211   3.504   7.295 -1.1717  1.2078  1.0383
   15SAPS  C216 1931   6.098   3.312   7.314  0.4465 -0.6338 -0.4092
   15SAPS  H16R 1932   6.177   3.237   7.293  1.5667  0.3192  0.2806
   15SAPS  H16S 1933   6.009   3.268   7.264  1.7683 -2.0193 -1.6705
   15SAPS  C217 1934   6.089   3.318   7.470  0.4835 -0.3979  0.5459
   15SAPS  H17R 1935   6.025   3.402   7.503 -0.9798 -0.9780 -0.6937
   15SAPS  H17S 1936   6.189   3.326   7.517  0.6115 -1.1274  0.4196
   15SAPS  C218 1937   6.019   3.186   7.516 -0.0498  0.8399 -0.2736
   15SAPS  H18R 1938   5.929   3.157   7.456 -0.1968  0.6087  0.0544
   15SAPS  H18S 1939   5.999   3.182   7.625 -0.0733 -1.6513 -0.3050
   15SAPS  C219 1940   6.119   3.061   7.513 -0.0723 -0.2721 -0.4277
   15SAPS  H19R 1941   6.207   3.093   7.572 -0.0344  0.7088 -0.9963
   15SAPS  H19S 1942   6.141   3.036   7.407 -1.4181  2.3949 -1.4246
   15SAPS  C220 1943   6.059   2.933   7.590 -0.2088 -0.1703  0.5341
   15SAPS  H20R 1944   6.038   2.969   7.693  0.3428  0.7145  0.3478
   15SAPS  H20S 1945   6.133   2.850   7.596  0.3567 -0.0563 -2.9859
   15SAPS  H20T 1946   5.965   2.899   7.543 -1.4588 -0.5636  3.1194
   15SAPS   C33 1947   6.148   2.061   6.585  0.4813 -0.5526 -0.0053
   15SAPS   H3X 1948   6.245   2.114   6.601 -0.7590  1.1214  2.8538
   15SAPS   H3Y 1949   6.164   1.966   6.531 -1.5865 -2.1220  1.9449
   15SAPS   C34 1950   6.094   2.013   6.717 -0.2434 -0.7297  0.2121
   15SAPS   H4X 1951   6.008   1.945   6.695 -0.1320 -1.1320  1.0043
   15SAPS   H4Y 1952   6.058   2.102   6.772 -1.4905 -0.0908 -1.5377
   15SAPS   C35 1953   6.209   1.954   6.802  0.2782 -0.0567 -0.1388
   15SAPS   H5X 1954   6.286   2.035   6.801 -2.9834  3.3174  0.0502
   15SAPS   H5Y 1955   6.244   1.870   6.738  1.0585  0.5505 -0.5344
   15SAPS   C36 1956   6.190   1.923   6.950  0.2034 -0.4853  0.3632
   15SAPS   H6X 1957   6.097   1.978   6.978 -0.7930 -1.7774 -0.2462
   15SAPS   H6Y 1958   6.264   1.983   7.006 -0.0216 -0.5909  0.7742
   15SAPS   C37 1959   6.175   1.779   6.999 -0.4018 -0.0867 -0.7600
   15SAPS   H7X 1960   6.281   1.747   6.997  0.1013  1.5248 -1.3598
   15SAPS   H7Y 1961   6.107   1.720   6.934 -2.8066 -1.0279  2.3462
   15SAPS   C38 1962   6.118   1.784   7.142 -0.5713 -0.0214  0.9479
   15SAPS   H8X 1963   6.009   1.800   7.131 -0.6023  0.3976  1.7802
   15SAPS   H8Y 1964   6.163   1.869   7.198  1.8009  1.0244 -2.1913
   15SAPS   C39 1965   6.146   1.648   7.205 -0.0748 -0.0820  0.0866
   15SAPS   H9X 1966   6.255   1.631   7.189  0.4631  1.7110  1.4679
   15SAPS   H9Y 1967   6.107   1.565   7.143  2.4450 -0.5876 -0.9406
   15SAPS  C310 1968   6.116   1.633   7.353  0.6579  0.0825 -1.0180
   15SAPS  H10X 1969   6.117   1.528   7.387 -2.0703  0.3547  0.2004
   15SAPS  H10Y 1970   6.013   1.670   7.376  1.0641 -0.5847  2.4135
   15SAPS  C311 1971   6.207   1.718   7.442 -0.3578  0.0792 -0.8097
   15SAPS  H11X 1972   6.172   1.823   7.441  0.5986  0.4164 -0.1668
   15SAPS  H11Y 1973   6.315   1.717   7.414 -0.4792  1.4474 -1.3587
   15SAPS  C312 1974   6.200   1.679   7.593  0.5382 -0.4003  0.0451
   15SAPS  H12X 1975   6.252   1.757   7.652 -0.1088  1.3593 -1.5774
   15SAPS  H12Y 1976   6.247   1.578   7.597  0.2374 -0.6909 -2.1065
   15SAPS  C313 1977   6.067   1.666   7.658  0.0831 -0.1202  0.5913
   15SAPS  H13X 1978   5.995   1.604   7.602  0.6101 -0.1317 -0.0920
   15SAPS  H13Y 1979   6.033   1.770   7.671  1.7582  0.4789  0.5007
   15SAPS  C314 1980   6.093   1.610   7.802  0.6434  1.0438  0.2374
   15SAPS  H14X 1981   6.199   1.603   7.835  0.4363  1.6029  1.0473
   15SAPS  H14Y 1982   6.046   1.511   7.783 -0.4297  1.5301  0.3140
   15SAPS  C315 1983   6.010   1.687   7.897 -0.2730 -0.0428 -0.0867
   15SAPS  H15X 1984   5.906   1.703   7.863 -0.5084 -0.7906  0.2716
   15SAPS  H15Y 1985   6.050   1.791   7.888 -1.3244  0.3614 -0.2192
   15SAPS  C316 1986   6.013   1.640   8.048 -0.4641 -0.1617  0.5194
   15SAPS  H16X 1987   5.965   1.728   8.096 -1.0842 -0.9806  1.4382
   15SAPS  H16Y 1988   6.115   1.639   8.093 -0.0341  2.3622 -0.2313
   15SAPS  C317 1989   5.932   1.510   8.089 -0.3036 -0.3674 -0.0536
   15SAPS  H17X 1990   5.992   1.419   8.067 -0.4775 -1.4580  3.4178
   15SAPS  H17Y 1991   5.844   1.510   8.021 -1.4343  1.0703  1.3480
   15SAPS  C318 1992   5.878   1.506   8.238  0.0987  0.0072  0.3728
   15SAPS  H18X 1993   5.953   1.520   8.319  1.8510 -0.8398 -1.0534
   15SAPS  H18Y 1994   5.831   1.406   8.255  0.2003 -0.1412 -0.1991
   15SAPS  H18Z 1995   5.802   1.582   8.268  0.3601  0.0209  1.0145
   16SAPS     N 1996   0.914   5.505   6.227  0.2939  0.3358 -0.3118
   16SAPS   HN1 1997   0.868   5.569   6.159  1.1625  0.3568 -0.8932
   16SAPS   HN2 1998   0.862   5.531   6.314 -0.1767  3.0805 -1.3284
   16SAPS   HN3 1999   1.012   5.535   6.243  0.0675  0.6156  0.6060
   16SAPS   C12 2000   0.893   5.361   6.201  0.1616 -0.0813  0.0880
   16SAPS  H12A 2001   0.792   5.334   6.225  1.3012 -3.8538  1.4340
   16SAPS   C13 2002   0.926   5.309   6.060 -0.5857  0.2901 -0.0026
   16SAPS  O13A 2003   0.964   5.389   5.975  0.0952  0.1548 -0.5918
   16SAPS  O13B 2004   0.913   5.190   6.019  0.0599 -0.3964 -0.0937
   16SAPS   C11 2005   0.982   5.269   6.302  0.5334  0.5921  0.5392
   16SAPS  H11A 2006   0.967   5.163   6.270 -0.2922  1.0131 -0.5226
   16SAPS  H11B 2007   0.934   5.282   6.402 -0.6953 -1.3472  0.2661
   16SAPS     P 2008   1.225   5.241   6.393 -0.2564 -0.2725  0.0797
   16SAPS   O13 2009   1.248   5.105   6.337 -0.7302  0.5112  0.6308
   16SAPS   O14 2010   1.342   5.327   6.408 -0.3410  0.1977 -0.8411
   16SAPS   O12 2011   1.116   5.317   6.303  0.3069  0.3664  0.2211
   16SAPS   O11 2012   1.147   5.221   6.520  0.0143  0.4439 -0.7949
   16SAPS    C1 2013   1.136   5.323   6.619 -0.7066  0.4459  0.1929
   16SAPS    HA 2014   1.139   5.428   6.584 -0.7500  0.2070 -0.5554
   16SAPS    HB 2015   1.034   5.306   6.660  0.1915 -0.9999  1.9693
   16SAPS    C2 2016   1.239   5.304   6.727 -0.0756 -0.0090 -0.5913
   16SAPS    HS 2017   1.332   5.279   6.672 -1.2084 -0.1641 -2.5294
   16SAPS   O21 2018   1.192   5.207   6.823  0.1352 -0.1778  0.9184
   16SAPS   C21 2019   1.222   5.085   6.782  0.7672 -0.3973  0.3699
   16SAPS   O22 2020   1.288   5.047   6.689  0.2006 -0.0091  0.3495
   16SAPS   C22 2021   1.157   4.986   6.878  0.0365  0.1424 -0.3583
   16SAPS   H2R 2022   1.058   4.954   6.839  0.0659 -0.0170 -0.3036
   16SAPS   H2S 2023   1.208   4.889   6.859 -0.7287 -0.4192  0.3810
   16SAPS    C3 2024   1.268   5.439   6.799  0.6508 -0.9286 -0.5733
   16SAPS    HX 2025   1.171   5.464   6.846  0.9595  0.3151 -0.5582
   16SAPS    HY 2026   1.282   5.519   6.723 -4.1634  3.0659  2.1508
   16SAPS   O31 2027   1.382   5.433   6.887 -0.3112 -0.4564  0.5762
   16SAPS   C31 2028   1.405   5.560   6.929  0.4073 -0.0617  0.0993
   16SAPS   O32 2029   1.325   5.648   6.922  0.0758 -0.0055  0.1815
   16SAPS   C32 2030   1.536   5.560   7.004  0.0773  0.1137 -0.4337
   16SAPS   H2X 2031   1.541   5.656   7.060 -0.1794 -0.0596 -0.1130
   16SAPS   H2Y 2032   1.612   5.567   6.923  0.7720 -1.4393  0.0449
   16SAPS   C23 2033   1.134   5.019   7.023 -0.2279  0.6013 -0.6149
   16SAPS   H3R 2034   1.068   4.942   7.069  0.9664  0.4199  0.8816
   16SAPS   H3S 2035   1.072   5.111   7.034 -2.6103 -0.8581 -1.0867
   16SAPS   C24 2036   1.259   5.037   7.111  0.7614 -0.6727 -0.0158
   16SAPS   H4R 2037   1.225   5.079   7.208 -0.5454 -0.4919 -0.5250
   16SAPS   H4S 2038   1.315   5.113   7.054  0.4572 -0.2271  0.2740
   16SAPS   C25 2039   1.332   4.909   7.125 -0.0477 -0.3415  0.1432
   16SAPS   H5R 2040   1.331   4.838   7.042 -1.8331 -1.4211  1.0313
   16SAPS   C26 2041   1.394   4.870   7.242  0.8451 -0.5087  0.3662
   16SAPS   H6R 2042   1.435   4.769   7.239  0.4768 -0.6697  0.7584
   16SAPS   C27 2043   1.399   4.942   7.369  0.0761 -0.9108  0.7779
   16SAPS   H7R 2044   1.316   5.016   7.377  2.2541  1.6301  1.6384
   16SAPS   H7S 2045   1.496   4.997   7.367  0.3109 -1.3397 -1.3468
   16SAPS   C28 2046   1.402   4.858   7.492 -0.5736  0.8019  0.3654
   16SAPS   H8R 2047   1.314   4.869   7.558  0.2676  1.9082  1.3319
   16SAPS   C29 2048   1.504   4.801   7.549 -0.7475 -0.4258  0.5993
   16SAPS   H9R 2049   1.494   4.742   7.642 -0.3343 -1.6281 -0.1037
   16SAPS  C210 2050   1.643   4.799   7.501 -0.5328  0.0726  0.7151
   16SAPS  H10R 2051   1.653   4.894   7.443 -2.0598  0.3416  0.8541
   16SAPS  H10S 2052   1.658   4.717   7.428  0.3089  0.3152  0.6067
   16SAPS  C211 2053   1.749   4.803   7.610 -0.0879  0.8683  0.0899
   16SAPS  H11R 2054   1.764   4.906   7.646  0.8912  0.8226 -0.1541
   16SAPS  C212 2055   1.825   4.699   7.651  0.2023 -0.2451 -0.6150
   16SAPS  H12R 2056   1.890   4.722   7.737  0.2183 -3.2059  0.2499
   16SAPS  C213 2057   1.815   4.556   7.601 -0.4263 -1.0231 -0.2306
   16SAPS  H13R 2058   1.856   4.547   7.498 -0.0218 -2.2007  0.0229
   16SAPS  H13S 2059   1.707   4.528   7.597 -0.3101 -1.5288  0.1255
   16SAPS  C214 2060   1.883   4.454   7.688  0.0201 -0.0065  0.0937
   16SAPS  H14R 2061   1.969   4.414   7.632  1.1219  0.7825  1.1688
   16SAPS  C215 2062   1.862   4.426   7.820  0.1430  0.1072 -0.4259
   16SAPS  H15R 2063   1.928   4.354   7.870  0.7081  1.7236  1.2632
   16SAPS  C216 2064   1.760   4.482   7.913  0.3410  0.0235 -0.4787
   16SAPS  H16R 2065   1.707   4.402   7.970 -2.0668  1.7769 -0.1203
   16SAPS  H16S 2066   1.688   4.548   7.860  4.5759  1.4808 -5.2319
   16SAPS  C217 2067   1.821   4.567   8.020  0.0663 -0.3994 -0.8451
   16SAPS  H17R 2068   1.831   4.672   7.986 -0.2337 -0.3463 -0.7741
   16SAPS  H17S 2069   1.920   4.528   8.049  0.2408 -0.7865 -1.8954
   16SAPS  C218 2070   1.743   4.566   8.152  0.2661 -0.3054 -0.2506
   16SAPS  H18R 2071   1.730   4.457   8.168 -4.5926  0.1658  0.6479
   16SAPS  H18S 2072   1.640   4.608   8.140 -0.3540 -1.1755  1.5953
   16SAPS  C219 2073   1.811   4.627   8.272  0.1027  0.1196 -0.3542
   16SAPS  H19R 2074   1.853   4.727   8.250 -0.7933  0.7076  0.5461
   16SAPS  H19S 2075   1.892   4.558   8.305  1.0584  1.7934  0.9476
   16SAPS  C220 2076   1.724   4.642   8.392  0.0157  0.5514 -0.9066
   16SAPS  H20R 2077   1.662   4.551   8.412 -0.3455  1.1368  0.7693
   16SAPS  H20S 2078   1.655   4.729   8.387 -1.1530 -0.3784 -1.5300
   16SAPS  H20T 2079   1.786   4.667   8.481  0.1615 -1.2879 -0.4356
   16SAPS   C33 2080   1.575   5.451   7.109  0.3000 -0.1237 -0.3900
   16SAPS   H3X 2081   1.678   5.462   7.149 -0.6870 -0.8832  2.6111
   16SAPS   H3Y 2082   1.569   5.356   7.053 -0.5083 -1.0536  1.1913
   16SAPS   C34 2083   1.469   5.445   7.227 -0.9082 -0.2667  0.0717
   16SAPS   H4X 2084   1.366   5.426   7.192 -1.5602  0.0636  1.7412
   16SAPS   H4Y 2085   1.456   5.550   7.262 -0.1327 -0.2873  0.4460
   16SAPS   C35 2086   1.502   5.357   7.349  0.1132  0.5454 -0.4223
   16SAPS   H5X 2087   1.546   5.261   7.315  0.5421  0.1154  1.2719
   16SAPS   H5Y 2088   1.399   5.342   7.389  0.5639  0.9545  0.9166
   16SAPS   C36 2089   1.584   5.422   7.458 -0.3108  0.0807 -0.2789
   16SAPS   H6X 2090   1.527   5.503   7.508 -1.0685 -1.4514  1.4772
   16SAPS   H6Y 2091   1.680   5.459   7.416 -1.5983  2.0646 -1.6481
   16SAPS   C37 2092   1.615   5.322   7.572 -0.1866  0.1576 -0.5173
   16SAPS   H7X 2093   1.651   5.227   7.527  2.0122  1.3682 -1.4653
   16SAPS   H7Y 2094   1.527   5.296   7.634  0.3062  0.8738  0.5137
   16SAPS   C38 2095   1.733   5.372   7.664  0.1307 -0.0928  0.3867
   16SAPS   H8X 2096   1.717   5.472   7.711  2.2360  0.0156  0.9686
   16SAPS   H8Y 2097   1.831   5.377   7.611  0.8225  0.5647  1.6835
   16SAPS   C39 2098   1.767   5.254   7.760 -0.4541 -0.1054  0.2536
   16SAPS   H9X 2099   1.801   5.167   7.699  0.3946 -0.7353  1.5829
   16SAPS   H9Y 2100   1.675   5.221   7.812 -0.1430  0.3862  1.1260
   16SAPS  C310 2101   1.877   5.285   7.861 -0.0278 -1.1532 -0.6915
   16SAPS  H10X 2102   1.967   5.332   7.815  0.4018  1.1984  2.2630
   16SAPS  H10Y 2103   1.916   5.198   7.919  2.0017  1.6812  2.6153
   16SAPS  C311 2104   1.841   5.381   7.977 -0.6303  0.3384  0.7534
   16SAPS  H11X 2105   1.747   5.345   8.023  0.0175  0.3658  2.1404
   16SAPS  H11Y 2106   1.828   5.476   7.920  1.3786 -1.7131 -3.6088
   16SAPS  C312 2107   1.958   5.369   8.079  0.4742 -1.4304 -0.4010
   16SAPS  H12X 2108   2.056   5.362   8.026  0.9712 -0.2227  0.3002
   16SAPS  H12Y 2109   1.941   5.278   8.140 -1.8401 -0.9711 -0.2855
   16SAPS  C313 2110   1.956   5.496   8.164  0.4556 -0.3560  0.9061
   16SAPS  H13X 2111   1.857   5.534   8.195  1.3267  2.0259  0.9593
   16SAPS  H13Y 2112   2.009   5.575   8.106  0.7569 -2.1186 -1.3854
   16SAPS  C314 2113   2.039   5.468   8.299 -0.0213 -0.3167 -0.0912
   16SAPS  H14X 2114   2.125   5.403   8.271 -0.7234 -0.6413 -1.6147
   16SAPS  H14Y 2115   1.979   5.410   8.373 -0.9812 -0.5546 -1.0309
   16SAPS  C315 2116   2.094   5.596   8.368 -0.0062 -0.1367 -0.6856
   16SAPS  H15X 2117   2.010   5.669   8.374 -1.6835 -2.0799  2.1449
   16SAPS  H15Y 2118   2.179   5.638   8.311  0.2451 -0.4726 -0.5649
   16SAPS  C316 2119   2.121   5.565   8.515 -0.3104 -0.4805 -0.4180
   16SAPS  H16X 2120   2.195   5.483   8.524 -1.4239 -1.4109  0.6233
   16SAPS  H16Y 2121   2.032   5.537   8.577  1.0340 -0.0404  1.8247
   16SAPS  C317 2122   2.204   5.678   8.585  0.4458 -0.6592 -0.0977
   16SAPS  H17X 2123   2.205   5.647   8.691 -0.2674  1.4108  0.5714
   16SAPS  H17Y 2124   2.132   5.762   8.570  1.4008 -0.1621 -2.4164
   16SAPS  C318 2125   2.346   5.713   8.546  0.4951 -0.5581  1.2395
   16SAPS  H18X 2126   2.423   5.635   8.567  0.2940 -1.3341 -0.7183
   16SAPS  H18Y 2127   2.390   5.806   8.589  1.5588 -0.5197  0.1187
   16SAPS  H18Z 2128   2.348   5.732   8.437  3.3600  0.9522  1.4439
   17SAPC     N 2129   5.825   3.254  10.609 -0.7515 -0.1590  0.0963
   17SAPC   C12 2130   5.893   3.346  10.504 -0.1106  0.8972  0.1350
   17SAPC  H12A 2131   5.994   3.310  10.498 -0.3723 -0.2069  1.6967
   17SAPC  H12B 2132   5.900   3.446  10.545 -0.4712  1.0049 -0.0573
   17SAPC   C13 2133   5.683   3.301  10.617  0.4374  0.2694 -0.0004
   17SAPC  H13A 2134   5.683   3.398  10.664  2.9791  0.6174 -0.5422
   17SAPC  H13B 2135   5.640   3.300  10.518  0.5368 -0.4521 -0.0411
   17SAPC  H13C 2136   5.619   3.237  10.676  0.8514 -0.9021 -0.7743
   17SAPC   C14 2137   5.828   3.113  10.561  0.2696 -0.0584  0.3887
   17SAPC  H14A 2138   5.927   3.072  10.575 -0.3626 -2.3331 -1.1372
   17SAPC  H14B 2139   5.772   3.053  10.631  2.2381 -0.2014  1.9327
   17SAPC  H14C 2140   5.802   3.100  10.457 -0.5999  1.8251  0.3266
   17SAPC   C15 2141   5.898   3.258  10.739  0.0558 -0.1350  0.6403
   17SAPC  H15A 2142   5.846   3.214  10.823  0.2779  1.9732  1.9572
   17SAPC  H15B 2143   5.991   3.203  10.736 -1.0173 -2.0543 -2.5648
   17SAPC  H15C 2144   5.919   3.357  10.775  0.1122 -0.0912  0.4870
   17SAPC   C11 2145   5.836   3.362  10.368  0.1196  0.3973  0.4862
   17SAPC  H11A 2146   5.831   3.270  10.305 -0.0571  1.0693 -0.5123
   17SAPC  H11B 2147   5.910   3.425  10.314  1.1072 -0.8026  0.3848
   17SAPC     P 2148   5.691   3.577  10.399 -0.6801 -0.1125 -0.2511
   17SAPC   O13 2149   5.562   3.594  10.469  0.3275  0.3438 -0.0803
   17SAPC   O14 2150   5.810   3.617  10.478  0.1265 -0.1479 -0.0461
   17SAPC   O12 2151   5.700   3.422  10.368  0.0961 -0.0170  0.3820
   17SAPC   O11 2152   5.683   3.640  10.259  0.0604 -0.4146  0.0144
   17SAPC    C1 2153   5.609   3.564  10.159 -0.5985 -0.3384 -0.5763
   17SAPC    HA 2154   5.551   3.477  10.195 -0.3421 -0.3034 -0.0758
   17SAPC    HB 2155   5.542   3.635  10.106 -0.7072 -1.1491 -1.5657
   17SAPC    C2 2156   5.706   3.496  10.049 -0.2072 -0.5383 -0.6582
   17SAPC    HS 2157   5.767   3.417  10.098  1.3950  0.0847 -1.5645
   17SAPC   O21 2158   5.788   3.605  10.008  0.0552  0.2298  0.1078
   17SAPC   C21 2159   5.917   3.584  10.006  0.6057 -0.5000 -0.7367
   17SAPC   O22 2160   5.969   3.482  10.053  0.1891 -0.4862  0.0354
   17SAPC   C22 2161   5.994   3.690   9.919 -0.1436  0.7578 -0.2730
   17SAPC   H2R 2162   5.929   3.777   9.896 -2.2192 -1.1067 -1.8329
   17SAPC   H2S 2163   6.083   3.730   9.973  0.7973  1.2723 -2.1432
   17SAPC    C3 2164   5.620   3.449   9.929  0.0681 -0.1925 -1.0984
   17SAPC    HX 2165   5.555   3.538   9.913  0.1446  1.0436  3.9452
   17SAPC    HY 2166   5.572   3.353   9.958  0.5848 -0.6279 -1.6569
   17SAPC   O31 2167   5.701   3.429   9.809  0.3271 -0.0202  0.4603
   17SAPC   C31 2168   5.650   3.335   9.725  0.3466  0.0309 -0.9366
   17SAPC   O32 2169   5.549   3.267   9.734  0.0485  0.2479 -0.1306
   17SAPC   C32 2170   5.750   3.315   9.603  0.1631 -0.5863  0.1401
   17SAPC   H2X 2171   5.809   3.226   9.633  2.5622  1.3232  1.5097
   17SAPC   H2Y 2172   5.823   3.399   9.610 -1.1220  0.5693  0.0757
   17SAPC   C23 2173   6.050   3.623   9.789  0.8792  0.2653 -0.0650
   17SAPC   H3R 2174   5.964   3.596   9.724  0.1545 -2.6228  1.8917
   17SAPC   H3S 2175   6.101   3.530   9.823 -0.1235  0.1039  1.0774
   17SAPC   C24 2176   6.142   3.721   9.701 -0.0056 -0.5086 -0.0359
   17SAPC   H4R 2177   6.204   3.657   9.633 -0.8083  0.3391 -1.6182
   17SAPC   H4S 2178   6.211   3.762   9.778  1.2828 -2.1392 -0.2631
   17SAPC   C25 2179   6.087   3.843   9.628  0.0082 -0.0474  0.0860
   17SAPC   H5R 2180   6.097   3.934   9.689 -1.8594 -0.9334  1.8002
   17SAPC   C26 2181   6.037   3.849   9.504 -0.1488  0.0664 -0.3413
   17SAPC   H6R 2182   6.001   3.948   9.473 -1.4439 -0.1468  0.3778
   17SAPC   C27 2183   6.010   3.729   9.409  0.9372  0.2019  0.2498
   17SAPC   H7R 2184   5.906   3.736   9.372  0.4949  3.7544  1.7071
   17SAPC   H7S 2185   5.999   3.634   9.466 -1.4291  0.1273 -0.2263
   17SAPC   C28 2186   6.105   3.721   9.291 -0.0208 -0.5996 -0.0926
   17SAPC   H8R 2187   6.195   3.659   9.299  0.0692 -0.6046 -1.0694
   17SAPC   C29 2188   6.092   3.771   9.168 -0.1738  0.9955 -0.3055
   17SAPC   H9R 2189   6.165   3.743   9.091 -0.5402  1.8088 -0.9554
   17SAPC  C210 2190   5.973   3.853   9.125  0.7899  0.2012  0.7291
   17SAPC  H10R 2191   6.016   3.947   9.085 -0.0850  0.1605 -0.3598
   17SAPC  H10S 2192   5.908   3.872   9.213  1.4292 -0.6153  1.3976
   17SAPC  C211 2193   5.895   3.790   9.016 -0.5324  0.0855 -0.7090
   17SAPC  H11R 2194   5.856   3.690   9.038  2.0094 -0.9244 -0.3717
   17SAPC  C212 2195   5.860   3.834   8.895 -0.9524 -0.0207 -0.7403
   17SAPC  H12R 2196   5.790   3.773   8.835 -0.9288 -1.4110  0.5794
   17SAPC  C213 2197   5.891   3.971   8.837  0.2649 -0.5105  0.0899
   17SAPC  H13R 2198   5.892   3.961   8.726 -0.0079 -3.4234  0.2858
   17SAPC  H13S 2199   5.998   3.997   8.854 -0.2366  0.7358  1.6116
   17SAPC  C214 2200   5.799   4.068   8.911  0.7465 -1.3590 -0.4874
   17SAPC  H14R 2201   5.824   4.061   9.018  4.2291 -0.8095 -1.1514
   17SAPC  C215 2202   5.723   4.162   8.854  0.7444  0.5388 -0.5615
   17SAPC  H15R 2203   5.667   4.230   8.919 -0.6506 -0.6914 -0.4292
   17SAPC  C216 2204   5.708   4.181   8.713  0.2377  0.6912 -0.0918
   17SAPC  H16R 2205   5.732   4.087   8.658  2.0220  1.6152 -0.9571
   17SAPC  H16S 2206   5.782   4.252   8.670  1.8416 -0.2760  0.9628
   17SAPC  C217 2207   5.578   4.239   8.665 -0.5459  0.3157 -0.2321
   17SAPC  H17R 2208   5.495   4.183   8.713  1.1522 -0.5919  1.7836
   17SAPC  H17S 2209   5.571   4.218   8.556  0.4602 -0.6836 -0.1255
   17SAPC  C218 2210   5.559   4.387   8.686 -0.1790 -0.0293 -0.2912
   17SAPC  H18R 2211   5.638   4.445   8.634 -1.8036 -0.1038 -3.0494
   17SAPC  H18S 2212   5.555   4.423   8.791 -0.9520  0.1521 -0.3745
   17SAPC  C219 2213   5.423   4.432   8.640  0.0183 -0.2813 -0.2676
   17SAPC  H19R 2214   5.410   4.541   8.656  0.7962 -0.2729  0.4042
   17SAPC  H19S 2215   5.350   4.379   8.704  1.4602  0.2116  1.9023
   17SAPC  C220 2216   5.400   4.411   8.492  0.2865 -0.2974  0.0583
   17SAPC  H20R 2217   5.391   4.302   8.472 -2.2851  0.1447 -1.6847
   17SAPC  H20S 2218   5.482   4.452   8.428 -0.6177 -0.2937 -1.1364
   17SAPC  H20T 2219   5.307   4.465   8.463  0.2137  0.3644  1.4588
   17SAPC   C33 2220   5.670   3.308   9.473  0.4531 -0.2814  0.3436
   17SAPC   H3X 2221   5.616   3.404   9.463  1.1693  0.1703  0.6739
   17SAPC   H3Y 2222   5.597   3.224   9.473  1.1030 -0.8789 -1.1560
   17SAPC   C34 2223   5.747   3.307   9.336 -0.7437  1.3014  0.3563
   17SAPC   H4X 2224   5.781   3.205   9.310  1.9957  2.5320 -1.3517
   17SAPC   H4Y 2225   5.836   3.373   9.349 -0.6327  1.1386  0.4191
   17SAPC   C35 2226   5.658   3.361   9.227  0.2376  0.2322  0.3312
   17SAPC   H5X 2227   5.641   3.470   9.239 -1.7592 -0.1874  1.8345
   17SAPC   H5Y 2228   5.564   3.303   9.235  1.4052 -1.5881  1.5644
   17SAPC   C36 2229   5.722   3.327   9.097  0.3100 -0.0373 -0.4207
   17SAPC   H6X 2230   5.739   3.218   9.082 -0.1339  0.2839 -4.7121
   17SAPC   H6Y 2231   5.822   3.375   9.086  0.1848 -0.1100 -2.2308
   17SAPC   C37 2232   5.632   3.382   8.989 -1.2132  0.1090  0.6075
   17SAPC   H7X 2233   5.612   3.490   9.005  1.0800  0.4672  1.4408
   17SAPC   H7Y 2234   5.539   3.323   9.001 -0.7733 -0.4830  1.2655
   17SAPC   C38 2235   5.678   3.362   8.846  0.5694 -0.0679  0.1277
   17SAPC   H8X 2236   5.599   3.398   8.777 -0.5957 -0.6845  1.1085
   17SAPC   H8Y 2237   5.710   3.258   8.825  4.4844  1.2724 -1.3999
   17SAPC   C39 2238   5.807   3.438   8.822 -1.0132  0.1583 -0.5598
   17SAPC   H9X 2239   5.893   3.388   8.871 -0.8945  0.5756 -0.3445
   17SAPC   H9Y 2240   5.797   3.538   8.869 -1.3404  0.2062 -0.7261
   17SAPC  C310 2241   5.834   3.449   8.669 -0.0718 -0.1418  0.6057
   17SAPC  H10X 2242   5.741   3.484   8.618 -1.6855 -2.0939  2.0108
   17SAPC  H10Y 2243   5.855   3.345   8.634  2.1951  0.1390  0.9785
   17SAPC  C311 2244   5.948   3.547   8.628 -0.0261 -0.3466 -0.7687
   17SAPC  H11X 2245   6.038   3.513   8.685 -0.0634  1.4166  0.3918
   17SAPC  H11Y 2246   5.917   3.648   8.662 -1.0540 -0.9672  0.2010
   17SAPC  C312 2247   5.967   3.558   8.476 -0.6861 -0.7580 -0.3365
   17SAPC  H12X 2248   5.867   3.581   8.434 -0.4977 -2.6827 -1.9667
   17SAPC  H12Y 2249   6.006   3.462   8.436 -0.1252 -1.0329  0.8100
   17SAPC  C313 2250   6.070   3.673   8.436 -0.3171 -0.3284  0.5522
   17SAPC  H13X 2251   6.093   3.674   8.328  0.3643 -0.9465  0.6796
   17SAPC  H13Y 2252   6.162   3.655   8.496 -0.5160 -0.9629  0.6711
   17SAPC  C314 2253   6.033   3.815   8.481  0.6137  0.0618  0.1766
   17SAPC  H14X 2254   6.028   3.809   8.592  1.0555  0.2300  0.2051
   17SAPC  H14Y 2255   5.933   3.834   8.435  0.8567 -1.3199 -0.9942
   17SAPC  C315 2256   6.139   3.921   8.441  0.4212 -0.3409 -0.9976
   17SAPC  H15X 2257   6.167   3.929   8.334 -0.0839 -0.7493 -1.1693
   17SAPC  H15Y 2258   6.232   3.886   8.490 -0.7979  0.8712  2.4728
   17SAPC  C316 2259   6.101   4.056   8.493 -0.3014  0.4508  0.6163
   17SAPC  H16X 2260   6.084   4.040   8.601 -0.5432 -0.9927  0.3914
   17SAPC  H16Y 2261   6.013   4.088   8.433 -0.7330 -1.6200  0.0694
   17SAPC  C317 2262   6.209   4.173   8.478 -0.2650 -0.3723  0.7777
   17SAPC  H17X 2263   6.247   4.151   8.375 -1.8590  1.0589 -0.1725
   17SAPC  H17Y 2264   6.293   4.141   8.544 -0.9644 -0.9444  1.4088
   17SAPC  C318 2265   6.181   4.322   8.485  0.0475  0.0850 -0.3615
   17SAPC  H18X 2266   6.163   4.347   8.591  2.5321 -0.2200  0.1916
   17SAPC  H18Y 2267   6.266   4.390   8.459 -1.1287  1.9969  0.5372
   17SAPC  H18Z 2268   6.090   4.350   8.427 -0.4223  1.7995  1.1222
   18SAPC     N 2269   0.113   2.045  11.048 -0.0194  0.5114 -0.1537
   18SAPC   C12 2270   0.111   2.116  10.919  0.4800 -0.2889 -0.4858
   18SAPC  H12A 2271   0.185   2.194  10.919  0.8830 -0.6517  0.4489
   18SAPC  H12B 2272   0.014   2.164  10.910 -0.0956 -1.5003 -1.0392
   18SAPC   C13 2273   0.254   1.984  11.062  0.2217  0.8649  0.0558
   18SAPC  H13A 2274   0.326   2.059  11.031  0.4211  1.7134  2.3772
   18SAPC  H13B 2275   0.256   1.943  11.162  2.7207 -2.6535 -1.2185
   18SAPC  H13C 2276   0.263   1.898  10.998  1.9183  0.0739  1.2820
   18SAPC   C14 2277   0.099   2.143  11.156 -0.2627 -1.0930 -0.5405
   18SAPC  H14A 2278   0.004   2.194  11.153 -0.0588 -0.7059 -3.5204
   18SAPC  H14B 2279   0.116   2.094  11.251 -2.0251 -0.6930  0.0113
   18SAPC  H14C 2280   0.175   2.218  11.140 -0.6515 -0.3588  0.9554
   18SAPC   C15 2281   0.017   1.936  11.063  0.1563  0.9198 -0.0519
   18SAPC  H15A 2282   0.025   1.875  11.152 -1.2491  4.0563  2.4378
   18SAPC  H15B 2283  -0.086   1.968  11.067 -0.4283 -0.8098 -0.3105
   18SAPC  H15C 2284   0.015   1.870  10.977  1.2840 -2.0389  2.0257
   18SAPC   C11 2285   0.120   2.032  10.785  0.4089 -0.0876 -1.0048
   18SAPC  H11A 2286   0.212   1.970  10.789  0.0167 -0.7232  3.3235
   18SAPC  H11B 2287   0.130   2.105  10.702  0.2199  1.3361  0.1932
   18SAPC     P 2288  -0.125   1.980  10.709  0.0418  0.2749  0.0380
   18SAPC   O13 2289  -0.220   1.872  10.730 -0.1056  0.4523 -0.1776
   18SAPC   O14 2290  -0.159   2.113  10.756  0.4599 -0.0997  0.6910
   18SAPC   O12 2291   0.013   1.935  10.766 -0.0121 -0.0818  0.2630
   18SAPC   O11 2292  -0.095   2.001  10.557  0.4173  0.5224  0.3331
   18SAPC    C1 2293  -0.123   1.896  10.466  0.8952  0.0373  0.5666
   18SAPC    HA 2294  -0.028   1.842  10.443 -0.1947 -1.3796 -0.7931
   18SAPC    HB 2295  -0.194   1.818  10.501  2.1673 -1.5135 -0.1778
   18SAPC    C2 2296  -0.173   1.946  10.327 -0.5463 -0.1723 -0.1610
   18SAPC    HS 2297  -0.212   1.868  10.258 -2.4974 -1.6594  2.4377
   18SAPC   O21 2298  -0.082   2.032  10.260 -0.1170  0.0734  0.5189
   18SAPC   C21 2299   0.010   1.962  10.190 -1.1423 -0.2160  0.7277
   18SAPC   O22 2300   0.018   1.840  10.183 -0.2792  0.2454  0.6064
   18SAPC   C22 2301   0.108   2.067  10.130  0.2450 -0.4091 -0.4898
   18SAPC   H2R 2302   0.057   2.152  10.081  1.4469 -0.4065 -1.8179
   18SAPC   H2S 2303   0.148   2.118  10.220  1.0068  0.2017 -1.1628
   18SAPC    C3 2304  -0.300   2.031  10.342 -0.1917  0.7517 -0.0112
   18SAPC    HX 2305  -0.283   2.117  10.411 -1.4173  0.0397  1.2207
   18SAPC    HY 2306  -0.376   1.980  10.405  0.9946  1.3359  1.9680
   18SAPC   O31 2307  -0.352   2.074  10.211 -0.6103 -0.2791  0.1999
   18SAPC   C31 2308  -0.413   1.989  10.146  0.6695  0.6256  0.8339
   18SAPC   O32 2309  -0.428   1.870  10.174  0.6533 -0.0097  0.2206
   18SAPC   C32 2310  -0.470   2.056  10.026  0.0697  0.1985  0.3290
   18SAPC   H2X 2311  -0.475   2.166  10.040  0.2931  0.3865 -0.9553
   18SAPC   H2Y 2312  -0.575   2.026  10.006 -0.2135  1.0543  0.4947
   18SAPC   C23 2313   0.231   2.002  10.065  0.8200 -0.6721 -0.8805
   18SAPC   H3R 2314   0.269   1.913  10.120 -1.5175 -2.6501 -2.2919
   18SAPC   H3S 2315   0.307   2.083  10.078  0.5204 -0.5854  0.5536
   18SAPC   C24 2316   0.202   1.977   9.918  0.5575 -0.2802 -1.0818
   18SAPC   H4R 2317   0.139   2.059   9.878  1.1928  0.2640 -0.9939
   18SAPC   H4S 2318   0.125   1.897   9.922  0.7944 -0.4709 -0.2290
   18SAPC   C25 2319   0.324   1.944   9.838 -0.1658 -0.7705  0.4219
   18SAPC   H5R 2320   0.385   1.863   9.881 -0.5537 -0.8550  0.8191
   18SAPC   C26 2321   0.356   2.002   9.722  0.0893 -0.3008  0.8222
   18SAPC   H6R 2322   0.448   1.973   9.669 -0.9084  0.0887 -1.2199
   18SAPC   C27 2323   0.272   2.098   9.647  0.3338  0.1820  0.3611
   18SAPC   H7R 2324   0.219   2.162   9.720  1.2614  0.8705  0.4438
   18SAPC   H7S 2325   0.187   2.048   9.595  0.4387  0.4798 -0.0998
   18SAPC   C28 2326   0.338   2.186   9.547  0.7331 -0.5649  0.4971
   18SAPC   H8R 2327   0.358   2.281   9.597 -2.6694 -0.9032  2.8468
   18SAPC   C29 2328   0.346   2.167   9.415 -0.8203 -0.1337  0.6124
   18SAPC   H9R 2329   0.388   2.249   9.355 -0.8867  0.7808  1.7896
   18SAPC  C210 2330   0.289   2.056   9.332  0.0214 -0.3298  0.3075
   18SAPC  H10R 2331   0.179   2.070   9.321  0.1075 -1.3663 -3.5936
   18SAPC  H10S 2332   0.288   1.959   9.386 -1.8995 -1.6316 -1.8449
   18SAPC  C211 2333   0.355   2.024   9.200  0.6207  0.4794 -0.0689
   18SAPC  H11R 2334   0.461   2.048   9.185  0.6592 -0.0033 -0.6123
   18SAPC  C212 2335   0.290   1.977   9.089  1.1911 -1.1534  0.3583
   18SAPC  H12R 2336   0.338   1.984   8.990  1.5436 -0.7136  0.5584
   18SAPC  C213 2337   0.136   1.949   9.095  0.0788 -0.1639  0.4669
   18SAPC  H13R 2338   0.109   1.893   9.186  0.5652  1.7759  1.8780
   18SAPC  H13S 2339   0.112   1.865   9.026 -0.4523 -0.5519  1.1099
   18SAPC  C214 2340   0.039   2.070   9.063 -0.4214  0.0094 -0.1832
   18SAPC  H14R 2341   0.031   2.123   9.159  0.2004 -2.3084  1.2312
   18SAPC  C215 2342  -0.036   2.105   8.956  0.1162  0.3391 -0.3205
   18SAPC  H15R 2343  -0.110   2.186   8.962  1.5396  1.5635  3.3650
   18SAPC  C216 2344  -0.035   2.021   8.833 -0.2349  0.2726  0.1943
   18SAPC  H16R 2345  -0.130   1.963   8.829  0.7176 -1.2769 -2.0482
   18SAPC  H16S 2346   0.045   1.946   8.845 -0.3891  0.5021  3.4222
   18SAPC  C217 2347  -0.005   2.087   8.697 -1.2953 -1.2377  0.6254
   18SAPC  H17R 2348   0.101   2.119   8.689 -1.3769 -0.4286  2.2527
   18SAPC  H17S 2349  -0.073   2.174   8.687 -1.0286 -0.9889  0.9803
   18SAPC  C218 2350  -0.036   1.993   8.578  0.3804 -0.7571 -1.0000
   18SAPC  H18R 2351  -0.144   1.969   8.571 -0.5674  1.2626  3.4142
   18SAPC  H18S 2352   0.005   1.893   8.605 -1.2707 -1.2001 -0.0150
   18SAPC  C219 2353   0.008   2.051   8.441  0.1166 -0.2745 -0.0709
   18SAPC  H19R 2354   0.118   2.059   8.450  0.0524  1.5492 -0.6556
   18SAPC  H19S 2355  -0.040   2.150   8.432  0.9628  0.1016 -0.4920
   18SAPC  C220 2356  -0.037   1.971   8.318 -0.3707 -0.1984 -0.2729
   18SAPC  H20R 2357   0.017   1.874   8.316  0.0160 -0.0249  0.9720
   18SAPC  H20S 2358  -0.013   2.024   8.223  0.0842 -1.3355 -0.8134
   18SAPC  H20T 2359  -0.147   1.959   8.324 -0.4074  0.8416  2.4696
   18SAPC   C33 2360  -0.407   2.013   9.889  0.0844  0.4111  0.0011
   18SAPC   H3X 2361  -0.434   1.907   9.872  2.2180 -0.0628 -0.8050
   18SAPC   H3Y 2362  -0.297   2.028   9.894 -0.0762  1.3559  1.0823
   18SAPC   C34 2363  -0.460   2.102   9.779  0.0424 -0.2132 -0.9756
   18SAPC   H4X 2364  -0.417   2.203   9.795  0.2358  0.2615 -3.9166
   18SAPC   H4Y 2365  -0.570   2.115   9.789  0.3476  2.6105 -0.6435
   18SAPC   C35 2366  -0.433   2.053   9.639  0.1127 -0.4653  0.1561
   18SAPC   H5X 2367  -0.445   1.943   9.650 -2.1324 -0.1286  1.5932
   18SAPC   H5Y 2368  -0.325   2.070   9.616  0.6598 -3.1144  0.3925
   18SAPC   C36 2369  -0.518   2.118   9.527 -0.2839 -0.1361 -0.4017
   18SAPC   H6X 2370  -0.516   2.229   9.528 -1.6092 -0.0398 -2.4734
   18SAPC   H6Y 2371  -0.627   2.107   9.545 -0.0448  0.1580  1.4259
   18SAPC   C37 2372  -0.488   2.071   9.384  0.7001 -0.9736 -0.0151
   18SAPC   H7X 2373  -0.486   1.961   9.367  0.8355 -1.0371  0.3928
   18SAPC   H7Y 2374  -0.390   2.119   9.366  0.7934 -1.1280  0.0836
   18SAPC   C38 2375  -0.577   2.138   9.284  0.3726 -0.2863  0.5912
   18SAPC   H8X 2376  -0.560   2.246   9.266 -1.8295 -0.0185 -0.1471
   18SAPC   H8Y 2377  -0.683   2.123   9.314  0.0369  1.4784  0.3573
   18SAPC   C39 2378  -0.573   2.071   9.147 -0.3762  0.1541  0.6905
   18SAPC   H9X 2379  -0.663   2.105   9.092  2.2238  1.2540 -3.3005
   18SAPC   H9Y 2380  -0.576   1.961   9.164  0.0477  0.2874  1.7061
   18SAPC  C310 2381  -0.449   2.115   9.067  0.7900  0.0638  0.3256
   18SAPC  H10X 2382  -0.358   2.078   9.118 -0.5656 -0.6907  2.3507
   18SAPC  H10Y 2383  -0.450   2.226   9.067  1.9003  0.0797  0.0236
   18SAPC  C311 2384  -0.439   2.050   8.930 -0.7995  0.5029  0.5099
   18SAPC  H11X 2385  -0.484   1.950   8.912  1.4355 -0.3697 -0.6235
   18SAPC  H11Y 2386  -0.330   2.039   8.911 -0.4543  0.8544  2.1466
   18SAPC  C312 2387  -0.480   2.145   8.815 -0.9828 -0.5247 -0.8095
   18SAPC  H12X 2388  -0.437   2.247   8.822 -1.9827  0.0272 -2.1869
   18SAPC  H12Y 2389  -0.591   2.136   8.821 -0.8725 -1.2675  0.3260
   18SAPC  C313 2390  -0.439   2.097   8.676 -0.2238  0.7194  1.0749
   18SAPC  H13X 2391  -0.484   1.996   8.668 -0.5591  0.9447 -0.2957
   18SAPC  H13Y 2392  -0.330   2.077   8.682 -0.3794  0.1161  2.0555
   18SAPC  C314 2393  -0.484   2.186   8.554 -0.4956  0.0716  0.5487
   18SAPC  H14X 2394  -0.442   2.287   8.571  0.3910  0.0788 -1.3905
   18SAPC  H14Y 2395  -0.593   2.189   8.533 -0.1330  4.2926 -1.9249
   18SAPC  C315 2396  -0.405   2.147   8.427 -0.0930  0.4944  0.0037
   18SAPC  H15X 2397  -0.432   2.044   8.393  3.6381  0.0542 -2.2421
   18SAPC  H15Y 2398  -0.298   2.144   8.458  0.6930  4.0349 -1.8477
   18SAPC  C316 2399  -0.415   2.254   8.322  0.2991  0.1877  0.2015
   18SAPC  H16X 2400  -0.435   2.350   8.373  0.9368 -0.7548  2.3306
   18SAPC  H16Y 2401  -0.501   2.244   8.252  0.6981 -0.3636 -0.2294
   18SAPC  C317 2402  -0.281   2.267   8.235 -0.1597 -0.0697  0.2372
   18SAPC  H17X 2403  -0.201   2.262   8.312  0.7061  1.1409 -0.5321
   18SAPC  H17Y 2404  -0.295   2.362   8.180  0.2274  0.2400  0.6667
   18SAPC  C318 2405  -0.272   2.155   8.128 -1.0157 -0.5758 -0.3729
   18SAPC  H18X 2406  -0.171   2.146   8.084 -0.7093  0.3678  0.1001
   18SAPC  H18Y 2407  -0.343   2.182   8.047 -1.0910  0.7952  0.1191
   18SAPC  H18Z 2408  -0.296   2.055   8.170  0.8193 -1.3670 -1.1581
   19SAPC     N 2409   6.318   4.032  10.893  0.4304  0.2911 -0.3184
   19SAPC   C12 2410   6.264   3.988  10.756 -0.1111  0.0451  0.0603
   19SAPC  H12A 2411   6.195   4.066  10.727  0.2061  0.8635  1.4259
   19SAPC  H12B 2412   6.216   3.892  10.767  0.1443 -0.4584 -2.5624
   19SAPC   C13 2413   6.401   3.924  10.954  0.3898  0.1946 -0.0131
   19SAPC  H13A 2414   6.336   3.842  10.981 -0.7181  1.1227  0.2572
   19SAPC  H13B 2415   6.463   3.896  10.870  0.9111  1.1478  0.0439
   19SAPC  H13C 2416   6.454   3.959  11.041 -0.7554  0.2822  0.6659
   19SAPC   C14 2417   6.407   4.153  10.876 -0.5804 -0.7395  0.3016
   19SAPC  H14A 2418   6.470   4.176  10.961 -0.5111  0.8585 -0.1529
   19SAPC  H14B 2419   6.471   4.140  10.790  2.0524  0.5354  1.9324
   19SAPC  H14C 2420   6.352   4.244  10.856 -1.2408 -1.0349  0.7332
   19SAPC   C15 2421   6.210   4.068  10.986  0.4021 -0.0512 -0.3952
   19SAPC  H15A 2422   6.133   3.996  11.011 -1.0671  2.2328  2.3435
   19SAPC  H15B 2423   6.254   4.097  11.081  3.2754 -1.0758 -1.3018
   19SAPC  H15C 2424   6.154   4.150  10.943  0.3155 -0.1035 -0.3835
   19SAPC   C11 2425   6.363   3.962  10.632  0.1209  0.1091  0.0658
   19SAPC  H11A 2426   6.409   4.061  10.607  0.2211  0.0402 -0.0236
   19SAPC  H11B 2427   6.301   3.937  10.544  0.0101 -1.3843  0.5471
   19SAPC     P 2428   6.434   3.714  10.661  0.0684  0.1583 -0.0353
   19SAPC   O13 2429   6.538   3.646  10.747 -0.5727 -0.2582 -0.3679
   19SAPC   O14 2430   6.288   3.700  10.701 -1.0330  0.1547 -0.7035
   19SAPC   O12 2431   6.469   3.868  10.648 -0.4960  0.7670 -0.3158
   19SAPC   O11 2432   6.448   3.674  10.512 -0.4862 -0.0724  0.2447
   19SAPC    C1 2433   6.578   3.686  10.448  0.0455  0.2234 -0.0423
   19SAPC    HA 2434   6.664   3.687  10.519  0.8542 -0.1838 -0.9997
   19SAPC    HB 2435   6.599   3.590  10.397 -2.0085 -0.9110  1.1140
   19SAPC    C2 2436   6.581   3.804  10.346  0.1848  0.3592 -0.5240
   19SAPC    HS 2437   6.577   3.889  10.418  2.3043 -0.5299  0.7483
   19SAPC   O21 2438   6.464   3.788  10.256  0.3154  0.0390 -0.8447
   19SAPC   C21 2439   6.397   3.904  10.241 -0.2298  0.5856 -0.3457
   19SAPC   O22 2440   6.431   4.009  10.288 -0.0080  0.1770  0.4577
   19SAPC   C22 2441   6.274   3.891  10.154  0.3003  0.3737  0.3499
   19SAPC   H2R 2442   6.288   3.841  10.055 -4.1808  2.1703 -1.4415
   19SAPC   H2S 2443   6.199   3.830  10.209  1.0409 -0.3361  0.5999
   19SAPC    C3 2444   6.714   3.817  10.260  0.6184  0.6931  0.4000
   19SAPC    HX 2445   6.715   3.731  10.191 -0.8025  1.3054 -0.4400
   19SAPC    HY 2446   6.806   3.805  10.321  1.0900  0.1838 -0.3960
   19SAPC   O31 2447   6.722   3.940  10.183 -0.3484 -0.1229  0.2699
   19SAPC   C31 2448   6.736   4.055  10.253 -0.7006 -0.3176  0.0803
   19SAPC   O32 2449   6.737   4.073  10.374 -0.4593  0.2017  0.1356
   19SAPC   C32 2450   6.763   4.174  10.162 -0.1404 -0.0455  0.1877
   19SAPC   H2X 2451   6.843   4.145  10.091 -0.8532 -0.8971 -0.2965
   19SAPC   H2Y 2452   6.803   4.259  10.221 -0.8366  0.5587 -0.1880
   19SAPC   C23 2453   6.202   4.025  10.132 -0.3060 -0.0980  0.3005
   19SAPC   H3R 2454   6.262   4.107  10.086  0.1951  0.3382  1.7019
   19SAPC   H3S 2455   6.173   4.062  10.232 -1.3755 -1.1667  0.4093
   19SAPC   C24 2456   6.059   4.014  10.072 -0.2026  0.1722 -0.6476
   19SAPC   H4R 2457   6.012   3.923  10.115  0.5211 -0.0534 -0.3250
   19SAPC   H4S 2458   6.062   3.984   9.965  0.3842  0.4823 -0.7193
   19SAPC   C25 2459   5.977   4.132  10.092  0.6528 -0.7687 -0.0205
   19SAPC   H5R 2460   5.930   4.130  10.192  1.0466  2.4934  0.3430
   19SAPC   C26 2461   5.959   4.244  10.018 -0.1692  0.2693  0.9287
   19SAPC   H6R 2462   5.910   4.329  10.069  1.9208  2.1348 -0.0181
   19SAPC   C27 2463   6.022   4.262   9.880 -0.6988 -0.2725 -0.1846
   19SAPC   H7R 2464   6.127   4.225   9.885  0.3401  1.8960 -3.0367
   19SAPC   H7S 2465   6.041   4.370   9.860  1.6224 -0.4000  0.9431
   19SAPC   C28 2466   5.945   4.202   9.771  0.3575  0.1271  0.4016
   19SAPC   H8R 2467   5.843   4.177   9.803 -0.7991  0.8039 -2.4274
   19SAPC   C29 2468   5.988   4.183   9.641 -0.0631 -0.1479 -1.0894
   19SAPC   H9R 2469   5.916   4.135   9.573 -0.3540  0.3996 -1.1699
   19SAPC  C210 2470   6.118   4.230   9.586  0.2151  0.3866  0.4509
   19SAPC  H10R 2471   6.141   4.154   9.508 -0.3295 -1.2221  1.8017
   19SAPC  H10S 2472   6.197   4.230   9.664 -1.3742 -1.7055  2.1620
   19SAPC  C211 2473   6.098   4.369   9.529  0.1598 -0.2540  0.6165
   19SAPC  H11R 2474   6.098   4.455   9.598 -1.6584  0.9559 -0.7962
   19SAPC  C212 2475   6.099   4.414   9.404 -0.1246  0.4843  0.1010
   19SAPC  H12R 2476   6.067   4.518   9.388 -0.5492  0.5025  0.9918
   19SAPC  C213 2477   6.122   4.334   9.275 -0.1962 -0.3560  0.0707
   19SAPC  H13R 2478   6.142   4.229   9.304 -0.6681 -1.0228 -1.9173
   19SAPC  H13S 2479   6.226   4.352   9.239 -0.6267 -0.0885 -1.0553
   19SAPC  C214 2480   6.012   4.347   9.175  0.3519  0.5799  0.1617
   19SAPC  H14R 2481   5.909   4.370   9.205  0.4134  2.3416 -0.8148
   19SAPC  C215 2482   6.023   4.325   9.044 -0.9266 -0.5224 -0.2890
   19SAPC  H15R 2483   5.931   4.337   8.985 -1.0755 -1.3317 -0.2360
   19SAPC  C216 2484   6.145   4.306   8.955  0.3281  0.1931 -0.0242
   19SAPC  H16R 2485   6.108   4.284   8.852 -0.0427 -0.7992  0.3006
   19SAPC  H16S 2486   6.211   4.230   9.002  2.5651  1.0379 -1.6449
   19SAPC  C217 2487   6.227   4.435   8.957 -0.4931 -0.7956 -0.4677
   19SAPC  H17R 2488   6.265   4.446   9.061 -2.6045 -2.1238  0.5216
   19SAPC  H17S 2489   6.149   4.511   8.935 -1.9573 -2.3282 -0.8098
   19SAPC  C218 2490   6.340   4.437   8.858 -0.9351 -0.9410  0.0610
   19SAPC  H18R 2491   6.397   4.525   8.893 -0.4176 -0.7932 -1.1181
   19SAPC  H18S 2492   6.312   4.464   8.754 -0.4146 -1.0088 -0.0963
   19SAPC  C219 2493   6.428   4.311   8.853 -0.7816 -0.9170 -0.1622
   19SAPC  H19R 2494   6.374   4.215   8.842 -1.9168 -0.3943  0.6997
   19SAPC  H19S 2495   6.481   4.299   8.950  1.9772  0.2478 -1.4248
   19SAPC  C220 2496   6.543   4.320   8.753  0.3024 -0.2723  0.0382
   19SAPC  H20R 2497   6.506   4.291   8.652  0.8458  1.3018 -0.6418
   19SAPC  H20S 2498   6.612   4.237   8.781 -0.3153 -0.5865  0.6623
   19SAPC  H20T 2499   6.594   4.418   8.756  0.4292 -0.3587  0.7707
   19SAPC   C33 2500   6.628   4.211  10.098 -0.3679 -0.1851 -0.6586
   19SAPC   H3X 2501   6.570   4.259  10.179 -2.7827  1.7534 -3.3102
   19SAPC   H3Y 2502   6.571   4.126  10.055  0.2455 -1.1346  0.3566
   19SAPC   C34 2503   6.655   4.319   9.995  0.0249 -0.5253 -0.1789
   19SAPC   H4X 2504   6.711   4.405  10.037  1.3698 -0.8731 -1.1762
   19SAPC   H4Y 2505   6.565   4.363   9.948 -1.3110  0.1839  2.7963
   19SAPC   C35 2506   6.742   4.254   9.883  0.4161  0.3200 -0.0417
   19SAPC   H5X 2507   6.690   4.157   9.869  1.7871 -0.3544 -0.5729
   19SAPC   H5Y 2508   6.847   4.229   9.910 -0.3578 -2.6518  0.6090
   19SAPC   C36 2509   6.732   4.327   9.758  0.2910 -0.2748  1.1089
   19SAPC   H6X 2510   6.762   4.433   9.771  0.8665 -0.4148  0.9471
   19SAPC   H6Y 2511   6.627   4.336   9.722  0.9035 -0.9858 -0.9979
   19SAPC   C37 2512   6.820   4.263   9.655 -0.5139  0.3349  0.3441
   19SAPC   H7X 2513   6.804   4.154   9.657 -1.7410  0.5142  1.2186
   19SAPC   H7Y 2514   6.926   4.274   9.688  0.2145 -1.4102 -1.2452
   19SAPC   C38 2515   6.812   4.336   9.525  0.2164 -0.3786  0.3811
   19SAPC   H8X 2516   6.851   4.439   9.534  0.7280 -0.5343 -0.0684
   19SAPC   H8Y 2517   6.706   4.338   9.492  0.3870 -0.5474 -0.1788
   19SAPC   C39 2518   6.889   4.274   9.412  0.7977  0.2150  0.9731
   19SAPC   H9X 2519   6.826   4.291   9.322  0.0885 -0.7667  1.2610
   19SAPC   H9Y 2520   6.896   4.165   9.431 -1.6070  0.1317  1.8344
   19SAPC  C310 2521   7.027   4.320   9.397  0.0621 -0.4543 -0.4459
   19SAPC  H10X 2522   7.084   4.283   9.485 -1.6083 -1.4505  0.2671
   19SAPC  H10Y 2523   7.039   4.431   9.390 -0.8986 -0.3595 -0.7676
   19SAPC  C311 2524   7.095   4.257   9.270  0.1586 -0.0993 -0.2801
   19SAPC  H11X 2525   7.074   4.148   9.259 -0.2708  0.0969 -1.4579
   19SAPC  H11Y 2526   7.201   4.265   9.300 -0.2277 -0.3250  1.2273
   19SAPC  C312 2527   7.058   4.322   9.144  0.6627 -0.0243  0.2472
   19SAPC  H12X 2528   7.076   4.431   9.158  1.2458  0.1242 -1.4419
   19SAPC  H12Y 2529   6.950   4.310   9.121  1.0342 -2.6047 -0.4572
   19SAPC  C313 2530   7.123   4.272   9.016 -0.3786  0.5022 -0.1036
   19SAPC  H13X 2531   7.101   4.167   8.989 -0.7703  0.7161 -0.6364
   19SAPC  H13Y 2532   7.233   4.276   9.032 -0.3168  3.8099 -0.5371
   19SAPC  C314 2533   7.092   4.357   8.888  0.0597  0.2552 -0.4472
   19SAPC  H14X 2534   7.137   4.457   8.908  3.5128 -0.8938 -1.6162
   19SAPC  H14Y 2535   6.985   4.369   8.864  0.0191 -0.8317 -0.8682
   19SAPC  C315 2536   7.163   4.292   8.760 -0.0520 -0.2419 -0.7266
   19SAPC  H15X 2537   7.096   4.215   8.718 -1.2227  0.2931  0.0892
   19SAPC  H15Y 2538   7.255   4.245   8.801 -0.9125 -0.8044  0.6417
   19SAPC  C316 2539   7.191   4.404   8.658  0.6536 -0.0870 -0.2099
   19SAPC  H16X 2540   7.246   4.490   8.702 -0.1324 -0.7790  2.2774
   19SAPC  H16Y 2541   7.089   4.443   8.638  0.5750  0.4508  1.1657
   19SAPC  C317 2542   7.241   4.349   8.520  0.3826 -0.7253  0.1691
   19SAPC  H17X 2543   7.177   4.264   8.488 -0.1784 -0.3519  0.2915
   19SAPC  H17Y 2544   7.344   4.313   8.540 -0.2256 -1.4228  2.2483
   19SAPC  C318 2545   7.252   4.464   8.418 -0.5347 -0.6746  0.4170
   19SAPC  H18X 2546   7.320   4.541   8.460  0.6360 -0.9795 -0.8575
   19SAPC  H18Y 2547   7.149   4.504   8.427 -0.5805 -0.9913  1.5307
   19SAPC  H18Z 2548   7.277   4.430   8.315  2.0721  0.1633  0.6904
   20SAPC     N 2549   5.356   4.748  11.243 -0.2022 -0.5205 -0.5694
   20SAPC   C12 2550   5.268   4.859  11.188  0.0466  0.4148  0.2738
   20SAPC  H12A 2551   5.251   4.932  11.266 -2.1016 -0.6893  0.9012
   20SAPC  H12B 2552   5.177   4.811  11.157  0.1631  0.2983  0.1108
   20SAPC   C13 2553   5.298   4.718  11.379 -0.0948  0.2148  0.1301
   20SAPC  H13A 2554   5.200   4.675  11.365  0.7703 -1.5439 -0.8188
   20SAPC  H13B 2555   5.364   4.646  11.426  1.0508  0.0984 -1.5666
   20SAPC  H13C 2556   5.282   4.800  11.448  0.9210 -1.5387  2.6370
   20SAPC   C14 2557   5.334   4.618  11.173 -0.0961 -0.1920 -0.1556
   20SAPC  H14A 2558   5.363   4.633  11.070  2.7830  3.4981  0.9895
   20SAPC  H14B 2559   5.403   4.547  11.216 -1.9377 -1.5884  0.6318
   20SAPC  H14C 2560   5.230   4.591  11.187 -0.8968  2.7247  0.0463
   20SAPC   C15 2561   5.499   4.794  11.250  0.2738 -0.1119  0.3941
   20SAPC  H15A 2562   5.511   4.850  11.341 -1.9573 -0.8185  1.1717
   20SAPC  H15B 2563   5.548   4.697  11.247  1.1025  0.3083 -0.4133
   20SAPC  H15C 2564   5.543   4.838  11.161  0.1987  2.4220  1.5436
   20SAPC   C11 2565   5.320   4.929  11.063 -0.2121 -0.3374 -0.8172
   20SAPC  H11A 2566   5.413   4.984  11.088 -0.9075 -0.5775  2.9873
   20SAPC  H11B 2567   5.243   5.000  11.025  0.6296  0.7865 -0.4799
   20SAPC     P 2568   5.235   4.800  10.843  0.3203 -0.0552  0.2321
   20SAPC   O13 2569   5.272   4.672  10.778 -0.2585  0.5205 -0.6184
   20SAPC   O14 2570   5.101   4.804  10.899 -1.0890 -0.1697 -0.3647
   20SAPC   O12 2571   5.347   4.832  10.962  0.6244 -0.3487 -0.4422
   20SAPC   O11 2572   5.250   4.911  10.734 -0.3011  0.7584  0.2516
   20SAPC    C1 2573   5.370   4.907  10.656  0.0179 -1.3923 -0.4679
   20SAPC    HA 2574   5.455   4.851  10.702  0.6667  0.4734  0.7000
   20SAPC    HB 2575   5.343   4.855  10.562 -2.2543 -1.8403  0.3660
   20SAPC    C2 2576   5.429   5.049  10.639 -0.6279 -0.5529  0.0947
   20SAPC    HS 2577   5.428   5.103  10.736 -0.5173  1.5835 -1.0372
   20SAPC   O21 2578   5.348   5.118  10.544  0.1216  0.2244  0.1946
   20SAPC   C21 2579   5.353   5.250  10.553  0.2032  0.3122  0.3707
   20SAPC   O22 2580   5.416   5.309  10.639 -1.2824 -0.3090 -0.0055
   20SAPC   C22 2581   5.265   5.307  10.444 -0.6334 -0.0281 -0.2873
   20SAPC   H2R 2582   5.304   5.260  10.351 -0.2232  1.4825 -0.9076
   20SAPC   H2S 2583   5.162   5.270  10.458 -2.5188  4.0733 -1.7077
   20SAPC    C3 2584   5.576   5.055  10.586  0.0680 -0.3809 -0.5420
   20SAPC    HX 2585   5.640   5.005  10.661  0.6771  1.4081  0.1852
   20SAPC    HY 2586   5.610   5.161  10.578  0.5163 -0.5361 -0.7022
   20SAPC   O31 2587   5.591   4.981  10.473  0.2096  0.5044  0.0129
   20SAPC   C31 2588   5.589   5.043  10.355 -0.3445 -0.2053  0.2366
   20SAPC   O32 2589   5.583   5.167  10.345  0.2963  0.2541 -0.1539
   20SAPC   C32 2590   5.598   4.949  10.238  0.0634 -0.5064 -0.1631
   20SAPC   H2X 2591   5.537   4.860  10.267 -1.1483 -0.1690 -1.5560
   20SAPC   H2Y 2592   5.699   4.903  10.241 -0.0802 -0.8151 -0.0291
   20SAPC   C23 2593   5.259   5.460  10.449 -0.3979 -0.2825  0.0840
   20SAPC   H3R 2594   5.360   5.504  10.456  0.4131 -2.1317  0.4630
   20SAPC   H3S 2595   5.225   5.498  10.548  0.2259  0.4324  0.0362
   20SAPC   C24 2596   5.175   5.525  10.333  0.1571 -0.1718 -0.8106
   20SAPC   H4R 2597   5.233   5.526  10.239  0.9893 -1.5820 -0.3379
   20SAPC   H4S 2598   5.161   5.628  10.372  1.2952 -0.1106 -0.5311
   20SAPC   C25 2599   5.043   5.459  10.310  0.5367 -0.0364 -0.4608
   20SAPC   H5R 2600   4.979   5.451  10.399  0.8454 -1.8960 -0.3755
   20SAPC   C26 2601   5.005   5.388  10.200 -0.1416  0.3894  0.0176
   20SAPC   H6R 2602   4.902   5.347  10.198 -0.4898  1.2364 -2.5080
   20SAPC   C27 2603   5.088   5.369  10.075  0.4293  0.3927  0.0475
   20SAPC   H7R 2604   5.187   5.326  10.103  0.4225 -1.6725 -2.6407
   20SAPC   H7S 2605   5.112   5.465  10.025  0.8180  0.9945  1.3616
   20SAPC   C28 2606   5.027   5.271   9.973  0.3561  0.1496  0.5665
   20SAPC   H8R 2607   4.960   5.192  10.011 -0.2104 -1.0163 -2.5788
   20SAPC   C29 2608   5.047   5.265   9.843 -0.0609 -0.1008  0.4955
   20SAPC   H9R 2609   4.986   5.206   9.773  1.0353 -0.0648 -0.5181
   20SAPC  C210 2610   5.148   5.349   9.767  0.3632  0.5095 -0.6343
   20SAPC  H10R 2611   5.202   5.416   9.837  1.2527 -0.2745 -0.5570
   20SAPC  H10S 2612   5.099   5.412   9.689  0.6959  1.2811 -0.2377
   20SAPC  C211 2613   5.243   5.253   9.704  0.2357  0.4375 -0.3661
   20SAPC  H11R 2614   5.319   5.207   9.768  0.9260  0.1369 -1.3652
   20SAPC  C212 2615   5.253   5.239   9.571  0.0864 -0.4184 -0.3139
   20SAPC  H12R 2616   5.330   5.171   9.533  2.1816  1.2037  0.8180
   20SAPC  C213 2617   5.164   5.303   9.470 -0.1340 -0.6494 -0.1585
   20SAPC  H13R 2618   5.191   5.410   9.457 -1.6572 -0.3787 -1.3262
   20SAPC  H13S 2619   5.061   5.301   9.511 -0.7975 -2.1896 -1.7921
   20SAPC  C214 2620   5.178   5.217   9.348 -0.1890 -0.5168 -0.2565
   20SAPC  H14R 2621   5.280   5.181   9.328 -0.7335 -2.9793  0.9629
   20SAPC  C215 2622   5.084   5.166   9.268 -0.1114 -0.3766 -0.3170
   20SAPC  H15R 2623   5.123   5.109   9.182 -1.0386 -0.6506 -0.5622
   20SAPC  C216 2624   4.938   5.192   9.275  0.5867 -0.2100 -0.3927
   20SAPC  H16R 2625   4.917   5.264   9.357  1.4842 -0.6061  0.2028
   20SAPC  H16S 2626   4.882   5.101   9.307 -0.1016  0.0128 -0.9437
   20SAPC  C217 2627   4.848   5.228   9.152 -0.5413 -0.1347  1.0694
   20SAPC  H17R 2628   4.914   5.301   9.101 -3.0520  0.3601 -1.6883
   20SAPC  H17S 2629   4.771   5.292   9.200 -1.5498  0.0637 -0.7429
   20SAPC  C218 2630   4.789   5.109   9.067  0.1055  0.1612 -0.0121
   20SAPC  H18R 2631   4.718   5.049   9.128  1.7846 -2.3261 -0.3590
   20SAPC  H18S 2632   4.875   5.041   9.048  1.3769  1.4888  0.7620
   20SAPC  C219 2633   4.728   5.171   8.945  0.6945 -0.2974 -0.9305
   20SAPC  H19R 2634   4.680   5.095   8.880 -0.5478  1.1384 -1.7653
   20SAPC  H19S 2635   4.811   5.222   8.890  1.7251 -0.2871  0.5915
   20SAPC  C220 2636   4.614   5.269   8.985  0.7632  0.5172 -0.0167
   20SAPC  H20R 2637   4.556   5.309   8.898 -0.4421 -0.9521  0.0654
   20SAPC  H20S 2638   4.657   5.360   9.032  1.5383  0.0220  0.2431
   20SAPC  H20T 2639   4.533   5.220   9.043  2.4972 -1.1336  1.1224
   20SAPC   C33 2640   5.556   5.023  10.102 -0.9502 -0.1083 -0.4801
   20SAPC   H3X 2641   5.455   5.068  10.112 -0.2076  1.3791  0.7994
   20SAPC   H3Y 2642   5.541   4.939  10.031  0.5584 -0.0905 -0.8670
   20SAPC   C34 2643   5.658   5.111  10.034  0.0054  0.0346 -0.4206
   20SAPC   H4X 2644   5.756   5.057  10.031 -1.3007 -2.4531 -1.0821
   20SAPC   H4Y 2645   5.671   5.195  10.105  2.6440  1.1596 -2.0831
   20SAPC   C35 2646   5.625   5.164   9.899 -0.5336 -0.1123 -0.0777
   20SAPC   H5X 2647   5.689   5.249   9.868  0.4681 -1.4595 -1.9557
   20SAPC   H5Y 2648   5.529   5.218   9.898 -0.2038  0.5273  0.9049
   20SAPC   C36 2649   5.635   5.056   9.788 -0.6282 -0.5036  0.8065
   20SAPC   H6X 2650   5.561   4.973   9.798 -1.2638  0.0984  1.2332
   20SAPC   H6Y 2651   5.733   5.006   9.803 -1.0647 -1.2767  1.1602
   20SAPC   C37 2652   5.628   5.118   9.648 -0.5572 -0.1698 -0.0039
   20SAPC   H7X 2653   5.701   5.199   9.631  0.6833 -0.6602  2.6229
   20SAPC   H7Y 2654   5.527   5.164   9.635  0.6736  1.8157 -4.5520
   20SAPC   C38 2655   5.648   5.018   9.536  1.0112  0.2673  0.2093
   20SAPC   H8X 2656   5.572   4.938   9.546  2.7045 -1.2033  2.2879
   20SAPC   H8Y 2657   5.738   4.953   9.542 -0.0423 -1.3572 -0.8107
   20SAPC   C39 2658   5.632   5.079   9.396  0.2050 -0.9489 -0.7838
   20SAPC   H9X 2659   5.717   5.146   9.372 -1.6036  1.3934 -1.0330
   20SAPC   H9Y 2660   5.541   5.143   9.398 -1.3438 -2.8318 -3.5715
   20SAPC  C310 2661   5.622   4.983   9.283  0.5656  0.0055 -0.6416
   20SAPC  H10X 2662   5.599   4.882   9.324 -1.2461  0.9845  0.9303
   20SAPC  H10Y 2663   5.727   4.971   9.249  0.9303 -1.5388  0.8388
   20SAPC  C311 2664   5.519   5.017   9.176 -0.0639  0.3961  0.0867
   20SAPC  H11X 2665   5.417   5.019   9.219  0.0932 -1.0657  0.6085
   20SAPC  H11Y 2666   5.524   4.937   9.098 -0.0891  0.7532 -0.2868
   20SAPC  C312 2667   5.559   5.158   9.107  0.7232 -0.0275  0.0590
   20SAPC  H12X 2668   5.580   5.236   9.183  0.7467  0.8921 -0.8746
   20SAPC  H12Y 2669   5.463   5.189   9.059 -1.7521  0.3273  4.6555
   20SAPC  C313 2670   5.653   5.137   8.999 -0.3116 -0.3069  0.3378
   20SAPC  H13X 2671   5.643   5.034   8.959  0.8067 -1.6347  3.2406
   20SAPC  H13Y 2672   5.754   5.131   9.045  0.2864  1.1828 -0.6807
   20SAPC  C314 2673   5.658   5.248   8.895 -0.4709 -0.5144  0.0340
   20SAPC  H14X 2674   5.658   5.351   8.935 -0.1393 -0.2882 -0.5288
   20SAPC  H14Y 2675   5.564   5.236   8.838 -0.5807  1.5343 -0.2848
   20SAPC  C315 2676   5.791   5.236   8.813  0.1966  0.5848  0.1957
   20SAPC  H15X 2677   5.808   5.127   8.798 -3.4948 -0.0258 -0.5245
   20SAPC  H15Y 2678   5.873   5.276   8.876  1.5239  2.9317 -2.7756
   20SAPC  C316 2679   5.796   5.302   8.680  0.0132  0.3112  0.3690
   20SAPC  H16X 2680   5.903   5.320   8.658  0.2045 -0.2414  0.8213
   20SAPC  H16Y 2681   5.752   5.404   8.681 -1.2226 -0.1333 -1.6346
   20SAPC  C317 2682   5.728   5.221   8.567  0.1945 -0.2884 -0.1330
   20SAPC  H17X 2683   5.716   5.297   8.487  3.1361  0.1146 -0.3123
   20SAPC  H17Y 2684   5.627   5.185   8.597  0.3046 -0.1309  0.4362
   20SAPC  C318 2685   5.808   5.103   8.510 -0.3247 -0.3758  0.2930
   20SAPC  H18X 2686   5.867   5.049   8.588 -0.3069 -2.2862 -0.9597
   20SAPC  H18Y 2687   5.896   5.141   8.453 -0.1674 -0.9403  0.1465
   20SAPC  H18Z 2688   5.753   5.032   8.444  1.3008  0.3947 -2.0418
   21SAPC     N 2689   2.271   3.003  10.737 -0.2748 -0.3168  0.3674
   21SAPC   C12 2690   2.140   2.985  10.663 -0.2937  0.1951  0.5567
   21SAPC  H12A 2691   2.123   2.885  10.624  1.4965  0.1775 -0.2975
   21SAPC  H12B 2692   2.142   3.054  10.579 -0.6196  0.1989  0.5508
   21SAPC   C13 2693   2.393   2.989  10.646 -0.2774  0.2926 -0.0573
   21SAPC  H13A 2694   2.482   2.980  10.707 -0.4211 -0.7158  0.0166
   21SAPC  H13B 2695   2.375   2.900  10.588  0.1126 -0.1560  0.4974
   21SAPC  H13C 2696   2.402   3.079  10.586 -1.2506  2.3249  2.6514
   21SAPC   C14 2697   2.282   3.133  10.810  0.2380  0.3875  0.2772
   21SAPC  H14A 2698   2.368   3.131  10.875  0.4920  3.3453  0.1775
   21SAPC  H14B 2699   2.295   3.220  10.746 -0.1513 -0.3735 -0.8699
   21SAPC  H14C 2700   2.206   3.136  10.885  0.7523 -2.3308  0.9804
   21SAPC   C15 2701   2.280   2.895  10.836  0.1218  0.3273 -0.1283
   21SAPC  H15A 2702   2.192   2.884  10.898  0.9242  0.6435  1.1151
   21SAPC  H15B 2703   2.290   2.796  10.793  0.0713 -0.6282  1.8972
   21SAPC  H15C 2704   2.359   2.916  10.907  0.2389 -0.2290 -0.0857
   21SAPC   C11 2705   2.015   3.025  10.739  0.3690 -0.2892  0.3038
   21SAPC  H11A 2706   2.010   2.965  10.833 -0.9252 -1.2971 -0.3576
   21SAPC  H11B 2707   1.923   2.992  10.685 -0.3568  1.3038  0.5262
   21SAPC     P 2708   1.960   3.269  10.642 -0.3109  0.1086 -0.0602
   21SAPC   O13 2709   1.823   3.311  10.657 -0.2642 -0.1693 -0.4716
   21SAPC   O14 2710   2.061   3.376  10.646 -0.0305  0.6943 -0.6217
   21SAPC   O12 2711   2.006   3.166  10.762 -0.0185  0.1531 -0.0997
   21SAPC   O11 2712   1.985   3.168  10.518  0.6328 -0.2339 -0.8798
   21SAPC    C1 2713   1.946   3.214  10.386  0.6938 -0.3747 -0.1465
   21SAPC    HA 2714   1.968   3.323  10.382 -0.5004 -0.0551  1.0506
   21SAPC    HB 2715   2.005   3.168  10.305  0.6547 -0.7243  0.0215
   21SAPC    C2 2716   1.794   3.227  10.353 -0.0892 -0.0208  0.4071
   21SAPC    HS 2717   1.727   3.239  10.441 -1.0792 -1.8723 -0.0471
   21SAPC   O21 2718   1.767   3.097  10.301 -0.1641 -0.2709 -0.1168
   21SAPC   C21 2719   1.645   3.048  10.333  0.1709 -0.0420 -1.0569
   21SAPC   O22 2720   1.562   3.109  10.401  0.6714  0.0391  0.3807
   21SAPC   C22 2721   1.621   2.920  10.261  0.0774  0.4717 -0.2684
   21SAPC   H2R 2722   1.627   2.933  10.151 -2.1466  0.0563 -0.4812
   21SAPC   H2S 2723   1.696   2.843  10.291  1.5760  1.5998 -0.9462
   21SAPC    C3 2724   1.755   3.341  10.261  0.0517 -0.3644  0.4619
   21SAPC    HX 2725   1.793   3.435  10.307  0.9924  2.5285 -5.3235
   21SAPC    HY 2726   1.645   3.334  10.250  0.2668 -2.5595 -0.8218
   21SAPC   O31 2727   1.813   3.312  10.133  0.0147 -0.6940 -0.1316
   21SAPC   C31 2728   1.841   3.421  10.068 -0.2127 -0.8641  0.2273
   21SAPC   O32 2729   1.848   3.539  10.111  0.4351  0.0630  0.0288
   21SAPC   C32 2730   1.876   3.377   9.926 -0.3015 -0.0475 -0.5956
   21SAPC   H2X 2731   1.805   3.304   9.880  0.9824 -1.4220 -0.4989
   21SAPC   H2Y 2732   1.979   3.338   9.939 -0.2952 -0.3678 -1.5398
   21SAPC   C23 2733   1.475   2.870  10.265  0.0688 -0.0939  0.6744
   21SAPC   H3R 2734   1.411   2.958  10.246  2.4753  1.2790 -1.6732
   21SAPC   H3S 2735   1.450   2.832  10.367 -0.9492  0.4780  0.6506
   21SAPC   C24 2736   1.449   2.766  10.159  0.4175 -0.6629  0.2807
   21SAPC   H4R 2737   1.458   2.816  10.060 -1.8267  1.5391  1.0772
   21SAPC   H4S 2738   1.350   2.715  10.164  0.5512 -0.8270  1.4294
   21SAPC   C25 2739   1.551   2.657  10.152 -0.3898 -0.0233  0.5582
   21SAPC   H5R 2740   1.578   2.621  10.252 -1.7611 -0.3507  0.8337
   21SAPC   C26 2741   1.612   2.618  10.036  0.5152 -0.5787 -1.0183
   21SAPC   H6R 2742   1.694   2.545  10.043  0.5563 -0.5466 -1.1686
   21SAPC   C27 2743   1.589   2.658   9.898 -0.3341  0.2958 -0.2542
   21SAPC   H7R 2744   1.573   2.768   9.899 -2.3275  0.0580  2.0299
   21SAPC   H7S 2745   1.494   2.609   9.867  0.2407  0.9719 -3.3904
   21SAPC   C28 2746   1.701   2.631   9.802  0.6790 -0.1025  0.4622
   21SAPC   H8R 2747   1.802   2.633   9.846  0.6185  3.6397  0.7507
   21SAPC   C29 2748   1.699   2.601   9.671 -0.7820 -0.3024 -0.6622
   21SAPC   H9R 2749   1.797   2.589   9.622  1.4424  3.8766  2.1218
   21SAPC  C210 2750   1.580   2.592   9.577  0.3405 -0.2382  0.7811
   21SAPC  H10R 2751   1.537   2.490   9.578 -0.4185 -0.0188 -1.9408
   21SAPC  H10S 2752   1.616   2.606   9.473 -2.7215 -0.4971 -0.4097
   21SAPC  C211 2753   1.455   2.680   9.591  0.1968 -0.2497 -0.0217
   21SAPC  H11R 2754   1.377   2.637   9.655 -0.1364  1.1277  0.5321
   21SAPC  C212 2755   1.448   2.808   9.555  0.6507  0.0150 -0.5182
   21SAPC  H12R 2756   1.359   2.869   9.572  0.8143  0.1095 -0.0015
   21SAPC  C213 2757   1.559   2.885   9.485 -0.8450 -0.0338 -0.6573
   21SAPC  H13R 2758   1.650   2.828   9.455 -0.9745 -0.5676 -0.0693
   21SAPC  H13S 2759   1.588   2.958   9.564  2.0119 -0.5957 -1.0706
   21SAPC  C214 2760   1.516   2.969   9.369 -0.5171 -0.6820 -0.1449
   21SAPC  H14R 2761   1.463   3.060   9.400 -1.7138 -1.1189 -0.8359
   21SAPC  C215 2762   1.520   2.939   9.238  0.6275  0.3221  0.3229
   21SAPC  H15R 2763   1.475   3.008   9.165  2.7367  2.5205  0.9536
   21SAPC  C216 2764   1.581   2.819   9.169  0.3594  0.2232  0.0000
   21SAPC  H16R 2765   1.627   2.740   9.232 -1.3515 -0.2983  0.6668
   21SAPC  H16S 2766   1.665   2.847   9.103  0.2497 -1.0327 -0.7022
   21SAPC  C217 2767   1.483   2.738   9.087 -0.2980 -0.3201  0.0679
   21SAPC  H17R 2768   1.392   2.712   9.145 -2.0931  0.9605 -2.0542
   21SAPC  H17S 2769   1.533   2.645   9.050 -0.6116 -0.6747  0.5220
   21SAPC  C218 2770   1.423   2.817   8.968 -0.6355  0.2907  0.6991
   21SAPC  H18R 2771   1.370   2.901   9.016  2.0784  0.9629  2.7334
   21SAPC  H18S 2772   1.341   2.762   8.917 -0.1087  1.3477 -1.4065
   21SAPC  C219 2773   1.524   2.870   8.870  0.0303 -1.1551  0.2348
   21SAPC  H19R 2774   1.581   2.786   8.826  0.6773 -1.3168  1.3502
   21SAPC  H19S 2775   1.599   2.940   8.912 -2.1682  1.4902  0.0330
   21SAPC  C220 2776   1.462   2.947   8.752  0.1845 -0.0166  0.6793
   21SAPC  H20R 2777   1.389   3.026   8.782  0.8524  0.4286  1.1636
   21SAPC  H20S 2778   1.402   2.874   8.693  1.0746  0.4325 -0.8414
   21SAPC  H20T 2779   1.526   3.006   8.683  0.6093 -0.9637  0.2498
   21SAPC   C33 2780   1.912   3.491   9.827  0.9076  0.0617 -0.8388
   21SAPC   H3X 2781   1.987   3.552   9.882 -2.1794 -1.3461  6.0345
   21SAPC   H3Y 2782   1.824   3.558   9.814  1.0041  0.4185  0.2257
   21SAPC   C34 2783   1.962   3.451   9.694  0.5262 -0.1174 -0.2787
   21SAPC   H4X 2784   2.050   3.384   9.705 -0.1470 -1.0160 -0.2071
   21SAPC   H4Y 2785   1.994   3.543   9.641 -0.4949  0.1904 -0.3874
   21SAPC   C35 2786   1.861   3.383   9.602  0.3673  0.3651  0.3181
   21SAPC   H5X 2787   1.772   3.446   9.578 -0.2111  0.4334  2.4274
   21SAPC   H5Y 2788   1.824   3.294   9.657 -1.3234  0.6674 -0.2486
   21SAPC   C36 2789   1.924   3.337   9.471  0.0417  0.1339  0.7781
   21SAPC   H6X 2790   2.015   3.275   9.481 -1.1688 -1.4215  3.0135
   21SAPC   H6Y 2791   1.936   3.421   9.399 -1.2028 -0.8021 -0.5940
   21SAPC   C37 2792   1.830   3.248   9.384  0.3713 -0.4043  0.0767
   21SAPC   H7X 2793   1.735   3.303   9.366  0.5687 -0.0747  0.0253
   21SAPC   H7Y 2794   1.816   3.156   9.445  0.5390  0.4663  1.4830
   21SAPC   C38 2795   1.901   3.220   9.252 -0.7596 -0.5523 -0.1539
   21SAPC   H8X 2796   2.011   3.203   9.253 -0.6550 -0.0417 -1.5957
   21SAPC   H8Y 2797   1.892   3.315   9.196 -1.4863 -2.0266 -2.6854
   21SAPC   C39 2798   1.830   3.112   9.176 -0.0839  0.5924  0.1038
   21SAPC   H9X 2799   1.724   3.141   9.159 -0.5620  0.0297  1.9054
   21SAPC   H9Y 2800   1.841   3.017   9.233 -0.6628  0.1081 -0.5652
   21SAPC  C310 2801   1.895   3.080   9.034 -0.4620  0.3752  0.1877
   21SAPC  H10X 2802   1.840   2.992   8.995 -2.2263  1.0767  0.9367
   21SAPC  H10Y 2803   2.001   3.056   9.057  0.7656  2.2953 -2.8565
   21SAPC  C311 2804   1.862   3.194   8.942 -0.3757  0.0418  0.6554
   21SAPC  H11X 2805   1.883   3.290   8.994 -1.3752 -0.4550  2.0216
   21SAPC  H11Y 2806   1.757   3.193   8.907 -0.4506  1.0336  0.8341
   21SAPC  C312 2807   1.948   3.188   8.811  0.0368 -0.4892  0.0341
   21SAPC  H12X 2808   1.955   3.084   8.774 -0.4577 -0.5867  0.2000
   21SAPC  H12Y 2809   2.048   3.227   8.839 -0.7919  1.5400  0.3399
   21SAPC  C313 2810   1.906   3.295   8.715  0.5180 -0.2100  0.1947
   21SAPC  H13X 2811   1.900   3.385   8.780  0.0737 -0.2743  0.2431
   21SAPC  H13Y 2812   1.800   3.288   8.683  0.7344 -1.0112 -0.3852
   21SAPC  C314 2813   1.998   3.317   8.597 -0.1314 -0.3895  0.6463
   21SAPC  H14X 2814   2.002   3.222   8.540  2.4226 -2.0278  3.2598
   21SAPC  H14Y 2815   2.095   3.325   8.652  0.2867 -0.2607 -0.1023
   21SAPC  C315 2816   1.984   3.437   8.494 -0.5640  0.1662 -0.2877
   21SAPC  H15X 2817   1.897   3.419   8.428  0.8600 -1.9441 -1.7510
   21SAPC  H15Y 2818   2.078   3.424   8.435  0.0097 -0.6014  0.7629
   21SAPC  C316 2819   1.975   3.580   8.551  0.0241  0.3459 -0.3444
   21SAPC  H16X 2820   2.076   3.601   8.591  0.0848 -1.4707  0.5443
   21SAPC  H16Y 2821   1.910   3.586   8.640 -0.8382  2.3808 -1.0397
   21SAPC  C317 2822   1.927   3.685   8.454 -0.1019 -0.6781  0.1287
   21SAPC  H17X 2823   1.975   3.696   8.354 -1.6171  1.9327 -0.3887
   21SAPC  H17Y 2824   1.948   3.787   8.492  1.9449 -1.2096  0.5493
   21SAPC  C318 2825   1.779   3.664   8.415  0.0823 -0.6432  0.4156
   21SAPC  H18X 2826   1.705   3.673   8.497 -1.3243  2.1523 -1.0565
   21SAPC  H18Y 2827   1.772   3.559   8.378 -2.1283 -1.5108  3.0048
   21SAPC  H18Z 2828   1.750   3.731   8.332  0.2061 -1.1784 -0.0702
   22SAPC     N 2829   5.490   4.019  10.685 -1.1092 -0.5467  0.0823
   22SAPC   C12 2830   5.569   4.130  10.607 -0.2619 -0.1082 -0.3148
   22SAPC  H12A 2831   5.580   4.089  10.508 -0.6842  0.1272 -0.4620
   22SAPC  H12B 2832   5.664   4.131  10.659 -1.2657 -0.0981  1.6178
   22SAPC   C13 2833   5.557   3.885  10.681 -0.3286  0.0403  0.0690
   22SAPC  H13A 2834   5.489   3.813  10.724  1.8774 -2.7549 -0.8085
   22SAPC  H13B 2835   5.580   3.864  10.577 -1.1239  0.4130 -0.1977
   22SAPC  H13C 2836   5.646   3.867  10.739 -0.8877  0.0422  0.9364
   22SAPC   C14 2837   5.475   4.053  10.831 -0.2585 -0.7167  0.2205
   22SAPC  H14A 2838   5.575   4.049  10.871 -0.1237 -0.9349 -0.1368
   22SAPC  H14B 2839   5.422   4.145  10.848 -0.2062 -0.5951 -0.2537
   22SAPC  H14C 2840   5.406   3.983  10.876 -0.8144  0.5385  1.3964
   22SAPC   C15 2841   5.356   4.011  10.624 -0.1067  0.1523 -0.2691
   22SAPC  H15A 2842   5.293   3.948  10.685  0.4195  1.6378  1.9620
   22SAPC  H15B 2843   5.318   4.107  10.589  1.1080 -0.1301 -2.5355
   22SAPC  H15C 2844   5.364   3.956  10.532  0.0714 -1.9391  0.9281
   22SAPC   C11 2845   5.522   4.280  10.609 -0.0886  0.1045  0.4785
   22SAPC  H11A 2846   5.416   4.288  10.576 -0.4964 -2.8150  0.8291
   22SAPC  H11B 2847   5.587   4.325  10.531 -0.4325 -4.5445 -2.9721
   22SAPC     P 2848   5.681   4.395  10.788  0.0351 -0.3312  0.3260
   22SAPC   O13 2849   5.659   4.481  10.906  0.5069  0.0041  0.0109
   22SAPC   O14 2850   5.769   4.279  10.806  0.1864 -0.1634 -0.5740
   22SAPC   O12 2851   5.547   4.336  10.735 -0.5304  0.2760  0.2499
   22SAPC   O11 2852   5.742   4.487  10.671  0.1603  0.3959 -0.0694
   22SAPC    C1 2853   5.676   4.607  10.628  0.1403  0.3024  0.1197
   22SAPC    HA 2854   5.565   4.598  10.632  0.1482  0.4833  1.1815
   22SAPC    HB 2855   5.698   4.692  10.696  2.8050 -1.4302  1.6040
   22SAPC    C2 2856   5.725   4.644  10.479 -1.6513 -0.3725 -1.0599
   22SAPC    HS 2857   5.696   4.748  10.453 -1.2646  0.7938  2.6307
   22SAPC   O21 2858   5.679   4.541  10.389 -0.3750 -0.0724  0.6367
   22SAPC   C21 2859   5.545   4.539  10.364  0.5651  0.1974  0.8621
   22SAPC   O22 2860   5.463   4.621  10.403 -0.1524 -0.3167 -0.0901
   22SAPC   C22 2861   5.516   4.422  10.269 -0.0974  0.7109  0.2693
   22SAPC   H2R 2862   5.563   4.332  10.314 -0.0220  0.2091 -0.7889
   22SAPC   H2S 2863   5.408   4.409  10.249 -0.1285  0.0864  0.8194
   22SAPC    C3 2864   5.882   4.646  10.472 -0.2288  0.2676  0.1533
   22SAPC    HX 2865   5.918   4.541  10.471 -0.5164  0.1627  0.5897
   22SAPC    HY 2866   5.920   4.704  10.559 -1.1212  2.4671 -0.8497
   22SAPC   O31 2867   5.925   4.713  10.350  0.4315 -0.1306 -0.4806
   22SAPC   C31 2868   5.978   4.638  10.249  0.5359 -0.8422  0.2350
   22SAPC   O32 2869   5.994   4.520  10.244 -0.1818 -0.6592  0.2880
   22SAPC   C32 2870   6.014   4.732  10.125  0.1968 -0.4343 -0.0909
   22SAPC   H2X 2871   6.114   4.706  10.086  0.9412  0.5548  1.0693
   22SAPC   H2Y 2872   6.041   4.833  10.163  1.0617 -1.1798  1.3772
   22SAPC   C23 2873   5.595   4.432  10.137 -0.0798  0.6039  0.1663
   22SAPC   H3R 2874   5.604   4.331  10.091  3.1930  0.1613  1.4661
   22SAPC   H3S 2875   5.703   4.441  10.161 -0.0707  1.3225 -0.1341
   22SAPC   C24 2876   5.528   4.537  10.045 -0.1387 -1.1008 -0.4668
   22SAPC   H4R 2877   5.614   4.589   9.998  2.3583 -1.0071  3.6617
   22SAPC   H4S 2878   5.489   4.610  10.118 -0.2327 -1.5319 -0.0792
   22SAPC   C25 2879   5.428   4.481   9.945 -0.2159  0.0644  0.1698
   22SAPC   H5R 2880   5.334   4.441   9.986 -0.3233  0.2224  0.0813
   22SAPC   C26 2881   5.418   4.500   9.809 -0.2873 -0.1579 -0.1425
   22SAPC   H6R 2882   5.328   4.467   9.755 -0.2539  0.4197 -0.5723
   22SAPC   C27 2883   5.520   4.567   9.722  0.1514  0.3347  0.2705
   22SAPC   H7R 2884   5.563   4.651   9.781 -2.9988  2.1647  0.1741
   22SAPC   H7S 2885   5.461   4.611   9.639  0.9764  0.0440 -0.4905
   22SAPC   C28 2886   5.630   4.473   9.670  0.6140 -0.1829 -0.5035
   22SAPC   H8R 2887   5.691   4.414   9.739 -1.8995 -3.6295 -0.9873
   22SAPC   C29 2888   5.665   4.470   9.539 -0.0182  0.7545  0.1185
   22SAPC   H9R 2889   5.744   4.396   9.520 -1.9534 -1.1325 -1.2119
   22SAPC  C210 2890   5.611   4.550   9.420 -0.1666  0.3087  0.2834
   22SAPC  H10R 2891   5.527   4.614   9.454 -2.0200 -1.7632 -0.2150
   22SAPC  H10S 2892   5.567   4.483   9.344 -1.8600  1.9720 -0.2854
   22SAPC  C211 2893   5.719   4.647   9.372  0.2709 -0.0275 -0.0076
   22SAPC  H11R 2894   5.761   4.709   9.453  0.1333  0.4812 -0.3232
   22SAPC  C212 2895   5.757   4.669   9.247  0.1496 -0.9192 -0.2129
   22SAPC  H12R 2896   5.842   4.739   9.242 -0.4541  0.0497  1.9367
   22SAPC  C213 2897   5.698   4.604   9.123  0.1791  0.0377  0.5625
   22SAPC  H13R 2898   5.603   4.557   9.155  0.7270 -0.7392  1.0815
   22SAPC  H13S 2899   5.761   4.516   9.097 -0.9112 -0.5496 -0.1922
   22SAPC  C214 2900   5.687   4.711   9.014  0.4387  0.2652  0.7047
   22SAPC  H14R 2901   5.601   4.777   9.033  0.1876 -0.5952  2.7700
   22SAPC  C215 2902   5.771   4.742   8.910  0.3260  0.4972 -0.3217
   22SAPC  H15R 2903   5.771   4.840   8.860  1.1585  1.8262  2.1226
   22SAPC  C216 2904   5.901   4.670   8.887  0.3603  0.0286  0.1194
   22SAPC  H16R 2905   5.907   4.565   8.923  1.4104 -0.1415 -0.5105
   22SAPC  H16S 2906   5.974   4.736   8.939 -0.8840  2.0660 -0.5932
   22SAPC  C217 2907   5.932   4.660   8.737 -0.1227 -0.4024 -0.1019
   22SAPC  H17R 2908   5.845   4.614   8.685 -1.3626  2.0955 -0.4002
   22SAPC  H17S 2909   6.020   4.593   8.728  0.8725  1.1429 -3.0207
   22SAPC  C218 2910   5.983   4.800   8.683 -0.0720 -0.0546 -0.7247
   22SAPC  H18R 2911   6.011   4.867   8.766 -1.9492 -1.1217  0.8541
   22SAPC  H18S 2912   5.893   4.844   8.634 -0.5803 -0.1130  0.1453
   22SAPC  C219 2913   6.097   4.782   8.583 -0.7032  0.4437  0.5327
   22SAPC  H19R 2914   6.184   4.762   8.649  0.9825  2.4808 -0.9257
   22SAPC  H19S 2915   6.122   4.875   8.529  0.5260 -1.3541 -2.1970
   22SAPC  C220 2916   6.075   4.677   8.469  0.1971  0.2666 -0.2729
   22SAPC  H20R 2917   5.973   4.700   8.434  0.2276  2.7639  1.0732
   22SAPC  H20S 2918   6.070   4.573   8.510  1.4656 -0.2989 -1.4569
   22SAPC  H20T 2919   6.147   4.694   8.386 -0.0167  0.8145 -0.3459
   22SAPC   C33 2920   5.891   4.762  10.044 -0.8201  0.0122  1.1930
   22SAPC   H3X 2921   5.925   4.853   9.990  0.8214  0.1576  2.3794
   22SAPC   H3Y 2922   5.806   4.780  10.113 -0.0471  0.3475  2.0925
   22SAPC   C34 2923   5.852   4.660   9.926 -0.0214 -0.3573 -0.3045
   22SAPC   H4X 2924   5.764   4.700   9.872 -0.5799 -1.5329 -0.2889
   22SAPC   H4Y 2925   5.833   4.568   9.985  1.0225 -1.0284 -0.9856
   22SAPC   C35 2926   5.953   4.631   9.814  0.0638  0.3357  0.5687
   22SAPC   H5X 2927   5.894   4.582   9.735  0.5783 -0.5702  0.7397
   22SAPC   H5Y 2928   6.046   4.575   9.838 -0.0238  0.5779  1.5502
   22SAPC   C36 2929   5.998   4.762   9.747  1.6680  0.7818  0.0755
   22SAPC   H6X 2930   6.061   4.817   9.821  1.5678 -0.4611  1.1164
   22SAPC   H6Y 2931   5.907   4.825   9.745  1.7066  0.8518  0.4423
   22SAPC   C37 2932   6.069   4.737   9.613 -0.4578 -0.7530 -1.1747
   22SAPC   H7X 2933   6.000   4.697   9.535 -1.4184  0.6437 -1.0783
   22SAPC   H7Y 2934   6.153   4.667   9.633 -1.0908 -1.7107 -1.7904
   22SAPC   C38 2935   6.119   4.876   9.555 -0.2968  0.2293  0.2002
   22SAPC   H8X 2936   6.180   4.933   9.627  0.6416 -0.0584 -0.3485
   22SAPC   H8Y 2937   6.028   4.937   9.535  0.7541  1.7019 -0.2132
   22SAPC   C39 2938   6.201   4.869   9.424 -0.0306  0.2687  0.0027
   22SAPC   H9X 2939   6.282   4.793   9.437  1.1615  1.6686  1.1247
   22SAPC   H9Y 2940   6.246   4.970   9.414 -0.5194  0.5888  0.9704
   22SAPC  C310 2941   6.105   4.841   9.309 -0.3464 -0.5000  0.0625
   22SAPC  H10X 2942   6.014   4.902   9.329  1.0405  2.2154 -1.3992
   22SAPC  H10Y 2943   6.085   4.732   9.302  1.7077 -0.8419 -1.2479
   22SAPC  C311 2944   6.163   4.897   9.174  0.1917  0.6346 -0.2639
   22SAPC  H11X 2945   6.177   5.007   9.167 -1.2043  0.9907  1.8512
   22SAPC  H11Y 2946   6.082   4.885   9.098  1.8166 -1.9027 -1.7413
   22SAPC  C312 2947   6.280   4.817   9.125 -0.0628 -0.0748 -0.5658
   22SAPC  H12X 2948   6.259   4.717   9.168 -0.5696  0.3542  0.2231
   22SAPC  H12Y 2949   6.371   4.843   9.183 -0.4878 -1.4071  0.7862
   22SAPC  C313 2950   6.293   4.804   8.973 -0.2747 -0.0541 -0.1877
   22SAPC  H13X 2951   6.208   4.744   8.936 -0.5244  0.1628  0.0346
   22SAPC  H13Y 2952   6.392   4.762   8.945 -1.5682 -1.8230 -2.4629
   22SAPC  C314 2953   6.284   4.947   8.896  0.6837  0.5767  0.3023
   22SAPC  H14X 2954   6.179   4.980   8.912  0.1222 -0.7450 -0.4914
   22SAPC  H14Y 2955   6.296   4.918   8.789  1.6068  0.6734  0.3744
   22SAPC  C315 2956   6.385   5.053   8.925 -0.3251  0.4034 -0.9941
   22SAPC  H15X 2957   6.488   5.011   8.929 -1.0929 -1.4380  0.7726
   22SAPC  H15Y 2958   6.359   5.114   9.015  0.9682  0.6059 -0.7309
   22SAPC  C316 2959   6.389   5.158   8.809 -0.1573  0.3541 -0.0327
   22SAPC  H16X 2960   6.447   5.247   8.841 -0.4157  0.1868  0.9248
   22SAPC  H16Y 2961   6.287   5.192   8.784 -1.1689 -0.9568  2.0255
   22SAPC  C317 2962   6.467   5.117   8.683  0.7936  0.0943  0.0492
   22SAPC  H17X 2963   6.412   5.041   8.624 -1.4784  2.5283 -1.1554
   22SAPC  H17Y 2964   6.565   5.070   8.710  1.6632  1.8625  0.1081
   22SAPC  C318 2965   6.504   5.237   8.596 -0.2875 -0.6683 -0.0952
   22SAPC  H18X 2966   6.410   5.281   8.556 -0.3245 -0.6210  0.0426
   22SAPC  H18Y 2967   6.576   5.222   8.513  0.3849 -2.7709  0.7962
   22SAPC  H18Z 2968   6.556   5.309   8.663 -0.7597  0.5522 -1.0052
   23SAPC     N 2969   0.958   3.811  10.719  0.5998  0.3864  1.2280
   23SAPC   C12 2970   1.026   3.855  10.587 -0.0146  0.6620 -0.5748
   23SAPC  H12A 2971   0.949   3.871  10.513 -1.6209  0.3177  0.9416
   23SAPC  H12B 2972   1.074   3.771  10.540  1.2613  0.2539  1.3526
   23SAPC   C13 2973   1.064   3.785  10.816 -0.3200 -0.1288 -1.1017
   23SAPC  H13A 2974   1.030   3.777  10.919 -1.6566 -0.4237 -1.5434
   23SAPC  H13B 2975   1.107   3.689  10.790  0.1436  0.0133 -0.8664
   23SAPC  H13C 2976   1.138   3.863  10.810 -0.2832 -0.0498  0.1353
   23SAPC   C14 2977   0.865   3.917  10.769  0.5243 -0.1807 -0.0724
   23SAPC  H14A 2978   0.789   3.939  10.695  0.8381 -1.0681 -0.6817
   23SAPC  H14B 2979   0.810   3.886  10.857 -0.0098  0.1479 -0.2870
   23SAPC  H14C 2980   0.910   4.010  10.798 -1.0813  1.0185 -1.2916
   23SAPC   C15 2981   0.882   3.685  10.697 -0.0632 -0.3205 -0.4295
   23SAPC  H15A 2982   0.942   3.610  10.646  0.2641 -1.4042  1.4487
   23SAPC  H15B 2983   0.857   3.643  10.793  0.8162  0.9444  0.3888
   23SAPC  H15C 2984   0.796   3.701  10.635 -0.7046  1.4290  0.8258
   23SAPC   C11 2985   1.120   3.982  10.586 -0.2452  0.7432 -0.1439
   23SAPC  H11A 2986   1.165   4.006  10.487 -0.8124  1.4295 -0.2352
   23SAPC  H11B 2987   1.213   3.951  10.639 -0.5788 -0.9587 -0.4945
   23SAPC     P 2988   1.140   4.217  10.698 -0.3589  0.0840  0.2442
   23SAPC   O13 2989   1.070   4.343  10.673 -0.0044 -0.3681 -0.0539
   23SAPC   O14 2990   1.168   4.184  10.837  0.4025 -0.1809  0.2484
   23SAPC   O12 2991   1.058   4.098  10.643  0.2145 -0.0125 -0.6833
   23SAPC   O11 2992   1.278   4.215  10.619 -0.7900 -0.1506  0.0165
   23SAPC    C1 2993   1.320   4.322  10.530 -0.9555  0.1641 -0.3276
   23SAPC    HA 2994   1.273   4.418  10.561 -1.0311 -0.0563  0.2442
   23SAPC    HB 2995   1.422   4.363  10.546 -1.5909  0.8079  2.6817
   23SAPC    C2 2996   1.290   4.292  10.382 -0.4048 -0.6769 -0.2592
   23SAPC    HS 2997   1.320   4.375  10.314 -1.7848  0.1820  0.1401
   23SAPC   O21 2998   1.153   4.258  10.366  0.0289 -0.4612  0.0494
   23SAPC   C21 2999   1.076   4.356  10.340 -0.2526  0.1145  0.3106
   23SAPC   O22 3000   1.108   4.471  10.340  0.5354 -1.0990  0.1232
   23SAPC   C22 3001   0.934   4.302  10.300  0.1342 -0.0095  0.1276
   23SAPC   H2R 3002   0.898   4.256  10.394 -2.0330 -0.5635 -0.9231
   23SAPC   H2S 3003   0.870   4.387  10.267 -0.8826 -1.7955 -2.9513
   23SAPC    C3 3004   1.368   4.166  10.344 -0.2481 -0.1590 -0.3966
   23SAPC    HX 3005   1.314   4.127  10.255 -0.3704 -0.4631 -0.1909
   23SAPC    HY 3006   1.356   4.080  10.414 -0.2323  0.7352  0.7415
   23SAPC   O31 3007   1.502   4.188  10.303  0.4200  0.1470 -0.1124
   23SAPC   C31 3008   1.519   4.246  10.176  0.1137  0.0269  0.3762
   23SAPC   O32 3009   1.432   4.287  10.108 -0.4611  0.1971 -0.6669
   23SAPC   C32 3010   1.669   4.230  10.139  0.8340 -0.4541  0.0228
   23SAPC   H2X 3011   1.675   4.159  10.053 -3.2941  2.8862 -3.4596
   23SAPC   H2Y 3012   1.720   4.186  10.228  1.3711  0.2101  0.0492
   23SAPC   C23 3013   0.931   4.200  10.185 -0.2674 -0.1777  0.0875
   23SAPC   H3R 3014   0.837   4.142  10.192  0.7429 -1.9661 -0.5622
   23SAPC   H3S 3015   1.012   4.129  10.210  1.4625  2.1388  1.4781
   23SAPC   C24 3016   0.949   4.259  10.043  0.8931 -0.2209 -0.0286
   23SAPC   H4R 3017   0.879   4.345  10.041  0.6642 -0.3749  0.7585
   23SAPC   H4S 3018   0.916   4.182   9.970 -0.5285  1.1056 -0.8489
   23SAPC   C25 3019   1.088   4.310  10.006 -0.0647  0.3754 -0.8319
   23SAPC   H5R 3020   1.168   4.249  10.050 -0.0369 -0.1070 -1.5229
   23SAPC   C26 3021   1.113   4.424   9.950  0.0805 -0.3349  0.5781
   23SAPC   H6R 3022   1.216   4.443   9.917 -0.3404 -0.6563 -1.0137
   23SAPC   C27 3023   1.008   4.537   9.914  0.3343  0.1017  0.4938
   23SAPC   H7R 3024   0.909   4.488   9.897  0.1486  0.2168  1.2118
   23SAPC   H7S 3025   1.043   4.578   9.817  3.4928 -0.1035  1.4290
   23SAPC   C28 3026   0.989   4.655   9.999 -0.7703 -0.5935  0.1413
   23SAPC   H8R 3027   1.033   4.643  10.099  0.4150 -0.8843 -0.4021
   23SAPC   C29 3028   0.922   4.765   9.960 -0.4972 -0.4604 -0.1376
   23SAPC   H9R 3029   0.921   4.845  10.036  1.2237 -0.9589  0.4430
   23SAPC  C210 3030   0.853   4.799   9.836 -0.5245 -0.5099  0.4626
   23SAPC  H10R 3031   0.764   4.732   9.824  0.0743 -1.1154 -0.7530
   23SAPC  H10S 3032   0.918   4.779   9.749 -0.5792  1.3888 -0.0479
   23SAPC  C211 3033   0.802   4.941   9.835  0.3505  0.2988 -0.6064
   23SAPC  H11R 3034   0.751   4.973   9.927 -0.9534  2.2504 -1.9597
   23SAPC  C212 3035   0.803   5.033   9.738 -0.2140 -0.1184 -0.0114
   23SAPC  H12R 3036   0.762   5.133   9.759  2.3200  1.3387 -1.4605
   23SAPC  C213 3037   0.879   5.021   9.609  0.2384 -0.9205  0.4760
   23SAPC  H13R 3038   0.963   4.953   9.634  1.3308  0.4664  0.7043
   23SAPC  H13S 3039   0.921   5.118   9.575  1.0465 -1.1365  0.8297
   23SAPC  C214 3040   0.789   4.956   9.504  0.4839 -0.7875 -0.1667
   23SAPC  H14R 3041   0.748   4.860   9.540  0.3937  0.0373  2.0873
   23SAPC  C215 3042   0.761   5.005   9.382 -0.4503 -0.2889  0.3647
   23SAPC  H15R 3043   0.699   4.948   9.311  0.5387 -0.0851 -0.6941
   23SAPC  C216 3044   0.814   5.132   9.315 -0.2192 -0.1343 -0.1275
   23SAPC  H16R 3045   0.922   5.151   9.335  0.0953 -0.9331 -0.9886
   23SAPC  H16S 3046   0.759   5.224   9.342 -0.6725 -0.5856  0.5270
   23SAPC  C217 3047   0.805   5.125   9.155 -0.6638  0.2462 -0.5308
   23SAPC  H17R 3048   0.705   5.088   9.124 -0.6347  1.8426 -2.8145
   23SAPC  H17S 3049   0.878   5.046   9.129  0.6506  0.4576  2.1484
   23SAPC  C218 3050   0.836   5.258   9.074  0.5744 -0.2987 -0.0073
   23SAPC  H18R 3051   0.931   5.303   9.109 -0.6485  1.2922  1.4266
   23SAPC  H18S 3052   0.741   5.315   9.081 -0.6221 -2.2864  0.7805
   23SAPC  C219 3053   0.849   5.231   8.925 -0.3929 -0.1522 -0.5581
   23SAPC  H19R 3054   0.749   5.224   8.877 -1.1293 -2.1039  1.1154
   23SAPC  H19S 3055   0.900   5.134   8.910 -0.5236 -0.4919  1.0073
   23SAPC  C220 3056   0.926   5.336   8.845  0.3261 -0.8443  0.8915
   23SAPC  H20R 3057   0.844   5.396   8.799  0.2305 -2.2328 -0.8675
   23SAPC  H20S 3058   0.980   5.292   8.758  0.1460  0.0123  0.3312
   23SAPC  H20T 3059   1.002   5.400   8.896 -0.1580  1.5307 -1.1571
   23SAPC   C33 3060   1.742   4.359  10.094 -0.0363  0.0176  0.2702
   23SAPC   H3X 3061   1.851   4.338  10.093  0.2875  1.5776 -0.0553
   23SAPC   H3Y 3062   1.719   4.444  10.161 -0.4062 -0.4646  0.7645
   23SAPC   C34 3063   1.705   4.391   9.948  0.4008 -0.1796 -0.3997
   23SAPC   H4X 3064   1.733   4.494   9.919 -0.3299  0.3706  0.7621
   23SAPC   H4Y 3065   1.595   4.383   9.938  0.1688  1.1652  0.7770
   23SAPC   C35 3066   1.751   4.288   9.840  0.7614  0.0773  0.6446
   23SAPC   H5X 3067   1.708   4.188   9.863 -1.4311  1.1229  1.3604
   23SAPC   H5Y 3068   1.862   4.297   9.836  0.6264  4.0264  1.4330
   23SAPC   C36 3069   1.696   4.330   9.698 -0.2337  0.2524 -0.5784
   23SAPC   H6X 3070   1.735   4.434   9.694 -0.3815  0.3528  0.4005
   23SAPC   H6Y 3071   1.586   4.336   9.692 -0.5260 -0.5520  2.4562
   23SAPC   C37 3072   1.748   4.236   9.587 -0.5847 -0.3545 -1.0183
   23SAPC   H7X 3073   1.666   4.203   9.520  0.2681 -1.0426 -1.7533
   23SAPC   H7Y 3074   1.783   4.139   9.627 -0.5371  0.7952  2.0058
   23SAPC   C38 3075   1.871   4.300   9.520 -0.5341 -0.0955  0.5635
   23SAPC   H8X 3076   1.945   4.343   9.591 -0.4065  0.4662  0.1027
   23SAPC   H8Y 3077   1.831   4.380   9.455  0.4200 -0.0484  0.0047
   23SAPC   C39 3078   1.951   4.205   9.433  0.2387 -0.0479  0.1136
   23SAPC   H9X 3079   1.889   4.187   9.343  1.1779  1.2507 -0.8420
   23SAPC   H9Y 3080   1.977   4.108   9.479 -0.4808 -0.9740 -1.3759
   23SAPC  C310 3081   2.077   4.266   9.374 -0.5593 -0.2003 -0.8204
   23SAPC  H10X 3082   2.147   4.297   9.455 -0.5341  1.4553 -1.4524
   23SAPC  H10Y 3083   2.061   4.360   9.317  0.6101  0.5111 -0.0078
   23SAPC  C311 3084   2.156   4.175   9.273  0.5553  0.9868 -0.1709
   23SAPC  H11X 3085   2.086   4.154   9.189 -0.6872 -3.4529  1.6475
   23SAPC  H11Y 3086   2.170   4.080   9.329 -0.1463 -0.6949 -2.6810
   23SAPC  C312 3087   2.289   4.228   9.224 -0.1000 -0.8754 -0.0387
   23SAPC  H12X 3088   2.334   4.150   9.159  0.8330 -0.5360  0.1901
   23SAPC  H12Y 3089   2.362   4.234   9.307  0.0116  1.4985 -0.2378
   23SAPC  C313 3090   2.295   4.367   9.148 -0.4761 -0.4089  0.0246
   23SAPC  H13X 3091   2.240   4.442   9.209 -0.6090 -1.6303  1.4599
   23SAPC  H13Y 3092   2.257   4.359   9.044  1.8900  2.0074 -1.1380
   23SAPC  C314 3093   2.439   4.410   9.132  0.0300 -1.0361 -0.0740
   23SAPC  H14X 3094   2.492   4.340   9.064  0.0493 -2.9987  1.8385
   23SAPC  H14Y 3095   2.504   4.408   9.223 -0.1642 -1.5183  0.0560
   23SAPC  C315 3096   2.447   4.551   9.070  0.2904  0.3581 -0.0791
   23SAPC  H15X 3097   2.357   4.608   9.100  0.2279  0.1761  0.0841
   23SAPC  H15Y 3098   2.429   4.531   8.962 -2.4254 -1.8462  0.6683
   23SAPC  C316 3099   2.575   4.624   9.094 -0.2146  0.1068  0.1091
   23SAPC  H16X 3100   2.667   4.562   9.084 -0.1891 -0.0011  0.9194
   23SAPC  H16Y 3101   2.590   4.639   9.203 -1.7969 -1.3234  0.5669
   23SAPC  C317 3102   2.580   4.764   9.036  0.2112 -0.2874 -0.2946
   23SAPC  H17X 3103   2.662   4.823   9.083 -0.1034 -0.7175  0.8435
   23SAPC  H17Y 3104   2.487   4.821   9.058 -0.9455 -2.8666  2.1605
   23SAPC  C318 3105   2.611   4.759   8.890 -0.2713  0.1593  0.5366
   23SAPC  H18X 3106   2.622   4.860   8.845  1.4690 -0.4318 -0.4662
   23SAPC  H18Y 3107   2.534   4.705   8.830  0.4922 -0.0297 -0.2999
   23SAPC  H18Z 3108   2.709   4.708   8.875  0.5053  2.1008 -1.4453
   24SAPC     N 3109   3.105   2.870  10.784  0.1153  0.0182 -0.1208
   24SAPC   C12 3110   2.965   2.821  10.806 -0.3098  0.2905  0.3594
   24SAPC  H12A 3111   2.903   2.883  10.741  0.5216  1.3058  0.5028
   24SAPC  H12B 3112   2.935   2.848  10.906 -0.3932  2.2916 -0.1534
   24SAPC   C13 3113   3.198   2.788  10.871  0.1642 -0.2411  0.3252
   24SAPC  H13A 3114   3.186   2.814  10.975  0.8223 -4.3659  1.6081
   24SAPC  H13B 3115   3.165   2.685  10.871 -2.6433  0.5551 -0.9488
   24SAPC  H13C 3116   3.304   2.798  10.855  0.2700 -0.7220  0.7172
   24SAPC   C14 3117   3.156   2.858  10.640  0.9335 -0.5924 -0.4230
   24SAPC  H14A 3118   3.160   2.753  10.613  0.2153 -0.7201 -0.0474
   24SAPC  H14B 3119   3.087   2.912  10.578 -0.1487 -0.0973  1.1589
   24SAPC  H14C 3120   3.258   2.893  10.641  0.6868  0.1243  0.2041
   24SAPC   C15 3121   3.112   3.013  10.822  0.7448 -0.4773 -0.7927
   24SAPC  H15A 3122   3.215   3.032  10.848  1.6144 -1.4312 -3.3198
   24SAPC  H15B 3123   3.067   3.085  10.756  0.4811 -0.1686 -0.2834
   24SAPC  H15C 3124   3.065   3.037  10.917  2.2814  1.1394 -0.3897
   24SAPC   C11 3125   2.939   2.678  10.764 -0.1006 -0.6209  0.4948
   24SAPC  H11A 3126   2.987   2.657  10.666 -0.3077  1.2016 -0.0314
   24SAPC  H11B 3127   2.832   2.651  10.750 -0.0925 -1.1213  1.3258
   24SAPC     P 3128   2.991   2.439  10.854  0.1544 -0.0262 -0.1582
   24SAPC   O13 3129   3.138   2.401  10.843 -0.1766 -0.7923  0.3842
   24SAPC   O14 3130   2.914   2.388  10.969 -0.0074  0.3897 -0.6509
   24SAPC   O12 3131   2.985   2.596  10.867  0.3800  0.2999  0.0122
   24SAPC   O11 3132   2.926   2.405  10.720  0.6515  0.8699  0.0263
   24SAPC    C1 3133   2.887   2.271  10.689  1.1343 -0.2665  0.4515
   24SAPC    HA 3134   2.974   2.207  10.664  1.4679  0.1229  0.6031
   24SAPC    HB 3135   2.821   2.230  10.769  1.6074  0.1523  1.0678
   24SAPC    C2 3136   2.789   2.278  10.565 -0.0271  0.7092  0.2810
   24SAPC    HS 3137   2.740   2.184  10.535 -0.5025  1.2009 -0.5078
   24SAPC   O21 3138   2.859   2.334  10.447 -0.4440  0.6506  0.0364
   24SAPC   C21 3139   2.941   2.241  10.393 -0.2331  0.0910 -0.2997
   24SAPC   O22 3140   2.950   2.122  10.425 -0.6218 -0.1770 -0.2075
   24SAPC   C22 3141   3.024   2.298  10.278 -0.3694 -0.1381  0.5248
   24SAPC   H2R 3142   3.047   2.405  10.297  0.5197 -0.3788  0.9013
   24SAPC   H2S 3143   3.123   2.248  10.283 -1.2374 -2.2455 -1.5199
   24SAPC    C3 3144   2.671   2.370  10.614 -0.1867 -0.1463  0.0473
   24SAPC    HX 3145   2.692   2.472  10.652 -0.0702  0.4651 -1.5854
   24SAPC    HY 3146   2.621   2.323  10.701 -1.6034  0.0458 -0.6325
   24SAPC   O31 3147   2.571   2.371  10.508  0.1022  0.6343  0.4894
   24SAPC   C31 3148   2.586   2.469  10.408  0.6095  0.3877  0.0877
   24SAPC   O32 3149   2.671   2.553  10.402  0.2003  0.1257 -0.2027
   24SAPC   C32 3150   2.481   2.437  10.301  1.0084  0.1710  0.0588
   24SAPC   H2X 3151   2.383   2.429  10.352  0.8038 -1.0801 -0.4966
   24SAPC   H2Y 3152   2.505   2.331  10.276 -0.1002  0.3138 -1.8490
   24SAPC   C23 3153   2.975   2.266  10.133  0.3944  0.9867 -0.4505
   24SAPC   H3R 3154   2.954   2.157  10.146  2.2403  0.8657  2.6029
   24SAPC   H3S 3155   3.052   2.287  10.056 -0.4445 -0.1413 -1.6406
   24SAPC   C24 3156   2.854   2.347  10.091  0.9412 -0.2375  0.0679
   24SAPC   H4R 3157   2.774   2.345  10.168  1.2747  1.6053  0.5023
   24SAPC   H4S 3158   2.800   2.308  10.002  0.1444  0.9174  0.0247
   24SAPC   C25 3159   2.889   2.493  10.069  0.3789 -0.2747 -0.1632
   24SAPC   H5R 3160   2.914   2.545  10.162  1.4378 -0.0516 -0.5600
   24SAPC   C26 3161   2.912   2.550   9.948 -0.3056 -0.5394  0.1327
   24SAPC   H6R 3162   2.949   2.653   9.956  1.0342 -1.1338  3.8879
   24SAPC   C27 3163   2.904   2.480   9.813  0.5504 -0.2615 -0.6433
   24SAPC   H7R 3164   2.909   2.370   9.828  2.2328 -0.6111 -3.1307
   24SAPC   H7S 3165   2.998   2.497   9.756  1.7408  1.6635  1.6957
   24SAPC   C28 3166   2.777   2.530   9.749  0.6802  0.4171  0.3405
   24SAPC   H8R 3167   2.728   2.617   9.795 -2.5467 -2.3105  2.6280
   24SAPC   C29 3168   2.723   2.460   9.644 -0.3316 -0.0217 -0.3344
   24SAPC   H9R 3169   2.632   2.493   9.592 -1.3262 -2.5690 -0.3486
   24SAPC  C210 3170   2.772   2.330   9.586 -0.0447  0.0249 -1.0231
   24SAPC  H10R 3171   2.855   2.279   9.639 -0.0176 -2.9312 -3.6045
   24SAPC  H10S 3172   2.822   2.355   9.490 -0.5324  0.3027 -1.2070
   24SAPC  C211 3173   2.653   2.233   9.565  0.1035 -0.0776  0.2843
   24SAPC  H11R 3174   2.645   2.147   9.633 -0.8486 -0.6653 -0.5535
   24SAPC  C212 3175   2.572   2.235   9.459  0.2023  0.1266  0.8887
   24SAPC  H12R 3176   2.498   2.156   9.437  0.7485 -0.5241  1.3556
   24SAPC  C213 3177   2.577   2.339   9.352 -0.7104  0.2192  0.2458
   24SAPC  H13R 3178   2.679   2.348   9.308 -0.0731  0.2426  1.6827
   24SAPC  H13S 3179   2.549   2.436   9.397 -3.4296 -0.9122  1.1653
   24SAPC  C214 3180   2.477   2.322   9.239  0.2912  0.6361 -0.1012
   24SAPC  H14R 3181   2.396   2.396   9.238  0.2208  0.6932  2.7022
   24SAPC  C215 3182   2.473   2.222   9.153  0.5719 -0.5540  0.2962
   24SAPC  H15R 3183   2.390   2.227   9.080  0.2493 -1.8243  0.5439
   24SAPC  C216 3184   2.564   2.102   9.145  0.6221  0.1219  0.6528
   24SAPC  H16R 3185   2.500   2.013   9.130 -0.5460  1.2407 -1.5417
   24SAPC  H16S 3186   2.621   2.088   9.239  0.8544 -0.5799  0.4118
   24SAPC  C217 3187   2.669   2.107   9.034  0.0562 -0.4156 -0.1147
   24SAPC  H17R 3188   2.741   2.024   9.052  0.1773 -0.1338  0.7393
   24SAPC  H17S 3189   2.723   2.203   9.040  0.3993 -0.4887 -1.6019
   24SAPC  C218 3190   2.633   2.080   8.887 -0.5068 -0.2005 -0.0509
   24SAPC  H18R 3191   2.707   2.115   8.811 -2.2446  1.4196 -1.1225
   24SAPC  H18S 3192   2.544   2.143   8.862  0.4887  1.4789  0.4268
   24SAPC  C219 3193   2.608   1.943   8.842 -0.0221 -0.8025 -0.3960
   24SAPC  H19R 3194   2.531   1.898   8.908  0.4234 -0.6563  0.2295
   24SAPC  H19S 3195   2.705   1.891   8.854  0.4182 -0.0196 -0.4962
   24SAPC  C220 3196   2.560   1.928   8.699 -0.8394 -0.3497  0.2751
   24SAPC  H20R 3197   2.516   1.826   8.694  0.0865 -0.7201 -0.7486
   24SAPC  H20S 3198   2.649   1.935   8.633 -0.6650  0.8544  0.6205
   24SAPC  H20T 3199   2.486   2.008   8.680  1.0169  1.4495  0.3197
   24SAPC   C33 3200   2.492   2.527  10.171 -0.4216  0.3481  0.3389
   24SAPC   H3X 3201   2.598   2.515  10.142  0.1690 -0.3692  2.6651
   24SAPC   H3Y 3202   2.479   2.632  10.204 -1.3914  0.1694  0.5567
   24SAPC   C34 3203   2.399   2.480  10.060 -0.0254 -0.2335  0.5086
   24SAPC   H4X 3204   2.293   2.470  10.091  0.0600  0.0235  0.8968
   24SAPC   H4Y 3205   2.433   2.384  10.017  0.2591  0.8287 -1.8032
   24SAPC   C35 3206   2.394   2.585   9.943  0.4092  0.6602  0.2378
   24SAPC   H5X 3207   2.502   2.605   9.925  0.0499  1.2891 -1.3515
   24SAPC   H5Y 3208   2.340   2.671   9.986 -1.6475 -2.0413  3.5669
   24SAPC   C36 3209   2.335   2.546   9.804 -0.1567 -0.1393  0.7460
   24SAPC   H6X 3210   2.227   2.523   9.819 -0.9598 -0.4717 -4.1471
   24SAPC   H6Y 3211   2.372   2.447   9.769  0.2175  0.2294  0.0840
   24SAPC   C37 3212   2.359   2.649   9.693 -0.1360 -0.4651 -0.0568
   24SAPC   H7X 3213   2.469   2.663   9.685 -0.3572  1.2123 -0.5281
   24SAPC   H7Y 3214   2.295   2.738   9.707  0.3153 -0.4324  2.0761
   24SAPC   C38 3215   2.314   2.580   9.555 -0.6539  0.3109  0.1484
   24SAPC   H8X 3216   2.371   2.485   9.555 -0.8638  0.1646  1.3978
   24SAPC   H8Y 3217   2.349   2.643   9.471  1.7557  0.1165  0.9077
   24SAPC   C39 3218   2.159   2.552   9.550  0.1251 -0.4800  0.7276
   24SAPC   H9X 3219   2.101   2.643   9.577  0.8611  0.8047 -1.6889
   24SAPC   H9Y 3220   2.148   2.475   9.629 -0.9848  1.0651  2.1493
   24SAPC  C310 3221   2.110   2.512   9.402 -0.1516 -0.6917 -0.2577
   24SAPC  H10X 3222   2.177   2.427   9.377  0.1652 -0.5146 -0.0193
   24SAPC  H10Y 3223   2.144   2.598   9.340 -1.6550  0.8753  1.0113
   24SAPC  C311 3224   1.965   2.472   9.372 -0.1107 -0.7685 -0.5572
   24SAPC  H11X 3225   1.926   2.425   9.465  0.6390 -1.0040 -0.3565
   24SAPC  H11Y 3226   1.970   2.399   9.289 -0.1649  0.5861 -1.7920
   24SAPC  C312 3227   1.879   2.585   9.313  0.0282 -0.4243 -0.1636
   24SAPC  H12X 3228   1.853   2.646   9.402 -0.2364  0.3601 -0.7627
   24SAPC  H12Y 3229   1.788   2.537   9.271  0.2021 -1.9714  1.1362
   24SAPC  C313 3230   1.942   2.676   9.203 -0.0317 -0.4097 -0.1730
   24SAPC  H13X 3231   2.024   2.740   9.242 -0.1553 -0.0610 -0.4806
   24SAPC  H13Y 3232   1.868   2.745   9.157  0.5820 -0.4291 -1.2174
   24SAPC  C314 3233   1.995   2.588   9.084  0.1483  0.5270 -0.1804
   24SAPC  H14X 3234   1.904   2.546   9.035 -0.2050  2.0391 -0.8850
   24SAPC  H14Y 3235   2.069   2.510   9.113 -1.4247 -0.4847  1.3238
   24SAPC  C315 3236   2.056   2.669   8.978 -0.3847 -0.0506 -0.1276
   24SAPC  H15X 3237   2.149   2.699   9.030 -1.3830  0.6932  1.2700
   24SAPC  H15Y 3238   1.994   2.757   8.951 -1.8486 -1.6831 -2.5541
   24SAPC  C316 3239   2.082   2.591   8.844 -0.3492  0.2084 -0.2969
   24SAPC  H16X 3240   2.130   2.657   8.769  2.0709 -0.2710  0.7338
   24SAPC  H16Y 3241   1.986   2.565   8.794  1.5307 -2.2952 -2.9165
   24SAPC  C317 3242   2.158   2.463   8.862 -0.6450 -0.4446 -0.2586
   24SAPC  H17X 3243   2.086   2.386   8.900 -0.8134  0.4407  1.2965
   24SAPC  H17Y 3244   2.244   2.471   8.932  1.4103  1.1531 -2.7807
   24SAPC  C318 3245   2.213   2.408   8.735  0.3803 -0.0831  0.1301
   24SAPC  H18X 3246   2.287   2.473   8.684 -1.4753  1.6967 -0.4104
   24SAPC  H18Y 3247   2.127   2.386   8.668  0.0113  0.2842  0.4760
   24SAPC  H18Z 3248   2.262   2.312   8.760  2.4211  1.2386  1.5415
   25SAPC     N 3249   6.321   2.925   5.937  0.3220 -0.6586  0.1971
   25SAPC   C12 3250   6.398   3.058   5.960  0.0918  0.8756  0.7813
   25SAPC  H12A 3251   6.497   3.032   5.925 -0.6387 -1.3677  0.2398
   25SAPC  H12B 3252   6.410   3.082   6.065 -0.2039 -1.6866  1.4587
   25SAPC   C13 3253   6.310   2.879   5.793  0.5064 -0.5265  0.5405
   25SAPC  H13A 3254   6.402   2.893   5.738 -0.1478  2.2674 -0.0004
   25SAPC  H13B 3255   6.275   2.778   5.777  2.0565 -1.2522  1.5216
   25SAPC  H13C 3256   6.245   2.946   5.739 -0.5491 -0.2309  2.1181
   25SAPC   C14 3257   6.389   2.822   6.014 -0.2676 -0.0397 -0.2681
   25SAPC  H14A 3258   6.475   2.784   5.961 -0.5750 -0.2452 -0.6167
   25SAPC  H14B 3259   6.423   2.850   6.113  0.9043 -0.0261 -0.6560
   25SAPC  H14C 3260   6.328   2.734   6.030 -0.8010  0.1908 -1.0272
   25SAPC   C15 3261   6.173   2.944   5.977  0.0382  0.4899 -0.3098
   25SAPC  H15A 3262   6.163   2.983   6.077  0.8658 -0.7788  0.2891
   25SAPC  H15B 3263   6.138   3.019   5.908  1.2199  1.0738 -0.3109
   25SAPC  H15C 3264   6.122   2.849   5.970  4.2710 -2.3149  1.8953
   25SAPC   C11 3265   6.351   3.179   5.879 -0.1587 -0.0946  0.4380
   25SAPC  H11A 3266   6.328   3.139   5.777 -0.8773 -1.7878  1.2280
   25SAPC  H11B 3267   6.426   3.261   5.878  0.4116 -0.6074 -0.5738
   25SAPC     P 3268   6.172   3.367   5.904 -0.1913  0.1873  0.0895
   25SAPC   O13 3269   6.235   3.430   5.789 -0.6209 -0.2954  0.4793
   25SAPC   O14 3270   6.025   3.365   5.909  0.2608  0.3084  0.1605
   25SAPC   O12 3271   6.226   3.223   5.926 -0.1981  0.5685  0.1002
   25SAPC   O11 3272   6.231   3.439   6.030 -0.7837 -0.1301 -0.4583
   25SAPC    C1 3273   6.214   3.393   6.164 -0.8611  0.6900  0.2518
   25SAPC    HA 3274   6.115   3.418   6.207 -0.7688 -0.4673  1.2067
   25SAPC    HB 3275   6.222   3.282   6.170 -0.8235  0.6882  0.1685
   25SAPC    C2 3276   6.319   3.448   6.258 -1.4062 -1.5018 -1.0153
   25SAPC    HS 3277   6.422   3.421   6.226 -0.2865  1.4528 -0.2376
   25SAPC   O21 3278   6.291   3.403   6.392  0.2755  0.8752 -0.3252
   25SAPC   C21 3279   6.326   3.272   6.408  0.3966 -0.1991 -0.2787
   25SAPC   O22 3280   6.382   3.203   6.328 -0.8083  0.1981 -0.3624
   25SAPC   C22 3281   6.279   3.229   6.541  0.7890 -0.4845  0.3770
   25SAPC   H2R 3282   6.322   3.296   6.619  1.7081  1.9441 -2.0729
   25SAPC   H2S 3283   6.172   3.258   6.544  0.6626 -0.9673  0.7214
   25SAPC    C3 3284   6.317   3.598   6.272  0.2136  0.0408  0.0281
   25SAPC    HX 3285   6.216   3.629   6.306  0.5032  1.0370  0.0246
   25SAPC    HY 3286   6.339   3.640   6.171  2.9804 -1.3169 -0.0155
   25SAPC   O31 3287   6.427   3.626   6.367  0.5825 -0.1471  0.2247
   25SAPC   C31 3288   6.425   3.737   6.422  0.9311  0.1249  0.0594
   25SAPC   O32 3289   6.343   3.830   6.403 -0.7733  0.0332  0.1742
   25SAPC   C32 3290   6.522   3.739   6.545 -0.1540  0.3943 -0.2381
   25SAPC   H2X 3291   6.551   3.634   6.569 -0.0460 -0.0431 -2.1473
   25SAPC   H2Y 3292   6.462   3.775   6.631 -1.1225 -2.4342  0.3588
   25SAPC   C23 3293   6.294   3.077   6.569 -0.0876 -0.3785 -0.8601
   25SAPC   H3R 3294   6.400   3.048   6.579  0.4173 -0.3987 -4.8686
   25SAPC   H3S 3295   6.247   3.023   6.484  0.3220  0.1069 -1.4022
   25SAPC   C24 3296   6.207   3.034   6.687  0.4473 -0.1028  0.3607
   25SAPC   H4R 3297   6.225   2.925   6.701  0.5940 -0.2009 -0.5035
   25SAPC   H4S 3298   6.106   3.051   6.645  2.2279  3.2392 -3.2509
   25SAPC   C25 3299   6.217   3.102   6.818 -0.5203 -0.2633 -0.7896
   25SAPC   H5R 3300   6.320   3.139   6.829 -0.9585  1.7787 -2.8521
   25SAPC   C26 3301   6.131   3.115   6.922  0.1189 -0.3830  0.0336
   25SAPC   H6R 3302   6.167   3.140   7.023 -0.8182  1.8344 -0.1284
   25SAPC   C27 3303   6.000   3.039   6.930  0.3177  0.1317  0.1638
   25SAPC   H7R 3304   5.959   3.029   6.828  2.1230  2.4834 -0.8815
   25SAPC   H7S 3305   5.919   3.090   6.986 -0.9482 -2.2850  0.6886
   25SAPC   C28 3306   6.009   2.909   7.004 -0.4822  0.9176  0.4131
   25SAPC   H8R 3307   5.995   2.917   7.112  0.0727 -1.3660  0.7098
   25SAPC   C29 3308   5.997   2.783   6.946  0.1810 -0.6806  0.0668
   25SAPC   H9R 3309   5.995   2.695   7.012  0.4446  0.2936  1.4162
   25SAPC  C210 3310   5.983   2.764   6.792  0.1560  0.2686  0.0333
   25SAPC  H10R 3311   6.056   2.816   6.726  1.3573 -0.7860  0.4674
   25SAPC  H10S 3312   5.885   2.809   6.766  0.6834  1.4419  0.0175
   25SAPC  C211 3313   5.974   2.629   6.728 -0.9499  0.1501 -0.8268
   25SAPC  H11R 3314   6.062   2.613   6.663 -0.5231  2.6192 -0.9268
   25SAPC  C212 3315   5.874   2.540   6.742 -0.5114 -0.0716  0.6395
   25SAPC  H12R 3316   5.883   2.448   6.683  1.1552  1.5242 -1.7853
   25SAPC  C213 3317   5.741   2.575   6.813  0.1443  0.3450  0.3571
   25SAPC  H13R 3318   5.724   2.685   6.812  2.1755  0.7074 -0.6327
   25SAPC  H13S 3319   5.760   2.534   6.915  0.1425 -3.1299 -0.9177
   25SAPC  C214 3320   5.622   2.527   6.744 -0.0205  0.3469  0.2732
   25SAPC  H14R 3321   5.642   2.517   6.637  0.0887 -0.1176  0.3368
   25SAPC  C215 3322   5.497   2.508   6.790 -0.2589 -0.2901  0.7399
   25SAPC  H15R 3323   5.419   2.482   6.717 -0.1499 -0.5254  0.7075
   25SAPC  C216 3324   5.447   2.530   6.929 -0.2726 -0.0400  0.0691
   25SAPC  H16R 3325   5.403   2.630   6.950  0.5529  0.2721  0.3460
   25SAPC  H16S 3326   5.531   2.519   7.001 -2.2379 -2.3943  2.2044
   25SAPC  C217 3327   5.342   2.425   6.965 -0.2144 -0.0060  0.8594
   25SAPC  H17R 3328   5.390   2.329   6.938 -0.4026  0.5874 -1.9914
   25SAPC  H17S 3329   5.254   2.450   6.901 -1.1383  2.2524  2.8447
   25SAPC  C218 3330   5.302   2.410   7.110 -0.0854 -0.3346  0.3522
   25SAPC  H18R 3331   5.194   2.385   7.106 -0.9727  2.8432  1.2376
   25SAPC  H18S 3332   5.313   2.507   7.165  2.0904 -1.0226  1.2418
   25SAPC  C219 3333   5.372   2.298   7.186 -0.1651  1.0831 -0.4245
   25SAPC  H19R 3334   5.367   2.202   7.130 -1.5055 -0.8230  2.7232
   25SAPC  H19S 3335   5.313   2.264   7.273 -0.5272 -1.4239 -1.5584
   25SAPC  C220 3336   5.515   2.346   7.229  0.5458  0.1257  0.4520
   25SAPC  H20R 3337   5.490   2.446   7.271  1.4315  0.6681 -0.2728
   25SAPC  H20S 3338   5.584   2.351   7.142 -1.0124 -0.2215 -0.8573
   25SAPC  H20T 3339   5.567   2.284   7.304 -1.3128 -0.5343  1.2668
   25SAPC   C33 3340   6.644   3.826   6.522 -0.1022  0.3690  0.1611
   25SAPC   H3X 3341   6.612   3.923   6.480 -1.8641 -0.6207 -0.8779
   25SAPC   H3Y 3342   6.703   3.786   6.437  1.2644 -0.2665  1.3645
   25SAPC   C34 3343   6.733   3.842   6.652 -0.2040  0.9643  0.1762
   25SAPC   H4X 3344   6.818   3.910   6.628  0.4210 -0.5022 -2.0248
   25SAPC   H4Y 3345   6.776   3.741   6.665  0.2641  0.8454 -2.0006
   25SAPC   C35 3346   6.664   3.891   6.777  0.1409 -0.0128 -0.6111
   25SAPC   H5X 3347   6.652   3.805   6.845  0.1779  0.9223  0.6119
   25SAPC   H5Y 3348   6.565   3.939   6.763 -0.1418 -0.2838  0.3777
   25SAPC   C36 3349   6.746   4.000   6.846  0.0849 -0.1795  0.7516
   25SAPC   H6X 3350   6.732   4.100   6.801 -1.1073 -0.4566  0.4546
   25SAPC   H6Y 3351   6.852   3.969   6.842 -0.7338 -3.6268  1.9208
   25SAPC   C37 3352   6.720   4.022   6.993 -0.1239 -0.2288  0.0817
   25SAPC   H7X 3353   6.715   3.927   7.051 -0.3547 -0.0584  0.3405
   25SAPC   H7Y 3354   6.632   4.087   7.011  1.1679  1.6290 -0.0870
   25SAPC   C38 3355   6.846   4.092   7.050 -0.0555  0.3618 -0.7002
   25SAPC   H8X 3356   6.854   4.194   7.007 -2.8624  1.0767  0.2431
   25SAPC   H8Y 3357   6.933   4.034   7.013 -1.5336 -1.6627 -1.2025
   25SAPC   C39 3358   6.848   4.091   7.206  0.2373  0.1918 -0.7551
   25SAPC   H9X 3359   6.921   4.171   7.232  0.6093  0.1760 -1.7152
   25SAPC   H9Y 3360   6.882   3.990   7.237 -0.9175  0.2009  0.5974
   25SAPC  C310 3361   6.719   4.120   7.278  0.4196  0.0758  0.4929
   25SAPC  H10X 3362   6.643   4.053   7.233  0.3089  0.8768 -0.5302
   25SAPC  H10Y 3363   6.689   4.224   7.254 -0.2891 -0.2877 -0.2144
   25SAPC  C311 3364   6.723   4.110   7.432 -0.0508  0.1597 -0.5401
   25SAPC  H11X 3365   6.767   4.012   7.461 -1.9866  0.0331  2.2709
   25SAPC  H11Y 3366   6.621   4.113   7.474  0.3178 -0.0821  0.3885
   25SAPC  C312 3367   6.786   4.228   7.497 -0.3116  0.6090  0.6851
   25SAPC  H12X 3368   6.721   4.317   7.477 -1.1172 -0.2206 -0.5392
   25SAPC  H12Y 3369   6.878   4.257   7.442 -2.9062  0.2571 -4.3724
   25SAPC  C313 3370   6.805   4.211   7.648 -0.1853  0.5451  0.0216
   25SAPC  H13X 3371   6.860   4.118   7.674  1.8978  1.8124  0.4076
   25SAPC  H13Y 3372   6.703   4.205   7.694 -0.7513 -1.6185 -1.3977
   25SAPC  C314 3373   6.875   4.330   7.717 -0.6589 -0.4497  0.6000
   25SAPC  H14X 3374   6.815   4.419   7.691  1.1239  0.0333 -2.3291
   25SAPC  H14Y 3375   6.972   4.353   7.666 -1.3085  1.0773  0.0017
   25SAPC  C315 3376   6.890   4.303   7.871  0.7896  0.1386 -0.5098
   25SAPC  H15X 3377   6.942   4.205   7.877  0.4535 -0.0135 -0.0348
   25SAPC  H15Y 3378   6.792   4.300   7.923  0.2511 -0.7038 -1.5505
   25SAPC  C316 3379   6.985   4.402   7.946 -0.0993 -0.2334  0.8957
   25SAPC  H16X 3380   6.968   4.508   7.915 -2.1050 -0.4658  1.0947
   25SAPC  H16Y 3381   7.089   4.374   7.921  0.0463 -0.8075  2.0964
   25SAPC  C317 3382   6.958   4.400   8.093 -0.4209 -0.1400 -0.1583
   25SAPC  H17X 3383   7.048   4.415   8.157 -1.7105  3.3178  1.1050
   25SAPC  H17Y 3384   6.923   4.296   8.111 -0.1440 -0.4969 -1.5557
   25SAPC  C318 3385   6.862   4.518   8.138 -0.7080 -0.2281  0.9938
   25SAPC  H18X 3386   6.909   4.610   8.097 -1.5149 -1.0408 -1.9965
   25SAPC  H18Y 3387   6.850   4.534   8.248  0.8721  3.3251  0.8047
   25SAPC  H18Z 3388   6.767   4.505   8.084 -0.4886 -0.4914  0.6698
   26SAPC     N 3389   6.094   0.501   6.017  0.8520 -0.5223  0.2049
   26SAPC   C12 3390   6.027   0.402   6.110  0.0608 -0.5104 -0.2289
   26SAPC  H12A 3391   6.103   0.369   6.181  0.0380  0.7515  0.4033
   26SAPC  H12B 3392   5.995   0.315   6.054 -1.8863 -0.8495  1.3114
   26SAPC   C13 3393   6.175   0.597   6.088  0.3222  0.5039 -0.6900
   26SAPC  H13A 3394   6.249   0.541   6.143 -0.6871  0.6578  0.8749
   26SAPC  H13B 3395   6.231   0.669   6.029 -0.0026  1.4135  0.0755
   26SAPC  H13C 3396   6.121   0.651   6.164  1.5734  1.0450 -0.1473
   26SAPC   C14 3397   6.174   0.411   5.922  0.3638 -0.9922  0.0966
   26SAPC  H14A 3398   6.108   0.355   5.857  0.1896  0.7663 -1.2977
   26SAPC  H14B 3399   6.233   0.472   5.856 -0.7786 -0.8162 -0.7797
   26SAPC  H14C 3400   6.241   0.342   5.972  0.2273 -1.6560 -0.6238
   26SAPC   C15 3401   5.992   0.584   5.933 -0.5983  0.7313  0.0861
   26SAPC  H15A 3402   6.045   0.639   5.856  1.5133 -1.4620 -0.1370
   26SAPC  H15B 3403   5.924   0.512   5.891 -0.3931 -1.7948  3.6510
   26SAPC  H15C 3404   5.927   0.649   5.989  0.0751 -0.2783  2.1049
   26SAPC   C11 3405   5.893   0.449   6.173  0.6821 -0.0869  0.7242
   26SAPC  H11A 3406   5.893   0.552   6.213 -0.8707  0.0887  0.3369
   26SAPC  H11B 3407   5.883   0.378   6.258  2.1989 -0.5026  0.5797
   26SAPC     P 3408   5.717   0.306   6.051  0.1208 -0.0669 -0.0904
   26SAPC   O13 3409   5.589   0.327   5.987 -0.0415 -0.5702 -0.2985
   26SAPC   O14 3410   5.809   0.209   5.985 -0.6781  0.1330 -0.3154
   26SAPC   O12 3411   5.782   0.448   6.077 -0.0072 -0.0222 -0.4565
   26SAPC   O11 3412   5.698   0.260   6.202  0.5841  0.1665  0.1164
   26SAPC    C1 3413   5.609   0.325   6.291  0.2880 -0.3995  0.2700
   26SAPC    HA 3414   5.650   0.311   6.393  2.2419 -3.7422 -0.7985
   26SAPC    HB 3415   5.607   0.433   6.265 -0.5332 -0.3030  0.7166
   26SAPC    C2 3416   5.458   0.285   6.280 -0.0922 -1.1138 -0.4731
   26SAPC    HS 3417   5.415   0.322   6.185  0.4730 -0.7517 -0.5939
   26SAPC   O21 3418   5.390   0.359   6.387 -0.2211  0.1359 -0.2005
   26SAPC   C21 3419   5.256   0.348   6.364 -0.3957 -0.4795  0.2984
   26SAPC   O22 3420   5.211   0.302   6.262  0.7175 -0.1941  0.0622
   26SAPC   C22 3421   5.197   0.387   6.498 -0.1438 -0.4192  0.7526
   26SAPC   H2R 3422   5.232   0.311   6.571  0.9223  0.1681  0.8592
   26SAPC   H2S 3423   5.228   0.492   6.514  0.9865 -0.6826  0.3721
   26SAPC    C3 3424   5.444   0.131   6.301 -0.4531 -0.0868 -0.2581
   26SAPC    HX 3425   5.477   0.088   6.204 -0.8990 -1.8586  0.3460
   26SAPC    HY 3426   5.340   0.094   6.313 -0.5866 -0.5262 -2.4127
   26SAPC   O31 3427   5.537   0.084   6.404  0.8090  0.3834  0.3391
   26SAPC   C31 3428   5.479   0.076   6.522 -0.7266  1.1979  1.1019
   26SAPC   O32 3429   5.358   0.103   6.539 -0.2763 -0.0649 -0.1581
   26SAPC   C32 3430   5.581   0.048   6.630  0.5321 -0.2769 -0.2980
   26SAPC   H2X 3431   5.665   0.118   6.606 -0.1997  0.5694 -0.4549
   26SAPC   H2Y 3432   5.626  -0.053   6.632  1.0854 -0.1247  3.9552
   26SAPC   C23 3433   5.044   0.358   6.490  0.9939 -0.3131 -0.1170
   26SAPC   H3R 3434   5.023   0.266   6.431  0.8569 -0.1202 -0.3735
   26SAPC   H3S 3435   4.988   0.438   6.437 -0.8705 -1.7814 -0.4690
   26SAPC   C24 3436   4.976   0.356   6.627 -0.3241 -0.3211 -0.1011
   26SAPC   H4R 3437   4.867   0.354   6.610 -0.3289 -1.0573 -0.0232
   26SAPC   H4S 3438   4.996   0.454   6.676 -0.7724 -0.0531 -0.4509
   26SAPC   C25 3439   5.011   0.228   6.699  0.1457  0.4356 -0.3113
   26SAPC   H5R 3440   5.006   0.136   6.638 -0.0327  1.5780 -2.0821
   26SAPC   C26 3441   5.061   0.209   6.820 -0.4019  0.3091 -0.0794
   26SAPC   H6R 3442   5.084   0.105   6.849  1.1999 -0.0684 -2.4461
   26SAPC   C27 3443   5.088   0.307   6.928 -0.0896  0.6147  0.4245
   26SAPC   H7R 3444   5.068   0.406   6.882 -0.8137 -0.3952 -1.5334
   26SAPC   H7S 3445   5.195   0.305   6.958  0.4502  0.8649 -1.3909
   26SAPC   C28 3446   4.990   0.304   7.045  0.5081 -0.4114 -0.8471
   26SAPC   H8R 3447   4.884   0.324   7.023 -0.4395 -1.4535  2.2336
   26SAPC   C29 3448   5.019   0.259   7.168 -0.9512 -0.0621 -0.7959
   26SAPC   H9R 3449   4.949   0.259   7.252 -1.2759 -0.2955 -1.0634
   26SAPC  C210 3450   5.152   0.203   7.205  0.1014 -0.2767 -0.5249
   26SAPC  H10R 3451   5.192   0.156   7.112  0.6579 -0.3364 -0.2566
   26SAPC  H10S 3452   5.132   0.107   7.258 -2.5859  0.2856 -0.3470
   26SAPC  C211 3453   5.261   0.288   7.260 -0.7137  0.6086  0.3328
   26SAPC  H11R 3454   5.336   0.324   7.188  0.4613 -1.5900  0.3554
   26SAPC  C212 3455   5.285   0.326   7.388 -0.0742 -0.1118 -0.5316
   26SAPC  H12R 3456   5.376   0.381   7.415 -0.2849 -0.6220  1.3893
   26SAPC  C213 3457   5.203   0.298   7.510  1.0091  0.4211 -0.1292
   26SAPC  H13R 3458   5.099   0.294   7.469  1.0301 -0.3155 -0.1257
   26SAPC  H13S 3459   5.198   0.391   7.571 -0.5460 -0.6699  1.5090
   26SAPC  C214 3460   5.235   0.172   7.581 -0.4022  1.5641  0.0290
   26SAPC  H14R 3461   5.239   0.084   7.516  2.1426  2.4768 -1.1516
   26SAPC  C215 3462   5.243   0.148   7.717 -0.2068 -0.5353  0.6090
   26SAPC  H15R 3463   5.283   0.052   7.753 -0.0584 -0.9143 -0.5275
   26SAPC  C216 3464   5.236   0.255   7.822 -0.5809 -0.1709 -0.2111
   26SAPC  H16R 3465   5.216   0.353   7.772  0.0490  0.3592  0.5355
   26SAPC  H16S 3466   5.327   0.263   7.885 -1.3384  0.4982  0.8283
   26SAPC  C217 3467   5.126   0.237   7.921  0.8904  0.5069 -0.0355
   26SAPC  H17R 3468   5.029   0.226   7.868  0.1134  2.6772  0.7903
   26SAPC  H17S 3469   5.119   0.331   7.981 -0.2890  0.4187 -0.0236
   26SAPC  C218 3470   5.133   0.109   8.006  0.1665  0.5966 -0.2010
   26SAPC  H18R 3471   5.173   0.023   7.949 -1.9554 -0.5658 -0.0562
   26SAPC  H18S 3472   5.034   0.078   8.047  0.4116  1.1586  0.8469
   26SAPC  C219 3473   5.227   0.138   8.121  0.0961  0.6864  0.4933
   26SAPC  H19R 3474   5.211   0.232   8.177 -2.0157 -1.1322  3.2023
   26SAPC  H19S 3475   5.324   0.142   8.066 -1.2992  2.0365 -2.0718
   26SAPC  C220 3476   5.233   0.017   8.215 -0.1600  0.1067 -0.1680
   26SAPC  H20R 3477   5.220  -0.085   8.173 -0.6235 -0.8877  2.2289
   26SAPC  H20S 3478   5.149   0.031   8.286 -1.0864 -2.7309 -0.5950
   26SAPC  H20T 3479   5.333   0.009   8.263 -0.2251 -1.2240 -0.2233
   26SAPC   C33 3480   5.533   0.083   6.779 -0.7229 -0.4272 -0.0336
   26SAPC   H3X 3481   5.476   0.176   6.758  0.8769  0.3217 -1.3147
   26SAPC   H3Y 3482   5.614   0.116   6.848 -2.5384  0.4652  1.7473
   26SAPC   C34 3483   5.455  -0.038   6.836 -0.2117 -0.7861 -0.5387
   26SAPC   H4X 3484   5.518  -0.130   6.840 -0.9950 -1.2943  2.2328
   26SAPC   H4Y 3485   5.366  -0.052   6.772 -0.0383 -1.0838 -0.7162
   26SAPC   C35 3486   5.421  -0.009   6.985  0.0522  0.5147  0.1928
   26SAPC   H5X 3487   5.329  -0.056   7.024  0.8457 -0.6600  0.7045
   26SAPC   H5Y 3488   5.391   0.097   6.997  1.6025  0.8975  1.0610
   26SAPC   C36 3489   5.543  -0.023   7.083  0.0525 -0.3617 -0.4238
   26SAPC   H6X 3490   5.624   0.048   7.054 -0.3072  0.9776  1.6556
   26SAPC   H6Y 3491   5.587  -0.124   7.070  1.5245  0.3870 -1.6428
   26SAPC   C37 3492   5.524   0.001   7.233  0.3814 -0.4856 -0.8110
   26SAPC   H7X 3493   5.449  -0.073   7.266 -1.7312  1.1566 -1.7214
   26SAPC   H7Y 3494   5.477   0.101   7.247  0.4810 -0.8079  2.5438
   26SAPC   C38 3495   5.654  -0.024   7.313  0.0866  0.0091 -0.0503
   26SAPC   H8X 3496   5.741   0.034   7.277 -0.7281 -0.0125 -2.2481
   26SAPC   H8Y 3497   5.678  -0.133   7.320 -0.3139 -0.1481 -0.9900
   26SAPC   C39 3498   5.626   0.000   7.458 -0.0359 -0.1859 -0.0981
   26SAPC   H9X 3499   5.710  -0.054   7.507  1.0336  1.8984  0.4926
   26SAPC   H9Y 3500   5.533  -0.044   7.501  0.3756 -0.6054  0.3755
   26SAPC  C310 3501   5.629   0.150   7.485  0.4679  0.3113 -0.2000
   26SAPC  H10X 3502   5.526   0.191   7.480  0.8279  1.3183  0.3877
   26SAPC  H10Y 3503   5.694   0.191   7.405  0.3673  0.3601 -0.2566
   26SAPC  C311 3504   5.689   0.177   7.621  0.0877 -0.4164 -0.0541
   26SAPC  H11X 3505   5.698   0.286   7.640 -1.1534 -0.1145 -1.0734
   26SAPC  H11Y 3506   5.778   0.114   7.641 -0.7397 -1.7231 -0.3354
   26SAPC  C312 3507   5.598   0.143   7.741 -0.3518 -0.6775  0.3416
   26SAPC  H12X 3508   5.547   0.046   7.726  0.2135 -0.8306 -0.7253
   26SAPC  H12Y 3509   5.518   0.219   7.756 -0.0040 -0.1040 -0.5530
   26SAPC  C313 3510   5.680   0.131   7.875 -0.2548  0.2171  0.6499
   26SAPC  H13X 3511   5.763   0.058   7.861 -2.7807 -2.8379  0.2933
   26SAPC  H13Y 3512   5.616   0.098   7.959 -0.5636  0.6727  0.5962
   26SAPC  C314 3513   5.717   0.269   7.938  0.1939 -0.5986 -0.8487
   26SAPC  H14X 3514   5.636   0.343   7.921  0.9256  0.6569  0.9216
   26SAPC  H14Y 3515   5.812   0.307   7.895 -0.1011  0.0564 -0.9387
   26SAPC  C315 3516   5.746   0.258   8.085  0.3382  0.0831 -0.3136
   26SAPC  H15X 3517   5.795   0.352   8.119 -0.2279 -0.5891  2.6316
   26SAPC  H15Y 3518   5.806   0.168   8.110 -1.2583 -1.0944 -0.6106
   26SAPC  C316 3519   5.618   0.227   8.170 -0.3773  0.2237  0.1960
   26SAPC  H16X 3520   5.582   0.123   8.151  1.4272  0.0376 -2.9202
   26SAPC  H16Y 3521   5.535   0.287   8.127 -1.0776 -0.1930  0.9280
   26SAPC  C317 3522   5.630   0.262   8.313 -0.0460  0.4930  0.1098
   26SAPC  H17X 3523   5.533   0.234   8.359 -0.3346 -0.0891 -0.8272
   26SAPC  H17Y 3524   5.640   0.373   8.313 -0.2847  0.5296 -1.1842
   26SAPC  C318 3525   5.743   0.194   8.398 -0.0834  0.6303  0.1453
   26SAPC  H18X 3526   5.747   0.246   8.497  0.6101  4.1320 -1.5750
   26SAPC  H18Y 3527   5.839   0.208   8.344 -0.7930 -0.0693 -1.3506
   26SAPC  H18Z 3528   5.722   0.086   8.415 -2.6181  1.1676  0.8843
   27SAPC     N 3529   4.256   4.383   6.361  1.0173  0.2450 -0.1923
   27SAPC   C12 3530   4.329   4.297   6.463 -0.5343 -0.1975  1.3037
   27SAPC  H12A 3531   4.427   4.283   6.419 -1.5146 -0.0753 -1.1040
   27SAPC  H12B 3532   4.276   4.203   6.469 -2.0875  0.6701  1.5795
   27SAPC   C13 3533   4.116   4.422   6.412  0.1743  0.2064  0.6525
   27SAPC  H13A 3534   4.067   4.490   6.344 -0.7970  0.3495  1.4805
   27SAPC  H13B 3535   4.060   4.333   6.435 -1.8099  1.5174  1.1201
   27SAPC  H13C 3536   4.124   4.474   6.506  1.1515 -1.7160  1.6941
   27SAPC   C14 3537   4.329   4.510   6.328  0.5443 -0.5886 -0.4529
   27SAPC  H14A 3538   4.284   4.570   6.251  0.5114  0.8991  0.6890
   27SAPC  H14B 3539   4.343   4.571   6.416  0.7567  0.5678 -1.2794
   27SAPC  H14C 3540   4.429   4.502   6.287  0.4538 -2.0794 -0.4424
   27SAPC   C15 3541   4.237   4.307   6.230 -0.5179  0.1130  0.6064
   27SAPC  H15A 3542   4.192   4.371   6.156  0.7600  0.1788 -0.1285
   27SAPC  H15B 3543   4.335   4.287   6.191 -0.4051  1.1979  0.3090
   27SAPC  H15C 3544   4.183   4.214   6.242  2.0739 -1.2871  2.5522
   27SAPC   C11 3545   4.354   4.355   6.603 -0.6423  0.7033 -0.7965
   27SAPC  H11A 3546   4.398   4.456   6.600  0.9183  0.1539  1.3061
   27SAPC  H11B 3547   4.437   4.297   6.647 -0.1797  1.0274 -1.2325
   27SAPC     P 3548   4.194   4.230   6.767 -0.3410 -0.0160  0.7759
   27SAPC   O13 3549   4.064   4.264   6.834  0.1519 -0.1866 -0.0416
   27SAPC   O14 3550   4.188   4.119   6.672 -0.2059  0.0556 -0.1531
   27SAPC   O12 3551   4.240   4.356   6.685 -0.4694 -0.3320  0.4720
   27SAPC   O11 3552   4.300   4.210   6.884 -0.5964 -0.1467 -0.2377
   27SAPC    C1 3553   4.317   4.303   6.989  0.8556  0.0640  0.2565
   27SAPC    HA 3554   4.229   4.367   7.008  0.1707 -0.5191 -0.8553
   27SAPC    HB 3555   4.335   4.232   7.072 -3.1230 -1.2865  0.1424
   27SAPC    C2 3556   4.426   4.413   6.977 -0.0441 -0.6899  0.3300
   27SAPC    HS 3557   4.421   4.476   6.886  1.8668  0.0313  0.6917
   27SAPC   O21 3558   4.560   4.353   6.975  0.2829  0.6429  0.3382
   27SAPC   C21 3559   4.659   4.433   6.928  0.5711 -0.1655 -1.0870
   27SAPC   O22 3560   4.650   4.549   6.901 -0.8544 -0.0895  0.6980
   27SAPC   C22 3561   4.784   4.355   6.926  0.3066  0.2570  0.1423
   27SAPC   H2R 3562   4.782   4.317   7.031  1.0213 -0.2836 -0.0359
   27SAPC   H2S 3563   4.783   4.264   6.864 -0.2824 -0.3247  0.9780
   27SAPC    C3 3564   4.413   4.525   7.097 -0.4749 -1.0124  0.6537
   27SAPC    HX 3565   4.330   4.595   7.074  2.8699  2.9988 -0.4779
   27SAPC    HY 3566   4.495   4.600   7.092 -0.9048 -0.5905 -0.5943
   27SAPC   O31 3567   4.411   4.461   7.228  0.2963 -0.8256  0.4073
   27SAPC   C31 3568   4.280   4.441   7.275 -0.1355 -0.5457 -0.7180
   27SAPC   O32 3569   4.176   4.458   7.213 -0.4984  0.4398 -0.3287
   27SAPC   C32 3570   4.292   4.370   7.412  0.0959 -0.4117 -0.9656
   27SAPC   H2X 3571   4.280   4.448   7.490  1.5660  0.5505 -1.6544
   27SAPC   H2Y 3572   4.397   4.335   7.421 -0.4732 -1.6757  1.7108
   27SAPC   C23 3573   4.907   4.448   6.895  0.2057  0.4238  0.2618
   27SAPC   H3R 3574   4.878   4.532   6.829  0.5648 -0.8804 -1.6359
   27SAPC   H3S 3575   4.982   4.385   6.842  1.1481 -1.3778  3.4738
   27SAPC   C24 3576   4.978   4.495   7.021  0.5513  0.3736 -0.3035
   27SAPC   H4R 3577   5.085   4.511   6.996  0.8535 -1.2585 -0.2108
   27SAPC   H4S 3578   4.981   4.422   7.105 -1.4489 -0.2161 -0.7110
   27SAPC   C25 3579   4.906   4.622   7.063  0.1613  0.0855  0.4182
   27SAPC   H5R 3580   4.913   4.706   6.992 -2.1846 -0.5359 -0.6775
   27SAPC   C26 3581   4.857   4.644   7.186 -0.4137  0.0272 -0.0033
   27SAPC   H6R 3582   4.812   4.744   7.201 -0.0425  0.0265  1.2213
   27SAPC   C27 3583   4.844   4.555   7.300  0.2240  0.4572  0.0919
   27SAPC   H7R 3584   4.917   4.583   7.379  0.8949  0.9596 -0.6908
   27SAPC   H7S 3585   4.865   4.449   7.274 -0.1917  0.5981 -0.8549
   27SAPC   C28 3586   4.706   4.563   7.362  0.4237  0.9294 -0.9392
   27SAPC   H8R 3587   4.639   4.639   7.320 -1.5590  0.6247  1.4163
   27SAPC   C29 3588   4.662   4.488   7.470  0.2891 -0.5970  0.3761
   27SAPC   H9R 3589   4.561   4.501   7.513 -0.6507 -1.3506 -1.4653
   27SAPC  C210 3590   4.742   4.379   7.542  0.0978 -0.2177  0.1372
   27SAPC  H10R 3591   4.730   4.395   7.651  1.0620 -0.8838  0.3585
   27SAPC  H10S 3592   4.853   4.382   7.534  0.0948 -0.3070  0.0501
   27SAPC  C211 3593   4.704   4.241   7.496  0.0971  0.1938  0.4414
   27SAPC  H11R 3594   4.718   4.231   7.388 -1.6940 -0.6686  0.2557
   27SAPC  C212 3595   4.656   4.145   7.577  0.3642  0.0381  0.1062
   27SAPC  H12R 3596   4.635   4.045   7.537  1.4067 -1.2696  2.5652
   27SAPC  C213 3597   4.652   4.153   7.731 -0.4129  0.3791 -0.4982
   27SAPC  H13R 3598   4.553   4.193   7.764 -1.6206 -1.1076 -2.1299
   27SAPC  H13S 3599   4.719   4.233   7.770 -0.6820  0.6794 -0.6429
   27SAPC  C214 3600   4.674   4.024   7.797  0.0582  0.2566 -0.2616
   27SAPC  H14R 3601   4.583   3.967   7.822  1.7268 -2.3522  0.2106
   27SAPC  C215 3602   4.800   3.974   7.833  0.8883  0.1364  0.7890
   27SAPC  H15R 3603   4.803   3.869   7.867 -3.3595  0.1583  1.8338
   27SAPC  C216 3604   4.931   4.033   7.798 -0.0943  0.3777 -0.0914
   27SAPC  H16R 3605   4.923   4.131   7.746  0.4847  0.5299  0.0949
   27SAPC  H16S 3606   4.986   3.965   7.729  0.1003 -1.0928  1.4492
   27SAPC  C217 3607   5.007   4.064   7.928  0.2373  0.5027  0.0665
   27SAPC  H17R 3608   5.019   3.973   7.991 -0.4266  0.6828  0.4644
   27SAPC  H17S 3609   4.940   4.136   7.980 -2.1944 -2.1625  0.8992
   27SAPC  C218 3610   5.144   4.125   7.907 -0.4787 -0.7149 -0.1999
   27SAPC  H18R 3611   5.132   4.221   7.853  2.9626 -0.1697 -0.2512
   27SAPC  H18S 3612   5.198   4.063   7.832 -2.7124 -1.3734 -1.3366
   27SAPC  C219 3613   5.223   4.133   8.037  0.4137  0.0979  0.1276
   27SAPC  H19R 3614   5.247   4.029   8.068  1.0220 -0.4802 -2.1123
   27SAPC  H19S 3615   5.170   4.184   8.120  0.0335  0.0728 -0.0949
   27SAPC  C220 3616   5.354   4.210   8.012  0.7574  0.0883  0.6875
   27SAPC  H20R 3617   5.419   4.155   7.941  0.7972  1.8336 -0.7114
   27SAPC  H20S 3618   5.411   4.227   8.106  0.6106  0.8385  0.6442
   27SAPC  H20T 3619   5.320   4.305   7.965 -2.3121 -2.4745 -2.8582
   27SAPC   C33 3620   4.190   4.256   7.434  0.2773  0.3110  0.3717
   27SAPC   H3X 3621   4.195   4.192   7.343  1.1336  1.2857 -0.2945
   27SAPC   H3Y 3622   4.091   4.305   7.417 -0.1004  0.1664  1.9573
   27SAPC   C34 3623   4.210   4.185   7.569 -0.9885 -0.3525  0.1754
   27SAPC   H4X 3624   4.228   4.272   7.637  2.0496  0.2386 -1.2161
   27SAPC   H4Y 3625   4.307   4.130   7.563 -0.3510  0.7424  0.1278
   27SAPC   C35 3626   4.085   4.105   7.605 -0.0240  0.7373  0.6320
   27SAPC   H5X 3627   4.053   4.045   7.517  1.5080 -2.2315  1.9473
   27SAPC   H5Y 3628   3.996   4.167   7.627 -2.3410 -1.7924 -0.9382
   27SAPC   C36 3629   4.112   4.009   7.722  0.5045 -0.4526  0.5927
   27SAPC   H6X 3630   4.186   3.929   7.698  1.5232  0.3621  0.8991
   27SAPC   H6Y 3631   4.020   3.958   7.757  0.8708 -0.9999  0.7796
   27SAPC   C37 3632   4.155   4.087   7.843  0.2218 -0.1098  0.0392
   27SAPC   H7X 3633   4.064   4.145   7.868 -0.7719 -1.2937 -0.6683
   27SAPC   H7Y 3634   4.234   4.161   7.817  0.5921 -1.3890 -2.9083
   27SAPC   C38 3635   4.198   3.996   7.957  0.5509  0.0354 -0.6564
   27SAPC   H8X 3636   4.273   3.924   7.918 -2.3572 -1.9900 -2.9685
   27SAPC   H8Y 3637   4.104   3.945   7.988  0.6215  1.1536  1.5609
   27SAPC   C39 3638   4.245   4.085   8.079 -0.2478  0.8061  0.2472
   27SAPC   H9X 3639   4.266   4.007   8.154  2.4904 -0.0928 -1.2867
   27SAPC   H9Y 3640   4.178   4.166   8.115 -0.8387 -0.7659  2.9057
   27SAPC  C310 3641   4.376   4.152   8.045  0.2859 -0.3043  0.0933
   27SAPC  H10X 3642   4.351   4.258   8.025 -2.5674 -1.1770 -1.5543
   27SAPC  H10Y 3643   4.437   4.097   7.971 -0.5681  0.7141 -1.4098
   27SAPC  C311 3644   4.459   4.165   8.177  0.1047  0.6531 -0.4990
   27SAPC  H11X 3645   4.505   4.073   8.218  0.7951  1.5522  0.7883
   27SAPC  H11Y 3646   4.394   4.203   8.259 -0.7795  0.2410 -0.9865
   27SAPC  C312 3647   4.587   4.256   8.159 -0.2122 -0.3572  0.6066
   27SAPC  H12X 3648   4.558   4.344   8.097 -0.3144 -1.4512 -0.9411
   27SAPC  H12Y 3649   4.668   4.211   8.097 -0.9928 -0.2201 -0.5456
   27SAPC  C313 3650   4.645   4.313   8.298  0.2474 -0.3762  0.1416
   27SAPC  H13X 3651   4.567   4.389   8.320  1.5390  0.8633  0.6298
   27SAPC  H13Y 3652   4.728   4.383   8.273 -0.2166 -0.6138 -2.3485
   27SAPC  C314 3653   4.673   4.220   8.413 -0.3060  0.0078  0.5360
   27SAPC  H14X 3654   4.615   4.126   8.410 -0.7295  0.2075  1.9474
   27SAPC  H14Y 3655   4.646   4.258   8.514 -1.8130 -0.1111  0.2162
   27SAPC  C315 3656   4.819   4.194   8.406  0.2944  0.0965 -0.3128
   27SAPC  H15X 3657   4.881   4.282   8.436  1.6778 -1.2064  0.7832
   27SAPC  H15Y 3658   4.849   4.177   8.300 -0.1752 -2.0883 -0.1466
   27SAPC  C316 3659   4.848   4.073   8.498 -0.1535 -0.1260 -0.4359
   27SAPC  H16X 3660   4.818   3.979   8.447  0.6234 -0.9271  0.5317
   27SAPC  H16Y 3661   4.796   4.092   8.594 -1.8384  1.6015 -1.6173
   27SAPC  C317 3662   5.001   4.062   8.539 -0.5931  0.8541  0.0397
   27SAPC  H17X 3663   5.030   4.151   8.598 -1.3523  0.0177  1.7737
   27SAPC  H17Y 3664   5.064   4.054   8.448 -1.8756  1.0454 -0.8862
   27SAPC  C318 3665   5.032   3.944   8.635 -0.5739  0.1340 -0.3491
   27SAPC  H18X 3666   4.981   3.848   8.610  1.5089 -0.7776 -1.3296
   27SAPC  H18Y 3667   4.993   3.975   8.735  0.1280  1.4087 -0.4472
   27SAPC  H18Z 3668   5.138   3.920   8.657 -0.3783  0.5930 -0.7740
   28SAPC     N 3669   2.916   1.204   6.070 -0.0260 -0.3474  0.0829
   28SAPC   C12 3670   2.792   1.255   6.004 -0.1917 -0.3349  0.5570
   28SAPC  H12A 3671   2.767   1.194   5.917 -1.1020 -0.3900  0.8460
   28SAPC  H12B 3672   2.800   1.352   5.959  1.5963 -0.5021  0.4262
   28SAPC   C13 3673   3.041   1.228   5.985  0.0675  0.3904  0.1284
   28SAPC  H13A 3674   3.058   1.169   5.896  2.3328  0.3903  0.5063
   28SAPC  H13B 3675   3.052   1.331   5.954  1.6988 -0.2400 -1.5967
   28SAPC  H13C 3676   3.130   1.215   6.045 -0.4203  0.3209  0.8448
   28SAPC   C14 3677   2.936   1.288   6.204  0.6541 -0.0928 -0.0216
   28SAPC  H14A 3678   2.850   1.276   6.269 -0.4671  0.0449 -1.4231
   28SAPC  H14B 3679   3.023   1.255   6.258  1.8830  1.7409 -0.7973
   28SAPC  H14C 3680   2.962   1.390   6.180  0.5507  0.1034  0.6714
   28SAPC   C15 3681   2.909   1.059   6.100  0.0879 -0.1745  0.0934
   28SAPC  H15A 3682   3.001   1.019   6.140  0.6299  0.4172 -0.5158
   28SAPC  H15B 3683   2.821   1.042   6.159 -0.7885 -1.1045 -1.4248
   28SAPC  H15C 3684   2.888   0.999   6.012 -1.3188 -0.5929  0.7012
   28SAPC   C11 3685   2.666   1.257   6.103  0.1843  0.4062 -0.3305
   28SAPC  H11A 3686   2.584   1.289   6.035 -0.0370  0.5967  0.0249
   28SAPC  H11B 3687   2.675   1.325   6.191 -0.2905 -0.5093  0.4511
   28SAPC     P 3688   2.517   1.111   6.258 -0.2170  0.6259 -0.1219
   28SAPC   O13 3689   2.401   1.180   6.204 -0.4393  0.3593 -0.3216
   28SAPC   O14 3690   2.493   0.969   6.300 -0.1651  0.4877  0.3188
   28SAPC   O12 3691   2.634   1.124   6.153  0.4802  0.1205  0.4351
   28SAPC   O11 3692   2.559   1.187   6.383 -0.2809 -0.1554  0.6866
   28SAPC    C1 3693   2.669   1.148   6.462 -0.1981  0.1757 -0.4003
   28SAPC    HA 3694   2.732   1.063   6.428 -0.8500 -0.1617 -0.7957
   28SAPC    HB 3695   2.739   1.234   6.467 -0.0787  0.1851 -1.8347
   28SAPC    C2 3696   2.627   1.133   6.612 -0.4536  0.2533 -0.1349
   28SAPC    HS 3697   2.721   1.138   6.671 -1.0474  3.8778  0.7168
   28SAPC   O21 3698   2.553   1.012   6.627 -0.2052  0.4205  0.2477
   28SAPC   C21 3699   2.630   0.902   6.646  0.1825 -0.8225  0.1827
   28SAPC   O22 3700   2.751   0.908   6.649 -0.2357  0.6928  0.0024
   28SAPC   C22 3701   2.537   0.783   6.668 -0.0588  0.6260  0.2580
   28SAPC   H2R 3702   2.427   0.797   6.660 -0.0597  0.3231 -0.3601
   28SAPC   H2S 3703   2.577   0.704   6.600 -1.7202  0.7173 -0.8748
   28SAPC    C3 3704   2.543   1.262   6.660 -0.3852 -0.0067  0.5311
   28SAPC    HX 3705   2.448   1.260   6.602 -0.6421 -3.5422  0.8857
   28SAPC    HY 3706   2.605   1.345   6.620 -1.1069  0.6726  0.7871
   28SAPC   O31 3707   2.542   1.279   6.804 -0.4281 -0.4470 -0.2310
   28SAPC   C31 3708   2.463   1.201   6.866  0.5576  0.1120 -0.9723
   28SAPC   O32 3709   2.381   1.132   6.811 -0.0307  0.5813 -0.4382
   28SAPC   C32 3710   2.489   1.210   7.016  0.6647 -0.0748  0.1056
   28SAPC   H2X 3711   2.595   1.233   7.039  0.7101 -0.3421  0.1721
   28SAPC   H2Y 3712   2.464   1.109   7.055  2.4524 -0.1287  1.2073
   28SAPC   C23 3713   2.570   0.728   6.807  0.8166 -0.1314  0.2057
   28SAPC   H3R 3714   2.669   0.749   6.852 -0.3132  0.2632  2.7141
   28SAPC   H3S 3715   2.562   0.617   6.801 -3.5495 -0.1070  1.6429
   28SAPC   C24 3716   2.472   0.792   6.910 -0.0918 -0.0346  0.3425
   28SAPC   H4R 3717   2.507   0.888   6.953 -0.8282  0.0106  0.8628
   28SAPC   H4S 3718   2.378   0.814   6.854  0.7128 -1.9805 -1.9580
   28SAPC   C25 3719   2.439   0.690   7.024 -0.0400 -0.0232  0.4312
   28SAPC   H5R 3720   2.435   0.586   6.988 -0.3035  0.5950 -1.4300
   28SAPC   C26 3721   2.445   0.708   7.156  0.5873 -0.1672  0.1268
   28SAPC   H6R 3722   2.424   0.621   7.220 -2.9839  0.5865  0.1773
   28SAPC   C27 3723   2.473   0.836   7.225  0.2113  0.1306  0.5821
   28SAPC   H7R 3724   2.385   0.888   7.268  1.6966  2.3805  1.0884
   28SAPC   H7S 3725   2.502   0.918   7.156 -1.4693 -0.1854 -0.5579
   28SAPC   C28 3726   2.572   0.816   7.340  0.0437 -0.1231 -0.0083
   28SAPC   H8R 3727   2.676   0.836   7.309  0.0527  0.7680  0.5819
   28SAPC   C29 3728   2.544   0.811   7.475 -0.0048 -0.3072  0.2743
   28SAPC   H9R 3729   2.623   0.792   7.550  0.9652 -0.3753 -0.7291
   28SAPC  C210 3730   2.410   0.815   7.549 -0.4236  0.7822  0.1430
   28SAPC  H10R 3731   2.331   0.846   7.477 -1.0191  0.2230  0.5454
   28SAPC  H10S 3732   2.424   0.894   7.626 -3.5795  1.5312  0.0797
   28SAPC  C211 3733   2.376   0.684   7.614 -0.5527 -0.2892  0.6465
   28SAPC  H11R 3734   2.447   0.602   7.598 -0.4227 -0.2401  0.9610
   28SAPC  C212 3735   2.281   0.671   7.713  0.1361 -0.2274  0.2300
   28SAPC  H12R 3736   2.262   0.570   7.750  0.2965 -0.5919 -0.6483
   28SAPC  C213 3737   2.201   0.791   7.766 -0.3066 -0.0985 -0.3502
   28SAPC  H13R 3738   2.167   0.866   7.692 -1.0815  0.8026  0.8885
   28SAPC  H13S 3739   2.263   0.847   7.839  1.0424  0.2512 -1.6978
   28SAPC  C214 3740   2.085   0.732   7.827  0.3493 -0.3716 -0.0031
   28SAPC  H14R 3741   2.038   0.653   7.766  0.3664 -1.5054  1.4109
   28SAPC  C215 3742   2.011   0.771   7.931 -0.3745  0.0606  0.1390
   28SAPC  H15R 3743   1.924   0.706   7.952 -0.6734 -0.2002 -1.7239
   28SAPC  C216 3744   2.032   0.885   8.021 -0.7808  0.3365  0.4845
   28SAPC  H16R 3745   2.038   0.981   7.966  1.8939  0.8219  1.4745
   28SAPC  H16S 3746   2.117   0.866   8.091 -3.0389 -0.8888  3.1143
   28SAPC  C217 3747   1.918   0.914   8.123  0.1987 -0.7845 -1.4886
   28SAPC  H17R 3748   1.920   0.817   8.177  1.4765 -0.2117 -0.4545
   28SAPC  H17S 3749   1.823   0.946   8.075  0.1194 -0.9939 -1.4757
   28SAPC  C218 3750   1.954   1.030   8.222 -0.3518 -0.1020 -0.6299
   28SAPC  H18R 3751   1.869   1.032   8.293 -1.7716 -2.4095 -2.1252
   28SAPC  H18S 3752   1.953   1.129   8.172 -2.0154 -0.0173 -0.4897
   28SAPC  C219 3753   2.087   1.014   8.295 -0.4373 -0.3240  0.8477
   28SAPC  H19R 3754   2.174   1.019   8.225  0.2829  3.0406  1.7853
   28SAPC  H19S 3755   2.083   0.914   8.344  0.4778 -0.1037  1.4053
   28SAPC  C220 3756   2.111   1.128   8.400 -0.6225 -0.1926  0.1434
   28SAPC  H20R 3757   2.172   1.088   8.484 -0.4862 -0.5178 -0.1064
   28SAPC  H20S 3758   2.015   1.158   8.448 -0.5447  0.0881  0.1233
   28SAPC  H20T 3759   2.154   1.214   8.346 -1.1226 -1.2110 -1.9969
   28SAPC   C33 3760   2.412   1.328   7.082  0.2002 -0.1194  0.5194
   28SAPC   H3X 3761   2.323   1.355   7.021 -0.7647  0.0095  1.9377
   28SAPC   H3Y 3762   2.480   1.415   7.085  0.6558 -0.4349 -0.4464
   28SAPC   C34 3763   2.359   1.289   7.227 -0.2565  0.2221  0.3845
   28SAPC   H4X 3764   2.305   1.192   7.223  1.0160 -0.4889 -0.0628
   28SAPC   H4Y 3765   2.291   1.366   7.270  0.7353  0.4039  1.7309
   28SAPC   C35 3766   2.487   1.281   7.323  0.0400  0.1559 -0.0030
   28SAPC   H5X 3767   2.522   1.385   7.306 -2.0508  0.8853 -0.1458
   28SAPC   H5Y 3768   2.560   1.204   7.292  1.1849  0.1066  2.5575
   28SAPC   C36 3769   2.438   1.277   7.469 -0.4209  0.2492 -0.2110
   28SAPC   H6X 3770   2.346   1.218   7.488 -0.6388  0.4624 -0.6017
   28SAPC   H6Y 3771   2.402   1.374   7.510 -1.0143  0.0038 -0.1444
   28SAPC   C37 3772   2.549   1.243   7.571 -0.0342  0.5904  0.4582
   28SAPC   H7X 3773   2.614   1.333   7.571  1.4619 -0.4108 -0.9457
   28SAPC   H7Y 3774   2.600   1.153   7.530 -1.5562 -0.3027  0.4650
   28SAPC   C38 3775   2.508   1.207   7.716 -0.4452 -0.7125  0.1994
   28SAPC   H8X 3776   2.459   1.108   7.714  0.0961 -0.9807 -1.4469
   28SAPC   H8Y 3777   2.432   1.277   7.759  0.8536 -0.2107  1.7702
   28SAPC   C39 3778   2.625   1.193   7.822  0.9499 -0.9965  0.6350
   28SAPC   H9X 3779   2.690   1.283   7.828 -0.3590  0.1386 -1.0309
   28SAPC   H9Y 3780   2.692   1.110   7.792  2.8073 -0.2399  2.4698
   28SAPC  C310 3781   2.564   1.160   7.960  0.0581 -0.9830 -0.3298
   28SAPC  H10X 3782   2.479   1.230   7.975 -0.0216 -1.2157  0.3617
   28SAPC  H10Y 3783   2.638   1.186   8.039 -0.3042  1.5958 -0.7541
   28SAPC  C311 3784   2.506   1.019   7.975 -0.1517 -0.0776  0.0017
   28SAPC  H11X 3785   2.440   0.981   7.894 -2.2577 -0.9259  1.9916
   28SAPC  H11Y 3786   2.451   1.023   8.071  0.6664 -0.9625  0.5226
   28SAPC  C312 3787   2.610   0.914   8.001 -0.5260 -0.3545  0.3271
   28SAPC  H12X 3788   2.684   0.938   8.081 -0.3136 -1.6815  0.5688
   28SAPC  H12Y 3789   2.685   0.906   7.919 -0.8294  1.2113 -0.1347
   28SAPC  C313 3790   2.558   0.776   8.042 -0.6594 -1.1454  0.0095
   28SAPC  H13X 3791   2.642   0.705   8.055  0.6663  0.3103 -0.3508
   28SAPC  H13Y 3792   2.505   0.728   7.957  0.3320 -0.3461 -1.0958
   28SAPC  C314 3793   2.463   0.774   8.175  0.1584  0.1728 -0.7684
   28SAPC  H14X 3794   2.375   0.840   8.168 -0.4578 -0.0900  2.6506
   28SAPC  H14Y 3795   2.525   0.805   8.262 -0.7284  3.0521 -1.0800
   28SAPC  C315 3796   2.420   0.637   8.216 -0.5855 -0.1275  0.4850
   28SAPC  H15X 3797   2.511   0.574   8.219  0.5498  1.2117 -1.9553
   28SAPC  H15Y 3798   2.346   0.599   8.143 -0.8927  3.5767 -1.4243
   28SAPC  C316 3799   2.347   0.632   8.351 -0.4225 -0.1427 -0.1671
   28SAPC  H16X 3800   2.296   0.534   8.353  1.3344 -1.1346 -1.1775
   28SAPC  H16Y 3801   2.275   0.716   8.356  1.5935  1.7694 -1.1479
   28SAPC  C317 3802   2.446   0.623   8.464  0.4118 -0.0693  0.4381
   28SAPC  H17X 3803   2.508   0.715   8.460  0.1141  0.1364  0.4912
   28SAPC  H17Y 3804   2.521   0.541   8.461 -0.5922 -1.0198  0.8220
   28SAPC  C318 3805   2.370   0.614   8.599 -0.2051  0.2915 -0.6506
   28SAPC  H18X 3806   2.295   0.695   8.608  1.0534  1.5502 -1.0435
   28SAPC  H18Y 3807   2.448   0.617   8.679 -2.4493 -0.5107  1.6892
   28SAPC  H18Z 3808   2.323   0.514   8.611 -2.3156  1.2570 -0.4227
   29SAPC     N 3809   5.131   3.279   5.935  0.0781  0.1021 -0.2040
   29SAPC   C12 3810   5.059   3.411   5.903 -0.6926  0.6842 -0.7459
   29SAPC  H12A 3811   4.961   3.397   5.947 -0.1874  0.7111  0.4399
   29SAPC  H12B 3812   5.047   3.421   5.797  0.7356  2.2061 -0.8074
   29SAPC   C13 3813   5.061   3.174   5.855  0.7079  0.0450 -1.0425
   29SAPC  H13A 3814   5.094   3.072   5.863 -0.1974 -0.1423  0.9322
   29SAPC  H13B 3815   4.957   3.166   5.881  0.6256  0.1139 -1.3429
   29SAPC  H13C 3816   5.054   3.205   5.751 -1.8312  0.9287 -0.6736
   29SAPC   C14 3817   5.275   3.266   5.906  0.2022  0.7520 -0.1052
   29SAPC  H14A 3818   5.308   3.168   5.937 -2.9662 -1.0125 -1.7394
   29SAPC  H14B 3819   5.292   3.271   5.799 -0.7546 -2.2327 -0.4850
   29SAPC  H14C 3820   5.324   3.349   5.954  1.3862  1.4516 -2.3710
   29SAPC   C15 3821   5.109   3.258   6.084  0.1816  0.3881 -0.2543
   29SAPC  H15A 3822   5.153   3.342   6.135 -2.0958  1.8111 -0.5060
   29SAPC  H15B 3823   5.003   3.242   6.100  0.1849  0.8378  0.2643
   29SAPC  H15C 3824   5.151   3.168   6.128  1.1400  0.4859 -0.9371
   29SAPC   C11 3825   5.120   3.549   5.964  0.5051  0.0291 -0.0759
   29SAPC  H11A 3826   5.075   3.637   5.914  1.7222  0.9761  0.4213
   29SAPC  H11B 3827   5.228   3.564   5.943  0.0923  1.1341 -1.5963
   29SAPC     P 3828   4.975   3.594   6.167 -0.1745  0.0737 -0.0382
   29SAPC   O13 3829   4.959   3.744   6.161 -0.5220  0.6791  0.0940
   29SAPC   O14 3830   4.869   3.518   6.101 -0.0221 -0.3921 -0.1620
   29SAPC   O12 3831   5.118   3.556   6.109  0.3321  0.0352 -0.2493
   29SAPC   O11 3832   4.982   3.546   6.320 -0.3624  0.5754 -0.2923
   29SAPC    C1 3833   5.037   3.636   6.416  0.7420 -0.6714 -0.9655
   29SAPC    HA 3834   5.069   3.569   6.500 -1.2026 -2.0135 -1.2270
   29SAPC    HB 3835   5.124   3.695   6.381  0.6828 -0.8899 -1.4938
   29SAPC    C2 3836   4.925   3.732   6.475 -0.4849  0.2841 -0.5935
   29SAPC    HS 3837   4.900   3.817   6.408  0.4123 -0.4582 -1.9129
   29SAPC   O21 3838   4.968   3.777   6.606  0.5231 -0.2765 -0.2671
   29SAPC   C21 3839   5.020   3.891   6.614 -0.0527 -0.3099  0.2114
   29SAPC   O22 3840   5.042   3.969   6.525  0.2347  0.5741  0.3330
   29SAPC   C22 3841   5.045   3.930   6.763  0.4461 -0.1068 -0.0123
   29SAPC   H2R 3842   4.946   3.918   6.811  0.4466  1.9433  0.6407
   29SAPC   H2S 3843   5.121   3.857   6.799  0.2735 -1.1286 -1.6734
   29SAPC    C3 3844   4.789   3.656   6.489  0.0595  0.4700  0.3085
   29SAPC    HX 3845   4.758   3.607   6.394 -1.0789  1.6346  0.0623
   29SAPC    HY 3846   4.716   3.737   6.507 -0.6355 -0.1333  0.2327
   29SAPC   O31 3847   4.791   3.555   6.590  0.6680  0.3975 -0.5199
   29SAPC   C31 3848   4.751   3.583   6.715 -0.6306  0.0056  0.1085
   29SAPC   O32 3849   4.709   3.687   6.760 -0.4301  0.2637  0.0977
   29SAPC   C32 3850   4.737   3.454   6.791  0.8960  0.1797 -0.9964
   29SAPC   H2X 3851   4.833   3.397   6.788  1.6497  1.4155 -1.1394
   29SAPC   H2Y 3852   4.662   3.387   6.744  0.1548 -0.4446  0.9874
   29SAPC   C23 3853   5.093   4.074   6.788 -0.0503  0.6141  0.3439
   29SAPC   H3R 3854   5.037   4.152   6.733 -0.3754  0.6546  0.7354
   29SAPC   H3S 3855   5.198   4.090   6.756  0.4627 -0.1694  1.5455
   29SAPC   C24 3856   5.080   4.119   6.935 -0.7115 -0.1841 -0.2419
   29SAPC   H4R 3857   4.975   4.125   6.971 -0.6754 -2.6307  0.4388
   29SAPC   H4S 3858   5.124   4.220   6.949 -0.7580 -0.0770 -0.8229
   29SAPC   C25 3859   5.139   4.017   7.028 -0.1263 -0.0692 -0.4592
   29SAPC   H5R 3860   5.205   3.938   6.989  1.1097  1.7579 -2.2777
   29SAPC   C26 3861   5.119   4.010   7.164  0.2159 -0.0478  0.5528
   29SAPC   H6R 3862   5.161   3.932   7.230 -0.9039 -2.2073 -1.1492
   29SAPC   C27 3863   5.032   4.114   7.228 -0.1210  0.8746  0.3830
   29SAPC   H7R 3864   4.925   4.118   7.198 -0.6396 -0.9336  1.7903
   29SAPC   H7S 3865   5.065   4.214   7.193  0.8344  1.1398  1.9409
   29SAPC   C28 3866   5.030   4.120   7.381  0.5310 -0.1101 -0.4596
   29SAPC   H8R 3867   4.980   4.044   7.442  2.2569  0.4375  1.7887
   29SAPC   C29 3868   5.107   4.209   7.454 -0.0905  0.5335 -0.3734
   29SAPC   H9R 3869   5.087   4.202   7.562  0.1247 -2.8449 -0.4458
   29SAPC  C210 3870   5.203   4.311   7.408 -1.0152  0.9974 -0.2520
   29SAPC  H10R 3871   5.225   4.303   7.299  2.2703 -0.9830  0.4230
   29SAPC  H10S 3872   5.300   4.290   7.458 -2.5478 -0.0755  2.4361
   29SAPC  C211 3873   5.179   4.457   7.435  0.2289  0.1308 -0.1586
   29SAPC  H11R 3874   5.125   4.517   7.360 -0.4236  0.7624  0.7853
   29SAPC  C212 3875   5.208   4.521   7.547  0.6204 -0.4082  0.0450
   29SAPC  H12R 3876   5.195   4.630   7.541 -1.4018 -0.7021 -3.1123
   29SAPC  C213 3877   5.272   4.461   7.667  0.0635 -0.1133 -0.2299
   29SAPC  H13R 3878   5.243   4.353   7.673  0.5057 -0.3573 -1.9563
   29SAPC  H13S 3879   5.230   4.503   7.761  0.9509 -0.4677  0.3379
   29SAPC  C214 3880   5.426   4.479   7.670  0.6597 -0.0453  0.4391
   29SAPC  H14R 3881   5.478   4.406   7.607 -0.6993 -0.3365 -0.3916
   29SAPC  C215 3882   5.491   4.564   7.755 -0.0217 -0.0253  0.1886
   29SAPC  H15R 3883   5.599   4.578   7.741  0.2712  0.3259  2.4064
   29SAPC  C216 3884   5.433   4.670   7.849  0.0663 -0.5564  0.3437
   29SAPC  H16R 3885   5.323   4.677   7.839 -0.3315 -2.8713  2.1918
   29SAPC  H16S 3886   5.479   4.766   7.816 -2.3624  0.1103 -1.3896
   29SAPC  C217 3887   5.470   4.632   7.996  0.4498  1.4938  0.0730
   29SAPC  H17R 3888   5.433   4.529   8.017  1.4484  0.7550 -1.5700
   29SAPC  H17S 3889   5.436   4.696   8.080  1.9134 -0.2525  2.1340
   29SAPC  C218 3890   5.615   4.644   8.036 -0.7562  0.0125  0.0673
   29SAPC  H18R 3891   5.641   4.752   8.026  0.6276 -0.3698 -0.7582
   29SAPC  H18S 3892   5.672   4.570   7.975 -1.7566  0.7325 -1.7933
   29SAPC  C219 3893   5.637   4.617   8.179  0.5669  0.1614  0.3395
   29SAPC  H19R 3894   5.578   4.524   8.194 -0.0840  0.1755 -1.8482
   29SAPC  H19S 3895   5.587   4.695   8.240 -1.2975  0.5569 -1.5850
   29SAPC  C220 3896   5.777   4.593   8.213 -0.6008  0.2983  0.2071
   29SAPC  H20R 3897   5.806   4.486   8.204 -0.7424 -0.0011  2.7013
   29SAPC  H20S 3898   5.786   4.626   8.319 -0.0802  3.0800 -0.6067
   29SAPC  H20T 3899   5.855   4.656   8.165 -0.0793  1.9352  2.9948
   29SAPC   C33 3900   4.699   3.466   6.941  0.1976  0.4991 -0.5078
   29SAPC   H3X 3901   4.598   3.506   6.964  0.9267  1.2300  1.6952
   29SAPC   H3Y 3902   4.763   3.538   6.996 -0.3376 -0.4176  1.4134
   29SAPC   C34 3903   4.699   3.329   7.016 -0.1510 -1.5995  0.1287
   29SAPC   H4X 3904   4.789   3.276   6.979  0.2479  0.7016 -2.5556
   29SAPC   H4Y 3905   4.614   3.266   6.984 -1.0264 -0.5446  0.3029
   29SAPC   C35 3906   4.674   3.343   7.166 -0.3549  0.2499  0.3673
   29SAPC   H5X 3907   4.572   3.382   7.187 -0.6505 -1.8117  3.2220
   29SAPC   H5Y 3908   4.746   3.410   7.218  0.3757 -1.6813  1.9365
   29SAPC   C36 3909   4.689   3.208   7.239 -0.1239  0.2815 -0.1108
   29SAPC   H6X 3910   4.787   3.163   7.215  0.9162  2.7899 -0.9450
   29SAPC   H6Y 3911   4.608   3.138   7.210 -0.7528  2.3437 -4.0602
   29SAPC   C37 3912   4.675   3.231   7.396 -0.5128 -0.1133  0.3499
   29SAPC   H7X 3913   4.568   3.258   7.408 -0.6127 -0.3056 -0.1056
   29SAPC   H7Y 3914   4.729   3.319   7.438  0.1599 -0.9541  1.2820
   29SAPC   C38 3915   4.717   3.105   7.477  0.0852  0.6144 -0.4935
   29SAPC   H8X 3916   4.820   3.071   7.454 -0.0624 -1.7359  1.8468
   29SAPC   H8Y 3917   4.639   3.029   7.452  0.0239  0.9391 -1.3513
   29SAPC   C39 3918   4.718   3.147   7.625 -0.4765  0.3971 -0.5576
   29SAPC   H9X 3919   4.617   3.119   7.661 -0.2177 -0.9976 -0.8432
   29SAPC   H9Y 3920   4.745   3.254   7.628  1.1567  0.1920 -3.5777
   29SAPC  C310 3921   4.835   3.080   7.708 -0.3424 -0.3095  0.7811
   29SAPC  H10X 3922   4.933   3.121   7.676 -0.8545  0.9948  0.8250
   29SAPC  H10Y 3923   4.829   2.971   7.687 -0.1553 -0.2246  0.2722
   29SAPC  C311 3924   4.810   3.097   7.857  0.4701  0.1475  0.1119
   29SAPC  H11X 3925   4.704   3.083   7.889  0.8573  0.7498  1.7534
   29SAPC  H11Y 3926   4.841   3.201   7.880  0.1371  0.1866  0.3942
   29SAPC  C312 3927   4.901   2.999   7.934  0.1427  0.1090  0.0131
   29SAPC  H12X 3928   4.922   3.031   8.038 -0.0258 -1.7496  0.6698
   29SAPC  H12Y 3929   5.000   2.985   7.887  1.7021  1.5858  2.6450
   29SAPC  C313 3930   4.829   2.866   7.958  0.4686 -0.6835 -0.6790
   29SAPC  H13X 3931   4.819   2.816   7.859  0.0618 -1.6512 -0.1604
   29SAPC  H13Y 3932   4.727   2.876   8.000  0.9265 -0.2516  0.3534
   29SAPC  C314 3933   4.897   2.759   8.041 -1.0221  1.0736 -0.5917
   29SAPC  H14X 3934   4.914   2.790   8.146  1.9763  1.7675 -1.1786
   29SAPC  H14Y 3935   5.000   2.739   8.006 -0.3714  2.2662  0.5431
   29SAPC  C315 3936   4.808   2.630   8.040  0.4629  0.2857 -0.5253
   29SAPC  H15X 3937   4.803   2.596   7.934 -1.2312 -2.5063  0.3495
   29SAPC  H15Y 3938   4.710   2.665   8.079  0.7442 -0.7391  1.2061
   29SAPC  C316 3939   4.855   2.514   8.133 -0.1660  0.1132  0.4238
   29SAPC  H16X 3940   4.874   2.547   8.237 -0.8152 -0.3519  0.6907
   29SAPC  H16Y 3941   4.951   2.476   8.091  1.2799  3.6041  0.2513
   29SAPC  C317 3942   4.759   2.400   8.131  1.1013 -0.0858 -0.8422
   29SAPC  H17X 3943   4.654   2.433   8.143  2.1110  2.5808  2.1508
   29SAPC  H17Y 3944   4.794   2.344   8.221 -1.1277  2.2307  1.6453
   29SAPC  C318 3945   4.771   2.305   8.011  0.0566  0.5661  0.2675
   29SAPC  H18X 3946   4.713   2.211   8.020 -0.8126  1.2337  2.0371
   29SAPC  H18Y 3947   4.878   2.282   8.027  0.1579  0.4083 -0.5820
   29SAPC  H18Z 3948   4.764   2.342   7.906 -0.3611 -0.2730 -0.0043
   30SAPC     N 3949   5.426   4.756   5.764  0.1102  0.6544  0.8933
   30SAPC   C12 3950   5.360   4.670   5.878 -0.4030 -0.3704  0.5004
   30SAPC  H12A 3951   5.374   4.567   5.848  0.5685 -0.1908  0.2938
   30SAPC  H12B 3952   5.253   4.684   5.872 -0.5036 -0.2113  2.2474
   30SAPC   C13 3953   5.571   4.725   5.734 -0.8962  0.3250 -0.2209
   30SAPC  H13A 3954   5.579   4.622   5.703  2.6287  1.0140 -2.0672
   30SAPC  H13B 3955   5.605   4.784   5.650  1.9566  0.1300  0.6917
   30SAPC  H13C 3956   5.641   4.740   5.815 -1.0045 -1.2112  0.1883
   30SAPC   C14 3957   5.349   4.732   5.631 -0.5050  0.4548 -0.2113
   30SAPC  H14A 3958   5.342   4.630   5.595 -1.2451  0.6955 -0.7663
   30SAPC  H14B 3959   5.249   4.771   5.635 -1.2473 -1.4552  0.9204
   30SAPC  H14C 3960   5.395   4.793   5.554  0.9707  0.1464  0.3833
   30SAPC   C15 3961   5.422   4.909   5.780  0.0563  0.1097 -0.2716
   30SAPC  H15A 3962   5.328   4.960   5.761 -0.1284  0.8350  2.2732
   30SAPC  H15B 3963   5.450   4.927   5.882 -2.0232 -0.3819  0.4329
   30SAPC  H15C 3964   5.493   4.952   5.710  0.4045  2.7002  1.5427
   30SAPC   C11 3965   5.409   4.709   6.016  0.6731  0.3553 -0.2838
   30SAPC  H11A 3966   5.336   4.657   6.081 -1.2092 -0.0597 -2.5835
   30SAPC  H11B 3967   5.396   4.818   6.031 -1.3974 -0.0837  1.4622
   30SAPC     P 3968   5.665   4.757   6.079  0.2498  0.1537 -0.0660
   30SAPC   O13 3969   5.779   4.731   5.992  0.3938 -0.0617  0.6824
   30SAPC   O14 3970   5.629   4.902   6.096 -0.3237  0.2017 -0.3487
   30SAPC   O12 3971   5.543   4.665   6.029  0.0662 -0.0126  0.2942
   30SAPC   O11 3972   5.689   4.698   6.228 -0.3706  0.2233 -0.4582
   30SAPC    C1 3973   5.590   4.664   6.321 -0.4042 -0.9666 -0.3121
   30SAPC    HA 3974   5.491   4.696   6.281  0.3002 -1.5906 -2.7208
   30SAPC    HB 3975   5.590   4.553   6.330  0.0361 -1.1803 -2.4654
   30SAPC    C2 3976   5.616   4.725   6.459 -0.1603  0.0507 -0.0376
   30SAPC    HS 3977   5.632   4.834   6.445  0.5449 -0.0016  0.2861
   30SAPC   O21 3978   5.734   4.665   6.517  0.0922 -0.3319  0.0061
   30SAPC   C21 3979   5.802   4.742   6.601  0.5014  0.0768  0.0024
   30SAPC   O22 3980   5.791   4.865   6.619 -0.1575  0.2545  0.2288
   30SAPC   C22 3981   5.910   4.668   6.670 -0.3224 -0.1295  0.1755
   30SAPC   H2R 3982   5.879   4.561   6.676  3.5958 -1.7641 -3.3455
   30SAPC   H2S 3983   5.995   4.662   6.599 -0.8561 -0.3026 -0.4709
   30SAPC    C3 3984   5.495   4.706   6.546 -0.1702 -0.2910 -0.0147
   30SAPC    HX 3985   5.467   4.599   6.558 -4.2490  0.5840 -0.2725
   30SAPC    HY 3986   5.407   4.746   6.490  0.6755  1.4825 -0.1264
   30SAPC   O31 3987   5.512   4.761   6.681  0.9470 -0.2138  0.3017
   30SAPC   C31 3988   5.461   4.879   6.708 -0.3458  0.2564  0.5016
   30SAPC   O32 3989   5.392   4.942   6.627 -0.4635  0.0725  0.4808
   30SAPC   C32 3990   5.500   4.920   6.847  0.2721 -0.4670  0.0871
   30SAPC   H2X 3991   5.610   4.912   6.856  0.7222  1.7688 -2.1729
   30SAPC   H2Y 3992   5.462   4.851   6.925 -1.9372  0.8972  0.3159
   30SAPC   C23 3993   5.950   4.722   6.807  0.7985  0.6253 -0.3210
   30SAPC   H3R 3994   5.935   4.831   6.821 -2.1160 -0.0028  2.7875
   30SAPC   H3S 3995   6.060   4.717   6.819  0.6323  0.8131  1.7021
   30SAPC   C24 3996   5.871   4.650   6.921  0.1423 -0.4210 -0.7392
   30SAPC   H4R 3997   5.853   4.542   6.901 -0.9149 -0.5514  0.7604
   30SAPC   H4S 3998   5.772   4.700   6.929  0.3735  0.2914 -1.9995
   30SAPC   C25 3999   5.922   4.671   7.062 -0.2102  1.1383  0.3215
   30SAPC   H5R 4000   5.949   4.772   7.097  0.8724  0.1987  2.3841
   30SAPC   C26 4001   5.942   4.580   7.156 -0.1706 -0.8517 -0.0152
   30SAPC   H6R 4002   5.976   4.614   7.255 -1.7757 -0.6790  0.5028
   30SAPC   C27 4003   5.914   4.433   7.137 -0.0241 -0.0307 -0.0476
   30SAPC   H7R 4004   6.014   4.386   7.145 -0.5483 -1.1117  0.4334
   30SAPC   H7S 4005   5.873   4.404   7.038 -3.7651  0.0266  1.3290
   30SAPC   C28 4006   5.819   4.380   7.241  0.1391  0.0950  0.9423
   30SAPC   H8R 4007   5.715   4.408   7.219  0.3163 -1.4569 -2.6277
   30SAPC   C29 4008   5.848   4.315   7.354  0.3624  0.4535  0.8493
   30SAPC   H9R 4009   5.767   4.291   7.424 -0.4885  0.5190 -0.0900
   30SAPC  C210 4010   5.987   4.276   7.398  0.4706 -0.4068  0.8409
   30SAPC  H10R 4011   6.055   4.255   7.313  0.6633  2.6111  0.1173
   30SAPC  H10S 4012   5.980   4.172   7.437 -0.7935  0.0571  1.9420
   30SAPC  C211 4013   6.063   4.361   7.499 -0.3778 -0.2640 -0.1118
   30SAPC  H11R 4014   6.122   4.434   7.443  1.2140 -1.7763 -0.4752
   30SAPC  C212 4015   6.065   4.368   7.637 -0.1678  0.1636 -0.3166
   30SAPC  H12R 4016   6.134   4.437   7.688  0.4799 -0.1189 -0.7864
   30SAPC  C213 4017   6.002   4.269   7.735 -0.1337 -0.3494 -0.0446
   30SAPC  H13R 4018   6.061   4.273   7.828 -1.1572 -1.3588  0.6805
   30SAPC  H13S 4019   6.003   4.166   7.693  1.6171 -0.0475 -0.8387
   30SAPC  C214 4020   5.855   4.315   7.762 -0.4413 -0.0162 -0.3905
   30SAPC  H14R 4021   5.843   4.419   7.795 -0.2982  0.5978 -2.2187
   30SAPC  C215 4022   5.739   4.246   7.752  0.0277  0.1182  0.1293
   30SAPC  H15R 4023   5.647   4.300   7.778 -0.3939 -0.3878 -0.2850
   30SAPC  C216 4024   5.737   4.095   7.731 -0.4476 -0.3267  0.5393
   30SAPC  H16R 4025   5.837   4.056   7.758 -0.6643  0.3210  2.3923
   30SAPC  H16S 4026   5.737   4.069   7.623 -2.8424  0.3246  0.3107
   30SAPC  C217 4027   5.625   4.013   7.809  0.0276  0.0502  0.1818
   30SAPC  H17R 4028   5.628   4.042   7.916 -1.0145 -2.8512  1.0817
   30SAPC  H17S 4029   5.665   3.909   7.804  0.9942  0.4106  0.1448
   30SAPC  C218 4030   5.487   4.019   7.734 -0.4424 -0.0842 -0.3272
   30SAPC  H18R 4031   5.469   4.127   7.715 -0.4183  0.0152  0.2130
   30SAPC  H18S 4032   5.415   3.978   7.808 -1.7574  0.4700 -1.2548
   30SAPC  C219 4033   5.492   3.943   7.605 -0.0316 -0.1161  0.3957
   30SAPC  H19R 4034   5.531   3.841   7.625 -2.1362 -1.7791 -2.9845
   30SAPC  H19S 4035   5.563   4.003   7.545 -2.2902  0.9792 -1.3178
   30SAPC  C220 4036   5.357   3.930   7.541  0.6265  0.3246  0.1199
   30SAPC  H20R 4037   5.291   3.852   7.585  2.2897 -0.4701  1.3025
   30SAPC  H20S 4038   5.369   3.897   7.435  1.9358  0.9881  0.0485
   30SAPC  H20T 4039   5.296   4.023   7.544 -1.3929 -0.8207 -1.9520
   30SAPC   C33 4040   5.446   5.060   6.878 -0.4086  0.7371 -0.1537
   30SAPC   H3X 4041   5.337   5.079   6.870 -0.4779  0.7998  0.8425
   30SAPC   H3Y 4042   5.504   5.141   6.828  1.9862  0.2369  1.6439
   30SAPC   C34 4043   5.464   5.095   7.028 -0.2051 -1.0079 -0.4796
   30SAPC   H4X 4044   5.570   5.125   7.040  0.4323 -1.9354 -3.2735
   30SAPC   H4Y 4045   5.436   5.010   7.094 -0.7447  1.7534  3.1931
   30SAPC   C35 4046   5.366   5.208   7.079 -0.2933  0.2882 -0.0943
   30SAPC   H5X 4047   5.259   5.178   7.080 -0.7729  1.8679  1.8776
   30SAPC   H5Y 4048   5.369   5.293   7.008  0.3286  0.9009  0.6484
   30SAPC   C36 4049   5.404   5.266   7.214 -0.1551 -0.3844  0.7989
   30SAPC   H6X 4050   5.339   5.350   7.247 -0.1325 -1.2982  3.4228
   30SAPC   H6Y 4051   5.506   5.310   7.210 -0.6006  0.6328  0.5107
   30SAPC   C37 4052   5.425   5.179   7.333 -0.5661 -0.6683 -0.2000
   30SAPC   H7X 4053   5.498   5.099   7.307  1.5499  0.8575  0.7484
   30SAPC   H7Y 4054   5.332   5.121   7.353 -0.7030 -1.5676 -3.0664
   30SAPC   C38 4055   5.479   5.257   7.457 -0.2334 -1.0532  0.7609
   30SAPC   H8X 4056   5.397   5.305   7.514 -1.5281  1.0281 -2.5277
   30SAPC   H8Y 4057   5.535   5.347   7.425 -2.4105  0.1861  0.1609
   30SAPC   C39 4058   5.558   5.170   7.554 -1.2151  0.2305  0.7099
   30SAPC   H9X 4059   5.644   5.126   7.498 -1.8216 -2.8210  1.9467
   30SAPC   H9Y 4060   5.489   5.088   7.585 -0.5030 -0.2043  1.1810
   30SAPC  C310 4061   5.597   5.234   7.685  0.7906 -0.2294 -0.4531
   30SAPC  H10X 4062   5.507   5.291   7.716  0.3476 -0.3465 -1.4866
   30SAPC  H10Y 4063   5.685   5.302   7.678  2.6756 -2.5586 -0.7163
   30SAPC  C311 4064   5.636   5.123   7.785  0.0830 -0.1737  0.0326
   30SAPC  H11X 4065   5.727   5.070   7.749 -0.2059 -0.4183 -0.3395
   30SAPC  H11Y 4066   5.554   5.050   7.801 -2.5812  1.7503 -3.3498
   30SAPC  C312 4067   5.672   5.177   7.928 -0.2530 -0.6305 -0.3293
   30SAPC  H12X 4068   5.753   5.253   7.931  0.5285 -1.4612 -0.0336
   30SAPC  H12Y 4069   5.702   5.091   7.992  1.1317  0.4095  0.4652
   30SAPC  C313 4070   5.541   5.236   7.992 -0.2065  0.2526 -0.1536
   30SAPC  H13X 4071   5.447   5.191   7.954  1.1043 -2.4800 -0.4053
   30SAPC  H13Y 4072   5.551   5.344   7.969  2.7335 -0.1721 -1.3780
   30SAPC  C314 4073   5.557   5.233   8.144  0.1198  0.0325  0.0808
   30SAPC  H14X 4074   5.653   5.269   8.186  1.2895 -3.2343  0.5240
   30SAPC  H14Y 4075   5.540   5.127   8.173  0.6034 -0.2749 -0.7476
   30SAPC  C315 4076   5.447   5.328   8.201  0.4905 -0.1267  0.5402
   30SAPC  H15X 4077   5.355   5.279   8.163  1.7711 -0.6319 -2.1666
   30SAPC  H15Y 4078   5.456   5.431   8.160  0.1465  0.0718  0.9577
   30SAPC  C316 4079   5.445   5.336   8.358  0.2893 -0.2686  0.4807
   30SAPC  H16X 4080   5.531   5.388   8.405  0.2008 -1.5542  2.1817
   30SAPC  H16Y 4081   5.438   5.231   8.395  0.4379 -0.4896 -0.1019
   30SAPC  C317 4082   5.318   5.409   8.406  0.5623 -0.2807 -0.2623
   30SAPC  H17X 4083   5.301   5.495   8.339 -0.7806 -1.0394 -0.9285
   30SAPC  H17Y 4084   5.346   5.443   8.508 -0.3469  1.6113 -0.5962
   30SAPC  C318 4085   5.193   5.324   8.420  0.3416  0.1918 -0.3761
   30SAPC  H18X 4086   5.105   5.383   8.454  0.5723  0.0508  0.5047
   30SAPC  H18Y 4087   5.199   5.255   8.507 -1.7483 -1.5110 -1.4946
   30SAPC  H18Z 4088   5.185   5.248   8.340  2.0351  1.5086 -1.8666
   31SAPC     N 4089   1.753   6.394   6.085  0.5306  0.5459  0.4535
   31SAPC   C12 4090   1.680   6.263   6.072 -0.7228  1.0049  0.2217
   31SAPC  H12A 4091   1.719   6.216   5.983 -1.1051  1.7750 -0.3676
   31SAPC  H12B 4092   1.572   6.271   6.073 -0.7918  1.0181 -2.2839
   31SAPC   C13 4093   1.733   6.454   6.215 -0.3349  0.3105 -0.1879
   31SAPC  H13A 4094   1.631   6.467   6.248 -0.8078  1.3770 -1.9160
   31SAPC  H13B 4095   1.784   6.393   6.289  0.2799  0.1681 -0.7258
   31SAPC  H13C 4096   1.767   6.555   6.226 -1.9741  1.0331 -1.3313
   31SAPC   C14 4097   1.899   6.378   6.061 -0.5755 -0.6815  0.1814
   31SAPC  H14A 4098   1.946   6.311   6.131 -1.3348  0.3153  1.6932
   31SAPC  H14B 4099   1.909   6.326   5.967 -0.1797 -0.7043  0.2336
   31SAPC  H14C 4100   1.952   6.472   6.058 -1.0844 -0.3818  0.5302
   31SAPC   C15 4101   1.700   6.489   5.986  0.9803 -0.1543  0.4934
   31SAPC  H15A 4102   1.757   6.581   5.990  0.3680  0.1971  1.5426
   31SAPC  H15B 4103   1.702   6.455   5.883  2.5473  1.7468 -0.1713
   31SAPC  H15C 4104   1.596   6.512   6.005  0.8670 -0.8676  0.7786
   31SAPC   C11 4105   1.695   6.144   6.171 -0.9240  0.3170  0.4434
   31SAPC  H11A 4106   1.798   6.145   6.213 -0.6438 -2.5367 -0.0288
   31SAPC  H11B 4107   1.688   6.043   6.127 -0.9887 -1.1930  3.6402
   31SAPC     P 4108   1.474   6.155   6.297  0.0873  0.0961 -0.0127
   31SAPC   O13 4109   1.416   6.201   6.167  0.8111 -0.2751  0.5075
   31SAPC   O14 4110   1.445   6.017   6.321 -0.0519  0.5005 -0.2645
   31SAPC   O12 4111   1.622   6.169   6.290 -0.3941 -0.1840 -0.2153
   31SAPC   O11 4112   1.425   6.241   6.420  0.7879  0.1738  0.2506
   31SAPC    C1 4113   1.442   6.195   6.555  0.2389 -0.4749 -0.4913
   31SAPC    HA 4114   1.380   6.257   6.624  0.6576 -1.6640  1.0004
   31SAPC    HB 4115   1.393   6.097   6.573 -0.7482  0.3450  1.6851
   31SAPC    C2 4116   1.582   6.211   6.612 -0.6380 -0.6355  0.3829
   31SAPC    HS 4117   1.659   6.157   6.552  0.7688 -0.3664  1.8708
   31SAPC   O21 4118   1.587   6.181   6.751  0.2280 -0.9014  0.0560
   31SAPC   C21 4119   1.652   6.083   6.794 -0.0303 -0.3160 -0.1998
   31SAPC   O22 4120   1.734   6.016   6.730 -0.4123 -0.5948 -0.1822
   31SAPC   C22 4121   1.632   6.072   6.943 -0.4022 -0.5001  0.6248
   31SAPC   H2R 4122   1.682   6.163   6.984 -1.4951  1.3264 -1.7792
   31SAPC   H2S 4123   1.521   6.069   6.953 -0.9737  0.2316 -3.5731
   31SAPC    C3 4124   1.623   6.359   6.598 -0.4353 -0.0726 -0.2161
   31SAPC    HX 4125   1.537   6.407   6.650  0.4367 -1.0792  2.3661
   31SAPC    HY 4126   1.629   6.389   6.492  0.3824 -1.0066 -0.4439
   31SAPC   O31 4127   1.739   6.386   6.682  0.2127 -0.3567  0.5576
   31SAPC   C31 4128   1.856   6.367   6.629 -0.5398 -0.2312  0.3201
   31SAPC   O32 4129   1.880   6.334   6.516  0.4652 -1.3859  0.2828
   31SAPC   C32 4130   1.957   6.400   6.731 -1.4420  0.2655 -0.6585
   31SAPC   H2X 4131   1.932   6.352   6.828 -1.4242  1.4261 -0.0666
   31SAPC   H2Y 4132   1.959   6.507   6.760  0.7106  0.3430 -0.9032
   31SAPC   C23 4133   1.698   5.944   6.995  0.0596  0.7218  0.6606
   31SAPC   H3R 4134   1.804   5.952   6.963 -0.1076 -0.6800 -0.2815
   31SAPC   H3S 4135   1.638   5.869   6.940  1.8358  1.4115 -2.4595
   31SAPC   C24 4136   1.688   5.915   7.143 -0.2023 -0.3213 -0.1934
   31SAPC   H4R 4137   1.700   5.805   7.156  0.9383 -0.3312 -1.1888
   31SAPC   H4S 4138   1.591   5.954   7.181 -0.3502 -0.2847 -0.5991
   31SAPC   C25 4139   1.796   5.982   7.228 -0.4948  0.0988  0.6887
   31SAPC   H5R 4140   1.821   6.072   7.170  1.5833  0.3784  1.9023
   31SAPC   C26 4141   1.870   5.940   7.329 -0.2431  1.1870 -0.0170
   31SAPC   H6R 4142   1.950   6.002   7.372 -1.2902  1.0079  2.3433
   31SAPC   C27 4143   1.859   5.810   7.403 -0.4476  0.0209 -0.0826
   31SAPC   H7R 4144   1.931   5.818   7.487  0.2785 -0.2348 -0.6644
   31SAPC   H7S 4145   1.897   5.723   7.345  1.2874  2.1707 -2.4167
   31SAPC   C28 4146   1.731   5.782   7.470 -0.0111 -0.3592  0.1340
   31SAPC   H8R 4147   1.663   5.719   7.411 -0.5161  1.7782 -1.7006
   31SAPC   C29 4148   1.696   5.825   7.592 -0.5582 -0.1673  0.0001
   31SAPC   H9R 4149   1.602   5.780   7.628 -1.0598  0.4381 -0.5171
   31SAPC  C210 4150   1.789   5.911   7.687  0.1961  0.0742  0.6083
   31SAPC  H10R 4151   1.724   5.971   7.755  0.4353 -0.6883  1.5345
   31SAPC  H10S 4152   1.855   5.982   7.633  1.6218 -0.3561  1.7476
   31SAPC  C211 4153   1.870   5.820   7.777 -0.7176 -0.3972  0.0551
   31SAPC  H11R 4154   1.975   5.806   7.747 -0.5857  0.5025  0.0696
   31SAPC  C212 4155   1.834   5.748   7.885  0.1435 -0.2560 -0.4592
   31SAPC  H12R 4156   1.909   5.684   7.935 -0.1762 -0.2979 -0.0255
   31SAPC  C213 4157   1.694   5.756   7.949 -0.1773  0.7189  0.6060
   31SAPC  H13R 4158   1.652   5.654   7.942 -3.1556  1.9609 -1.2042
   31SAPC  H13S 4159   1.619   5.817   7.894  0.1832  0.4260 -0.2280
   31SAPC  C214 4160   1.714   5.816   8.090 -0.0380 -0.0411  0.2842
   31SAPC  H14R 4161   1.790   5.895   8.099  0.9272 -0.7773 -1.1515
   31SAPC  C215 4162   1.645   5.775   8.202 -0.3078 -0.5980  0.7770
   31SAPC  H15R 4163   1.675   5.825   8.295 -1.1569 -0.4064  0.9562
   31SAPC  C216 4164   1.550   5.658   8.217  0.2998 -0.5570 -0.2087
   31SAPC  H16R 4165   1.600   5.574   8.166 -0.8180 -2.1378  1.1724
   31SAPC  H16S 4166   1.451   5.678   8.171  1.5710  2.6417 -1.8692
   31SAPC  C217 4167   1.532   5.620   8.369 -0.8336 -0.0401 -0.2101
   31SAPC  H17R 4168   1.504   5.717   8.415 -1.2203  0.7950 -2.1101
   31SAPC  H17S 4169   1.631   5.596   8.414 -0.8063  2.3537  1.1420
   31SAPC  C218 4170   1.427   5.512   8.387  0.0176  0.6386  0.1209
   31SAPC  H18R 4171   1.328   5.549   8.351 -1.5876 -1.1676  2.3822
   31SAPC  H18S 4172   1.410   5.505   8.496 -0.5178  1.7595  0.1188
   31SAPC  C219 4173   1.462   5.373   8.331 -0.0315 -0.4910  0.3751
   31SAPC  H19R 4174   1.481   5.391   8.223 -0.1634 -0.1284  0.4096
   31SAPC  H19S 4175   1.372   5.310   8.332 -0.0526 -0.6025 -2.5414
   31SAPC  C220 4176   1.580   5.302   8.390  0.5164 -0.1932  0.2295
   31SAPC  H20R 4177   1.668   5.367   8.414  1.2613 -0.7630 -0.8549
   31SAPC  H20S 4178   1.600   5.223   8.314 -1.4519 -1.5510  1.0696
   31SAPC  H20T 4179   1.551   5.243   8.479 -3.7951  0.7729 -0.3032
   31SAPC   C33 4180   2.102   6.359   6.682 -0.5071 -0.0760  0.0420
   31SAPC   H3X 4181   2.129   6.419   6.592 -0.2405  0.4489  0.4750
   31SAPC   H3Y 4182   2.106   6.249   6.663  0.5474  0.0413 -0.4985
   31SAPC   C34 4183   2.220   6.394   6.784 -0.2869  1.2668 -0.2320
   31SAPC   H4X 4184   2.195   6.501   6.802 -2.9285  0.5680  0.8749
   31SAPC   H4Y 4185   2.315   6.398   6.727  0.1788 -0.1302  0.4048
   31SAPC   C35 4186   2.235   6.320   6.916  0.2463 -0.6534 -0.5215
   31SAPC   H5X 4187   2.342   6.294   6.932 -0.2812 -1.2983  2.8368
   31SAPC   H5Y 4188   2.189   6.219   6.914 -1.7941  0.1669  0.9100
   31SAPC   C36 4189   2.188   6.393   7.037 -0.4024 -0.6782 -0.5327
   31SAPC   H6X 4190   2.079   6.417   7.033 -0.1553  0.3117 -1.7487
   31SAPC   H6Y 4191   2.233   6.495   7.041 -1.7654  0.0438 -2.0880
   31SAPC   C37 4192   2.205   6.327   7.176 -0.0978 -0.4858 -0.1061
   31SAPC   H7X 4193   2.313   6.307   7.196  0.2760  1.9789  0.6032
   31SAPC   H7Y 4194   2.144   6.234   7.176 -0.3329 -0.4202  2.8345
   31SAPC   C38 4195   2.131   6.400   7.296 -0.6414 -0.6190  0.1828
   31SAPC   H8X 4196   2.032   6.437   7.265 -0.3036  1.6811  1.5745
   31SAPC   H8Y 4197   2.192   6.488   7.326  0.2622 -0.8209 -0.9785
   31SAPC   C39 4198   2.106   6.317   7.420 -0.3596  0.7100  0.4158
   31SAPC   H9X 4199   2.193   6.253   7.447 -0.7200 -0.9233 -1.9436
   31SAPC   H9Y 4200   2.028   6.242   7.395  0.6728 -0.7962  1.5501
   31SAPC  C310 4201   2.071   6.400   7.540 -0.0034  0.3206 -0.4697
   31SAPC  H10X 4202   1.962   6.422   7.540  0.2782  2.2439  2.3339
   31SAPC  H10Y 4203   2.115   6.501   7.545  0.1127  0.2038  1.6334
   31SAPC  C311 4204   2.086   6.332   7.679  0.7562 -0.3471  0.4156
   31SAPC  H11X 4205   2.194   6.308   7.695  0.9740  0.4830  0.2515
   31SAPC  H11Y 4206   2.029   6.238   7.687 -2.2197  1.2600 -0.4052
   31SAPC  C312 4207   2.053   6.431   7.788 -0.1763  0.2422  0.3517
   31SAPC  H12X 4208   1.946   6.460   7.798  0.1882  0.9544  2.8365
   31SAPC  H12Y 4209   2.124   6.514   7.769  2.8791 -2.2535 -0.0847
   31SAPC  C313 4210   2.101   6.377   7.923  0.1124  0.0369  0.0574
   31SAPC  H13X 4211   2.209   6.354   7.913  1.1405  3.2493  2.0547
   31SAPC  H13Y 4212   2.052   6.278   7.936 -1.1532  0.7223  0.6932
   31SAPC  C314 4213   2.085   6.465   8.038  0.0900 -0.0201 -0.5910
   31SAPC  H14X 4214   1.978   6.489   8.057  0.6440  0.4314  2.5551
   31SAPC  H14Y 4215   2.150   6.553   8.022  0.2557 -0.5559 -3.2619
   31SAPC  C315 4216   2.129   6.401   8.172 -0.2021  0.6819  0.4085
   31SAPC  H15X 4217   2.210   6.330   8.146 -1.4589  0.3727 -3.2407
   31SAPC  H15Y 4218   2.044   6.350   8.221  1.5293 -0.8912  1.9492
   31SAPC  C316 4219   2.188   6.510   8.257  0.1869 -0.4650  0.2350
   31SAPC  H16X 4220   2.113   6.590   8.275 -1.9278 -2.0720 -1.0490
   31SAPC  H16Y 4221   2.274   6.561   8.209  0.3687 -1.0966 -0.1194
   31SAPC  C317 4222   2.229   6.464   8.396 -0.2863  0.5688  0.2871
   31SAPC  H17X 4223   2.310   6.388   8.393 -1.0249 -0.3285  1.9204
   31SAPC  H17Y 4224   2.143   6.411   8.442 -1.2612  2.7109  1.0691
   31SAPC  C318 4225   2.279   6.576   8.487  0.2677 -0.2852  0.2718
   31SAPC  H18X 4226   2.192   6.645   8.499 -0.7400 -1.7190  1.5938
   31SAPC  H18Y 4227   2.374   6.623   8.451  0.7528 -1.5929 -0.1986
   31SAPC  H18Z 4228   2.306   6.531   8.585  2.2888 -0.8744 -0.4925
   32SAPC     N 4229   2.539   5.835   5.977  0.0667 -0.5528  0.1063
   32SAPC   C12 4230   2.664   5.762   5.959 -0.2929 -0.3706 -0.4388
   32SAPC  H12A 4231   2.731   5.782   6.042 -1.6344 -0.9515  0.8287
   32SAPC  H12B 4232   2.712   5.796   5.868  1.4296  0.7793  0.8297
   32SAPC   C13 4233   2.551   5.981   5.939 -0.1932  0.2796  0.1017
   32SAPC  H13A 4234   2.463   6.040   5.958 -0.5222 -0.2463  0.2320
   32SAPC  H13B 4235   2.629   6.034   5.991 -1.0322  0.6235  1.0458
   32SAPC  H13C 4236   2.568   5.981   5.832 -1.2898  2.1167 -0.1063
   32SAPC   C14 4237   2.435   5.784   5.888  1.1212 -0.4361  0.6497
   32SAPC  H14A 4238   2.343   5.840   5.896  1.2770 -0.2755  1.4891
   32SAPC  H14B 4239   2.455   5.783   5.782 -0.1325 -0.3925  0.4005
   32SAPC  H14C 4240   2.418   5.679   5.909 -0.2174 -1.1139 -3.0931
   32SAPC   C15 4241   2.480   5.830   6.114 -0.4256  0.6547 -0.3209
   32SAPC  H15A 4242   2.550   5.861   6.190 -2.5906 -0.3970  2.2367
   32SAPC  H15B 4243   2.388   5.887   6.117  0.2711  1.8378 -0.6284
   32SAPC  H15C 4244   2.454   5.727   6.130  2.6443  0.0441  1.5459
   32SAPC   C11 4245   2.654   5.603   5.949 -0.7042  0.4913  0.7600
   32SAPC  H11A 4246   2.750   5.569   5.905 -2.4594 -0.8908 -2.3379
   32SAPC  H11B 4247   2.574   5.571   5.878  2.8528 -0.9119 -2.9623
   32SAPC     P 4248   2.739   5.529   6.183 -0.2909 -0.2644  0.0713
   32SAPC   O13 4249   2.784   5.393   6.171 -0.1918 -0.4287  0.2040
   32SAPC   O14 4250   2.838   5.641   6.170  0.1478  0.0942  0.1293
   32SAPC   O12 4251   2.627   5.554   6.074  0.3120 -0.4595  0.4319
   32SAPC   O11 4252   2.661   5.545   6.314  0.3204  0.4050 -0.7470
   32SAPC    C1 4253   2.709   5.606   6.433  0.1039  0.0206 -0.0975
   32SAPC    HA 4254   2.809   5.655   6.427  0.0143  0.3447  0.9393
   32SAPC    HB 4255   2.630   5.679   6.455 -0.2313 -0.6095  0.8361
   32SAPC    C2 4256   2.709   5.496   6.543  0.4070  0.2533 -0.1866
   32SAPC    HS 4257   2.735   5.399   6.496  1.3314 -0.3363  1.4562
   32SAPC   O21 4258   2.577   5.497   6.606  0.1156 -0.0109  0.0981
   32SAPC   C21 4259   2.536   5.389   6.683 -0.2296 -0.1925 -0.3139
   32SAPC   O22 4260   2.589   5.281   6.685  0.0493 -0.4295 -0.0256
   32SAPC   C22 4261   2.425   5.415   6.781  0.3071 -0.7601  0.9821
   32SAPC   H2R 4262   2.329   5.450   6.738  0.0255  0.4438  2.4672
   32SAPC   H2S 4263   2.412   5.312   6.820 -0.0119 -1.1466 -0.1159
   32SAPC    C3 4264   2.821   5.524   6.646  0.2842  0.5684  0.1749
   32SAPC    HX 4265   2.920   5.506   6.598 -0.5743 -2.0816 -0.7969
   32SAPC    HY 4266   2.805   5.445   6.722  1.6729 -0.6387 -0.7167
   32SAPC   O31 4267   2.816   5.665   6.687  0.1103 -0.1914 -0.1010
   32SAPC   C31 4268   2.925   5.738   6.698  0.5935 -1.0397  0.1904
   32SAPC   O32 4269   3.035   5.699   6.661  0.3983  0.3085 -0.0634
   32SAPC   C32 4270   2.898   5.872   6.765  0.5143 -1.1058 -0.6611
   32SAPC   H2X 4271   2.806   5.863   6.826  0.6304  3.1340  0.4497
   32SAPC   H2Y 4272   2.872   5.943   6.684 -1.9944 -0.9341  0.2285
   32SAPC   C23 4273   2.462   5.521   6.891  0.4824  0.3361 -0.6432
   32SAPC   H3R 4274   2.379   5.534   6.965 -0.5435 -2.2964 -1.2167
   32SAPC   H3S 4275   2.483   5.619   6.844  0.6252 -0.6006 -2.6212
   32SAPC   C24 4276   2.585   5.496   6.979  0.9948  0.7383 -0.2247
   32SAPC   H4R 4277   2.671   5.455   6.920  1.1737  0.4836  0.2067
   32SAPC   H4S 4278   2.564   5.416   7.053  2.9791  0.3157 -0.0524
   32SAPC   C25 4279   2.633   5.619   7.045  0.9593 -0.5525 -1.3550
   32SAPC   H5R 4280   2.677   5.684   6.968  0.4203  0.3299 -0.9365
   32SAPC   C26 4281   2.625   5.655   7.177 -0.5867  0.7130 -0.4634
   32SAPC   H6R 4282   2.659   5.755   7.207 -1.5068  1.1061 -0.7186
   32SAPC   C27 4283   2.558   5.564   7.279  0.3735  0.6506 -0.5524
   32SAPC   H7R 4284   2.467   5.517   7.235  0.8770 -2.2326  1.2471
   32SAPC   H7S 4285   2.518   5.614   7.370  1.6577  0.0601  0.3534
   32SAPC   C28 4286   2.641   5.448   7.327  1.3145 -0.3743 -0.1446
   32SAPC   H8R 4287   2.600   5.350   7.300 -1.3700  0.1528  1.5813
   32SAPC   C29 4288   2.748   5.459   7.402 -0.5220  0.3290 -0.5472
   32SAPC   H9R 4289   2.800   5.369   7.438  1.8964  1.9232  0.2266
   32SAPC  C210 4290   2.817   5.589   7.448 -0.3755 -0.2304  0.1736
   32SAPC  H10R 4291   2.833   5.640   7.351  0.7082  0.2826  0.6007
   32SAPC  H10S 4292   2.919   5.562   7.485 -0.4237 -0.3202  0.2427
   32SAPC  C211 4293   2.746   5.690   7.532 -0.0821 -0.0780  0.2247
   32SAPC  H11R 4294   2.664   5.741   7.479 -0.2481 -0.4470  0.1269
   32SAPC  C212 4295   2.743   5.699   7.668 -0.4136  0.5743  0.1543
   32SAPC  H12R 4296   2.679   5.777   7.711  1.0807  0.9863  1.7543
   32SAPC  C213 4297   2.827   5.611   7.755 -0.1514  0.2672  0.3999
   32SAPC  H13R 4298   2.869   5.522   7.703 -1.6573  0.1824 -0.7622
   32SAPC  H13S 4299   2.767   5.562   7.835  1.4130  0.2908  1.6417
   32SAPC  C214 4300   2.952   5.672   7.812 -0.3636  0.8884 -0.2030
   32SAPC  H14R 4301   3.043   5.639   7.760 -0.5504 -1.0905  0.6323
   32SAPC  C215 4302   2.948   5.764   7.910 -0.5848  0.1891  0.4940
   32SAPC  H15R 4303   3.050   5.791   7.941 -0.4662 -0.5045  0.7457
   32SAPC  C216 4304   2.838   5.808   8.000 -0.6403 -0.1653 -0.6510
   32SAPC  H16R 4305   2.737   5.770   7.972 -0.6168 -0.3719 -0.4534
   32SAPC  H16S 4306   2.826   5.919   8.003  2.1413  0.1836  1.2776
   32SAPC  C217 4307   2.882   5.766   8.147 -0.3518  0.7733  0.2898
   32SAPC  H17R 4308   2.811   5.814   8.219  0.0265 -0.4028  1.4905
   32SAPC  H17S 4309   2.978   5.815   8.175 -0.1382  1.8386 -2.0972
   32SAPC  C218 4310   2.870   5.614   8.171  0.8911  0.6607  0.0897
   32SAPC  H18R 4311   2.842   5.552   8.084 -0.5644 -1.7362  2.1044
   32SAPC  H18S 4312   2.803   5.587   8.255  0.8631  1.3287  0.2887
   32SAPC  C219 4313   2.995   5.543   8.222 -0.2798 -0.0159 -0.4297
   32SAPC  H19R 4314   3.061   5.548   8.133  2.3548 -4.6924  0.8990
   32SAPC  H19S 4315   2.966   5.436   8.230  0.1824 -0.1907 -0.9708
   32SAPC  C220 4316   3.057   5.608   8.345 -0.5139 -0.2189  0.4266
   32SAPC  H20R 4317   2.983   5.598   8.427 -1.2045  0.5421 -0.0788
   32SAPC  H20S 4318   3.074   5.718   8.339  2.2159 -0.6027 -0.3857
   32SAPC  H20T 4319   3.151   5.557   8.374 -0.1547  0.9975  1.5001
   32SAPC   C33 4320   3.014   5.949   6.831 -0.3146 -0.2604  0.1429
   32SAPC   H3X 4321   3.048   6.006   6.743 -3.8239  1.4546 -0.2331
   32SAPC   H3Y 4322   3.103   5.887   6.859  0.6208  0.2654 -1.5275
   32SAPC   C34 4323   2.965   6.037   6.941  0.0476  0.7079 -0.6018
   32SAPC   H4X 4324   2.886   6.102   6.898 -1.8434 -1.0183  0.1172
   32SAPC   H4Y 4325   3.050   6.101   6.972  0.2753 -0.6444  1.8323
   32SAPC   C35 4326   2.923   5.975   7.083  0.9888  0.0087  0.0681
   32SAPC   H5X 4327   2.831   5.915   7.063 -0.3771  1.9902  0.0533
   32SAPC   H5Y 4328   2.879   6.070   7.120  0.3001  1.0409 -3.0419
   32SAPC   C36 4329   3.011   5.902   7.176 -0.2229 -0.1868  0.2909
   32SAPC   H6X 4330   3.014   5.796   7.144  0.2684  0.5009 -2.1423
   32SAPC   H6Y 4331   2.969   5.899   7.279  1.0733  4.1100  1.1599
   32SAPC   C37 4332   3.157   5.947   7.178  0.6272 -0.1063  0.0405
   32SAPC   H7X 4333   3.149   6.057   7.189 -1.4806 -0.2378  0.3192
   32SAPC   H7Y 4334   3.199   5.928   7.077  0.5930 -2.2653  0.3713
   32SAPC   C38 4335   3.246   5.905   7.293  0.5123 -0.0809 -0.0208
   32SAPC   H8X 4336   3.350   5.928   7.262  0.5862 -0.6422 -0.2160
   32SAPC   H8Y 4337   3.244   5.795   7.311  1.2443 -0.3938 -1.6837
   32SAPC   C39 4338   3.210   5.971   7.422 -0.3512  0.3242 -0.1369
   32SAPC   H9X 4339   3.113   5.926   7.452 -0.1738 -0.3919 -0.5999
   32SAPC   H9Y 4340   3.197   6.080   7.403  1.2287  0.7859  1.1489
   32SAPC  C310 4341   3.308   5.943   7.534 -0.0715 -0.3459 -0.2782
   32SAPC  H10X 4342   3.399   5.996   7.500  0.6053 -0.8573  0.7004
   32SAPC  H10Y 4343   3.324   5.833   7.533 -1.6903 -0.7411  2.8345
   32SAPC  C311 4344   3.258   6.003   7.671 -0.0043  0.5324  0.5723
   32SAPC  H11X 4345   3.174   5.937   7.701  0.7358 -1.7872 -2.0566
   32SAPC  H11Y 4346   3.214   6.105   7.663  0.2172  0.8114  2.4670
   32SAPC  C312 4347   3.367   5.993   7.777 -0.3707 -0.4749  0.6302
   32SAPC  H12X 4348   3.436   6.079   7.762 -3.3178  2.3940  2.0836
   32SAPC  H12Y 4349   3.402   5.889   7.760 -0.6750 -0.3344 -1.0997
   32SAPC  C313 4350   3.323   6.005   7.926  0.2147  0.0346 -0.0953
   32SAPC  H13X 4351   3.395   5.941   7.983 -0.2139  0.8218  1.3920
   32SAPC  H13Y 4352   3.224   5.956   7.939 -0.4241  1.3215  0.1042
   32SAPC  C314 4353   3.310   6.142   7.990  0.2871  0.1517 -1.1768
   32SAPC  H14X 4354   3.281   6.214   7.910 -1.0780  2.4066  1.2008
   32SAPC  H14Y 4355   3.415   6.170   8.012  0.4937 -1.9645  0.7946
   32SAPC  C315 4356   3.234   6.145   8.122 -0.2960 -0.4329  0.2564
   32SAPC  H15X 4357   3.132   6.102   8.116 -0.6310  0.5121 -1.4320
   32SAPC  H15Y 4358   3.224   6.250   8.157  1.3508  0.5572 -1.9832
   32SAPC  C316 4359   3.307   6.066   8.234 -0.9461 -0.3837 -1.0725
   32SAPC  H16X 4360   3.412   6.097   8.251 -1.8111  2.5131 -0.5051
   32SAPC  H16Y 4361   3.308   5.958   8.210  0.8861 -0.7272  0.3324
   32SAPC  C317 4362   3.255   6.096   8.378  0.2843 -0.1067 -0.2998
   32SAPC  H17X 4363   3.226   6.203   8.394 -1.3808 -0.6079  0.2588
   32SAPC  H17Y 4364   3.344   6.084   8.443  0.2379 -0.4827 -0.3066
   32SAPC  C318 4365   3.155   5.987   8.417 -0.6654  0.3201  0.0956
   32SAPC  H18X 4366   3.208   5.895   8.384  0.5154  1.2637 -0.7176
   32SAPC  H18Y 4367   3.056   5.988   8.367  0.1612  1.5175 -1.6096
   32SAPC  H18Z 4368   3.134   5.981   8.526 -1.7104  0.9586 -0.0537
   33POPC     N 4369   5.405   2.556  10.842 -0.0328  0.3680  0.2849
   33POPC   C12 4370   5.308   2.477  10.749  0.1227  0.3240 -0.3260
   33POPC  H12A 4371   5.216   2.454  10.800  2.1906 -0.7701  3.2967
   33POPC  H12B 4372   5.355   2.380  10.739 -0.2370  0.0178  0.8501
   33POPC   C13 4373   5.339   2.683  10.885 -0.1730  0.0728  0.3120
   33POPC  H13A 4374   5.406   2.742  10.946 -0.0483  0.9521 -0.6361
   33POPC  H13B 4375   5.315   2.732  10.791  1.0640 -0.2798 -0.2154
   33POPC  H13C 4376   5.248   2.679  10.942  0.1615  1.9778  1.0590
   33POPC   C14 4377   5.429   2.472  10.966 -0.0577  0.7591  0.2233
   33POPC  H14A 4378   5.485   2.386  10.934 -0.5206  0.3895  0.3914
   33POPC  H14B 4379   5.491   2.513  11.044 -1.3541  2.6232  0.3600
   33POPC  H14C 4380   5.338   2.431  11.008 -0.1335 -0.1770 -0.8200
   33POPC   C15 4381   5.539   2.589  10.783  0.1931  0.0347  0.1329
   33POPC  H15A 4382   5.602   2.627  10.861 -0.5917 -0.5580  1.0737
   33POPC  H15B 4383   5.533   2.663  10.704 -0.0450 -0.5196 -0.3807
   33POPC  H15C 4384   5.593   2.504  10.744  0.1053  0.9737 -2.2350
   33POPC   C11 4385   5.295   2.527  10.604 -0.1131  0.1990 -0.3821
   33POPC  H11A 4386   5.240   2.446  10.552 -0.4301 -0.3915  0.8283
   33POPC  H11B 4387   5.397   2.536  10.561  0.9913  0.4987  2.1221
   33POPC     P 4388   5.227   2.730  10.455 -0.3756  0.1455 -0.0766
   33POPC   O13 4389   5.253   2.871  10.475 -0.1002 -0.3148  0.7649
   33POPC   O14 4390   5.102   2.692  10.393 -0.1554  0.2113  0.2064
   33POPC   O12 4391   5.237   2.657  10.595 -0.4429 -0.1101 -0.3441
   33POPC   O11 4392   5.342   2.672  10.367  0.5273 -0.1051 -0.2561
   33POPC    C1 4393   5.327   2.584  10.259  0.9543  0.3591 -0.5063
   33POPC    HA 4394   5.428   2.540  10.240  1.0310  0.1263  0.4144
   33POPC    HB 4395   5.258   2.499  10.278 -0.8480  1.8513 -0.1694
   33POPC    C2 4396   5.277   2.667  10.138 -0.6016 -0.2022 -0.1242
   33POPC    HS 4397   5.172   2.697  10.161 -0.1961  0.3031  1.1333
   33POPC   O21 4398   5.275   2.587  10.021 -0.0542  0.2543 -0.0711
   33POPC   C21 4399   5.189   2.489  10.014  0.5119 -0.1104  0.7303
   33POPC   O22 4400   5.086   2.487  10.084  0.1645  0.5149 -0.0342
   33POPC   C22 4401   5.236   2.385   9.915 -0.3532  0.1066 -0.9160
   33POPC   H2R 4402   5.251   2.297   9.981 -0.2382  0.8719  0.0940
   33POPC   H2S 4403   5.334   2.422   9.878  0.1871  1.9215  2.0431
   33POPC    C3 4404   5.356   2.802  10.098 -0.5254  0.7860  0.4728
   33POPC    HX 4405   5.459   2.761  10.105 -0.4450  1.0689  0.9867
   33POPC    HY 4406   5.355   2.884  10.172  1.4240  1.8867 -0.6559
   33POPC   O31 4407   5.336   2.858   9.970 -0.5385  0.1910 -0.3980
   33POPC   C31 4408   5.229   2.940   9.950 -0.0040  0.9166 -0.2300
   33POPC   O32 4409   5.150   2.974  10.037 -0.1719 -0.2181 -0.4705
   33POPC   C32 4410   5.223   2.985   9.806 -0.1225  0.5136 -0.4432
   33POPC   H2X 4411   5.200   2.899   9.738  0.2463  0.2236 -0.2067
   33POPC   H2Y 4412   5.318   3.039   9.790  1.8992 -1.2265  4.0377
   33POPC   C23 4413   5.141   2.350   9.808  0.3490 -0.5844 -0.2628
   33POPC   H3R 4414   5.093   2.436   9.756  1.6116 -0.6622 -1.6082
   33POPC   H3S 4415   5.055   2.291   9.846 -0.4003 -0.3469 -1.5375
   33POPC   C24 4416   5.215   2.274   9.694  0.0589  0.1562 -0.7920
   33POPC   H4R 4417   5.239   2.174   9.736  1.8405  1.2570  0.9315
   33POPC   H4S 4418   5.307   2.330   9.667  0.4023  0.4008  0.8220
   33POPC   C25 4419   5.130   2.252   9.565  0.3314 -0.7795 -0.7346
   33POPC   H5R 4420   5.097   2.348   9.520 -1.3281 -1.8143 -1.8367
   33POPC   H5S 4421   5.037   2.199   9.594  0.7765 -1.8083 -1.1702
   33POPC   C26 4422   5.213   2.174   9.466  0.7299 -0.1574  0.2197
   33POPC   H6R 4423   5.243   2.083   9.522  0.9504 -0.8101 -0.9368
   33POPC   H6S 4424   5.299   2.234   9.432 -0.2069  0.7017 -0.7051
   33POPC   C27 4425   5.135   2.127   9.339 -0.3863  0.0716 -0.4263
   33POPC   H7R 4426   5.053   2.064   9.379  1.0668 -0.4779  1.9042
   33POPC   H7S 4427   5.202   2.065   9.277 -0.3106 -0.4009  0.1173
   33POPC   C28 4428   5.078   2.239   9.251 -0.3164 -0.4726  0.7335
   33POPC   H8R 4429   5.004   2.297   9.310 -0.6902  0.3560 -0.5084
   33POPC   H8S 4430   5.027   2.198   9.162 -0.2470  3.6258 -1.4402
   33POPC   C29 4431   5.189   2.335   9.200  0.6427 -0.7633 -0.2801
   33POPC   H91 4432   5.263   2.378   9.270 -0.2543  1.6935 -0.7403
   33POPC  C210 4433   5.210   2.358   9.070  0.4074 -0.3904  0.2318
   33POPC  H101 4434   5.281   2.441   9.054 -0.4027  0.1698 -0.5035
   33POPC  C211 4435   5.133   2.304   8.955  0.2564  0.2693  0.3210
   33POPC  H11R 4436   5.035   2.356   8.945 -0.9453 -2.1358 -1.3464
   33POPC  H11S 4437   5.116   2.195   8.961  1.2168  0.2063  3.3859
   33POPC  C212 4438   5.217   2.335   8.828  0.0987 -0.4774 -0.0401
   33POPC  H12R 4439   5.314   2.280   8.819  0.1635 -0.2741 -0.6287
   33POPC  H12S 4440   5.244   2.443   8.838 -2.0359  0.0839  0.0729
   33POPC  C213 4441   5.141   2.313   8.698 -0.2692 -0.0583 -0.7751
   33POPC  H13R 4442   5.031   2.322   8.698 -0.1886  1.3535  0.4924
   33POPC  H13S 4443   5.154   2.207   8.670 -0.9892 -0.5945  0.8337
   33POPC  C214 4444   5.196   2.394   8.583  0.7429 -0.0158  0.8027
   33POPC  H14R 4445   5.296   2.350   8.565 -0.6456 -2.7004 -0.9518
   33POPC  H14S 4446   5.209   2.503   8.603 -1.7316  0.6235 -0.6818
   33POPC  C215 4447   5.116   2.361   8.446  0.6807  0.3046 -0.2567
   33POPC  H15R 4448   5.023   2.421   8.439 -1.8007 -3.1066  0.8665
   33POPC  H15S 4449   5.086   2.255   8.459  1.3833 -0.0726 -1.5439
   33POPC  C216 4450   5.196   2.355   8.313 -0.1220 -0.3518 -0.2230
   33POPC  H16R 4451   5.128   2.312   8.237 -0.9322 -1.8883  1.2855
   33POPC  H16S 4452   5.270   2.274   8.329  2.1954  1.5093 -0.9587
   33POPC  C217 4453   5.269   2.481   8.281  0.6521  0.1600  0.0803
   33POPC  H17R 4454   5.320   2.518   8.373 -2.3341  0.8103  1.5993
   33POPC  H17S 4455   5.192   2.554   8.248 -1.9937 -2.9441 -1.2603
   33POPC  C218 4456   5.367   2.466   8.166 -0.0223  0.2573 -0.2763
   33POPC  H18R 4457   5.313   2.458   8.069 -0.6793 -0.8999  0.1655
   33POPC  H18S 4458   5.435   2.385   8.198 -2.3243 -0.3797  3.6769
   33POPC  H18T 4459   5.425   2.560   8.155  0.0031  0.3803  0.7967
   33POPC   C33 4460   5.114   3.101   9.790  0.2271  0.3380  0.1241
   33POPC   H3X 4461   5.150   3.184   9.855  1.2333 -1.3934  1.8996
   33POPC   H3Y 4462   5.022   3.060   9.835 -0.1166  0.8788 -0.0828
   33POPC   C34 4463   5.100   3.153   9.647  0.1937  0.0474  0.4742
   33POPC   H4X 4464   5.203   3.194   9.640 -0.7273  2.2939 -0.8788
   33POPC   H4Y 4465   5.026   3.236   9.651 -0.8831 -0.8206 -0.5930
   33POPC   C35 4466   5.067   3.062   9.533  0.2044  0.7160  0.7353
   33POPC   H5X 4467   4.967   3.014   9.538 -0.2165  1.0878 -2.2911
   33POPC   H5Y 4468   5.151   2.989   9.532  0.7492  1.3127 -0.8286
   33POPC   C36 4469   5.065   3.135   9.402 -0.4869 -0.0986  0.0343
   33POPC   H6X 4470   5.170   3.151   9.367 -0.3443 -1.6062 -0.2994
   33POPC   H6Y 4471   5.016   3.234   9.405  1.1458  0.7636 -0.4500
   33POPC   C37 4472   4.993   3.058   9.295  0.5397 -0.2527 -0.5767
   33POPC   H7X 4473   4.892   3.027   9.329  0.6701 -2.5123 -2.0628
   33POPC   H7Y 4474   5.050   2.967   9.267  1.4225  0.5249 -1.3985
   33POPC   C38 4475   4.964   3.140   9.171 -0.3593  0.4790 -0.4206
   33POPC   H8X 4476   5.057   3.178   9.125 -0.2981  2.1216  0.9910
   33POPC   H8Y 4477   4.907   3.229   9.204  0.7063  0.8745  0.3633
   33POPC   C39 4478   4.873   3.066   9.062 -0.2631 -0.5682 -0.4230
   33POPC   H9X 4479   4.783   3.023   9.111  0.0514  0.1708  0.8418
   33POPC   H9Y 4480   4.930   2.977   9.029  1.1693 -0.1424  0.8089
   33POPC  C310 4481   4.841   3.154   8.936 -0.0702 -0.0835 -0.2579
   33POPC  H10X 4482   4.931   3.194   8.885  0.1483 -2.9707 -2.3701
   33POPC  H10Y 4483   4.786   3.248   8.956  2.0366  0.7447  2.2018
   33POPC  C311 4484   4.771   3.063   8.832  0.4410  0.4311  0.7222
   33POPC  H11X 4485   4.706   2.994   8.890  0.6838  0.4598  1.0279
   33POPC  H11Y 4486   4.839   2.998   8.773  1.2731  3.5973 -2.1396
   33POPC  C312 4487   4.699   3.130   8.716  0.2772 -0.0077 -0.2485
   33POPC  H12X 4488   4.608   3.187   8.746 -0.1354 -1.4549  1.4001
   33POPC  H12Y 4489   4.661   3.057   8.642 -2.1922  0.6526  0.2485
   33POPC  C313 4490   4.794   3.222   8.636 -0.0591 -0.0895 -0.3438
   33POPC  H13X 4491   4.883   3.161   8.610  1.4735  2.3764 -1.2191
   33POPC  H13Y 4492   4.822   3.296   8.715 -1.6028 -0.0028  0.1641
   33POPC  C314 4493   4.732   3.287   8.504  0.3962 -0.3724 -0.6284
   33POPC  H14X 4494   4.785   3.383   8.484  0.4169 -0.8313 -3.0801
   33POPC  H14Y 4495   4.626   3.318   8.517  1.0055  1.8947 -0.6087
   33POPC  C315 4496   4.740   3.212   8.373  0.0782  0.0637  1.0777
   33POPC  H15X 4497   4.671   3.125   8.383  0.7891 -0.5600  0.6401
   33POPC  H15Y 4498   4.839   3.171   8.347 -0.2738  0.3267 -0.8520
   33POPC  C316 4499   4.687   3.303   8.258 -0.0689  1.0119 -0.1598
   33POPC  H16X 4500   4.630   3.382   8.313  1.4947  0.6569  2.1044
   33POPC  H16Y 4501   4.625   3.236   8.195 -2.2403  0.1048  2.7098
   33POPC  H16Z 4502   4.772   3.353   8.207 -0.1563 -1.3284 -2.7730
   34POPC     N 4503   4.819   3.585  11.075 -1.2152 -0.0920 -0.8868
   34POPC   C12 4504   4.741   3.630  10.957  0.0114 -0.1799  0.2539
   34POPC  H12A 4505   4.748   3.737  10.966 -0.2442 -0.2621  1.7647
   34POPC  H12B 4506   4.638   3.600  10.951 -0.5709  1.9510 -2.3276
   34POPC   C13 4507   4.964   3.631  11.077  0.3135  1.0468  0.4158
   34POPC  H13A 4508   5.010   3.592  11.166  2.3627 -2.3492 -1.9219
   34POPC  H13B 4509   5.012   3.578  10.997 -2.2115  0.2511 -0.6928
   34POPC  H13C 4510   4.970   3.739  11.067  0.7224  1.0328  0.4988
   34POPC   C14 4511   4.761   3.637  11.200  0.2358 -0.6055 -0.5371
   34POPC  H14A 4512   4.654   3.632  11.205 -0.0451  2.5229 -1.3064
   34POPC  H14B 4513   4.798   3.589  11.289 -1.0518  0.7403  0.7758
   34POPC  H14C 4514   4.773   3.744  11.214 -0.6946 -0.5017 -0.4929
   34POPC   C15 4515   4.809   3.432  11.085 -0.7062 -0.4354  0.1201
   34POPC  H15A 4516   4.877   3.397  11.161 -0.4561 -0.8502 -0.2905
   34POPC  H15B 4517   4.843   3.384  10.995 -2.2628 -1.0844 -0.1386
   34POPC  H15C 4518   4.707   3.398  11.095 -0.7121 -0.3604  0.3247
   34POPC   C11 4519   4.805   3.579  10.819  0.0751 -0.3051  0.3187
   34POPC  H11A 4520   4.779   3.474  10.792 -0.9901  0.6044 -2.5230
   34POPC  H11B 4521   4.916   3.589  10.820  0.2628 -1.9776  1.7179
   34POPC     P 4522   4.798   3.789  10.683  0.1319 -0.1266 -0.0294
   34POPC   O13 4523   4.819   3.874  10.802  0.5299  0.0117  0.2274
   34POPC   O14 4524   4.707   3.850  10.582  0.2709 -0.0478 -0.1416
   34POPC   O12 4525   4.734   3.647  10.713 -0.3922 -0.2102  0.0277
   34POPC   O11 4526   4.938   3.743  10.618 -0.8027 -0.1347 -0.1932
   34POPC    C1 4527   4.949   3.629  10.528 -0.2171 -0.0540 -0.2428
   34POPC    HA 4528   4.872   3.550  10.539 -0.5047  0.3023  0.3579
   34POPC    HB 4529   5.047   3.581  10.550  0.4712  1.3512 -0.0894
   34POPC    C2 4530   4.958   3.675  10.377 -0.1296 -0.2115 -0.0289
   34POPC    HS 4531   5.024   3.765  10.375 -0.0415 -0.2872 -1.0915
   34POPC   O21 4532   4.826   3.705  10.321  0.4335 -0.3084 -0.4371
   34POPC   C21 4533   4.822   3.804  10.230 -0.2900  0.0387 -0.6563
   34POPC   O22 4534   4.911   3.887  10.210  0.7270 -0.1887  0.0068
   34POPC   C22 4535   4.677   3.815  10.178  0.2422  0.3257 -0.5180
   34POPC   H2R 4536   4.609   3.803  10.265 -0.1108 -0.6206 -0.9067
   34POPC   H2S 4537   4.662   3.728  10.111  0.7905 -0.8566  0.8495
   34POPC    C3 4538   5.025   3.570  10.289  0.1303 -0.0050 -0.5382
   34POPC    HX 4539   4.986   3.471  10.322  3.0060 -0.9966  0.1605
   34POPC    HY 4540   5.130   3.565  10.326  0.2292 -2.4395 -1.0129
   34POPC   O31 4541   5.013   3.596  10.150 -0.1229 -0.4583  0.1426
   34POPC   C31 4542   5.101   3.554  10.058  0.7443  0.4801  0.4271
   34POPC   O32 4543   5.214   3.510  10.080  0.7546 -0.6118  0.1862
   34POPC   C32 4544   5.045   3.602   9.922 -0.7449  0.8989  0.4703
   34POPC   H2X 4545   5.081   3.707   9.916  1.3407  0.2565  1.2391
   34POPC   H2Y 4546   4.934   3.592   9.918 -0.5873 -1.2158  0.1510
   34POPC   C23 4547   4.632   3.940  10.102  0.5862  0.8100  0.1885
   34POPC   H3R 4548   4.701   3.942  10.014 -0.0571 -0.8073 -0.3991
   34POPC   H3S 4549   4.639   4.032  10.163 -0.4787  0.2787  1.1553
   34POPC   C24 4550   4.488   3.927  10.046  0.0471  0.9029  0.2895
   34POPC   H4R 4551   4.462   4.024  10.000  2.8641  0.6160 -2.1754
   34POPC   H4S 4552   4.419   3.907  10.132 -1.4892  1.3851 -0.7826
   34POPC   C25 4553   4.472   3.819   9.930  0.5975  0.5905 -0.4266
   34POPC   H5R 4554   4.488   3.716   9.970 -0.6968 -0.7821 -3.1297
   34POPC   H5S 4555   4.563   3.845   9.873  3.8135  1.8198  4.6107
   34POPC   C26 4556   4.341   3.822   9.853 -0.1275  0.2735 -0.1704
   34POPC   H6R 4557   4.319   3.916   9.798 -1.1474 -0.2312 -0.6448
   34POPC   H6S 4558   4.256   3.794   9.919  1.5739  2.8069  3.5116
   34POPC   C27 4559   4.332   3.722   9.741 -0.4475  0.2554  0.1954
   34POPC   H7R 4560   4.232   3.718   9.691 -0.2244 -3.0370 -0.1948
   34POPC   H7S 4561   4.336   3.623   9.792 -0.7878  0.9330  1.5828
   34POPC   C28 4562   4.433   3.741   9.630  0.0937 -0.0545 -0.2742
   34POPC   H8R 4563   4.434   3.649   9.567  0.8697 -1.8032  2.1561
   34POPC   H8S 4564   4.534   3.749   9.675 -1.2599  2.1273  2.6666
   34POPC   C29 4565   4.411   3.863   9.544 -0.6771  0.3131  0.4218
   34POPC   H91 4566   4.409   3.956   9.602 -1.5504  0.0340  0.8603
   34POPC  C210 4567   4.400   3.871   9.411 -0.4190  0.4274  0.7494
   34POPC  H101 4568   4.375   3.966   9.361  0.4782  0.3783  0.1802
   34POPC  C211 4569   4.420   3.752   9.319  0.4929  0.2155  0.1996
   34POPC  H11R 4570   4.476   3.668   9.367 -0.3484 -0.4347  0.0691
   34POPC  H11S 4571   4.485   3.790   9.237  0.4405  1.2966  0.6409
   34POPC  C212 4572   4.288   3.710   9.258 -0.0307 -0.6125 -0.7984
   34POPC  H12R 4573   4.257   3.801   9.202  0.4255 -1.0136 -1.7306
   34POPC  H12S 4574   4.219   3.680   9.339 -1.4327  0.0652 -1.7058
   34POPC  C213 4575   4.311   3.593   9.152  0.5541  0.1850  0.2648
   34POPC  H13R 4576   4.360   3.510   9.207  1.5236  0.6134  0.0765
   34POPC  H13S 4577   4.384   3.634   9.079  1.3144  3.6891  2.6887
   34POPC  C214 4578   4.171   3.551   9.108  0.1184  0.4370  0.4996
   34POPC  H14R 4579   4.126   3.644   9.066 -0.2695 -0.1607 -0.4357
   34POPC  H14S 4580   4.105   3.537   9.195 -0.9363  0.1678 -0.3212
   34POPC  C215 4581   4.176   3.432   9.003  0.1332 -0.2424 -0.6059
   34POPC  H15R 4582   4.076   3.424   8.955 -1.3947  3.2429  1.5900
   34POPC  H15S 4583   4.195   3.344   9.069  1.1432  0.1106 -0.4095
   34POPC  C216 4584   4.277   3.445   8.886 -0.6433 -0.0163 -0.7957
   34POPC  H16R 4585   4.377   3.465   8.928 -0.4464 -0.6728 -0.9442
   34POPC  H16S 4586   4.250   3.533   8.824  0.8938  0.5414 -0.7026
   34POPC  C217 4587   4.284   3.327   8.789 -0.7316  0.2344 -0.5816
   34POPC  H17R 4588   4.357   3.355   8.710  1.4345 -2.2626  0.3849
   34POPC  H17S 4589   4.182   3.317   8.747 -0.7192 -1.5837 -0.2542
   34POPC  C218 4590   4.332   3.190   8.842  0.0978 -0.0366 -0.3258
   34POPC  H18R 4591   4.264   3.142   8.916 -0.1009 -0.5221 -0.8167
   34POPC  H18S 4592   4.432   3.209   8.888  0.6800 -1.2791 -1.0238
   34POPC  H18T 4593   4.335   3.119   8.756 -2.6358 -0.8007  0.1259
   34POPC   C33 4594   5.107   3.540   9.797 -0.2181 -0.8760 -0.0031
   34POPC   H3X 4595   5.030   3.556   9.718 -0.6052  1.2445  0.7373
   34POPC   H3Y 4596   5.122   3.432   9.818  1.2804 -0.9036 -1.0943
   34POPC   C34 4597   5.243   3.591   9.743 -0.1839  0.0919 -0.4673
   34POPC   H4X 4598   5.321   3.591   9.822 -1.5189 -2.8325  1.0138
   34POPC   H4Y 4599   5.231   3.695   9.708 -1.5961  0.0409 -0.1964
   34POPC   C35 4600   5.301   3.510   9.625 -0.5796 -0.1950 -0.7352
   34POPC   H5X 4601   5.300   3.404   9.658  0.3647  0.4212  1.4380
   34POPC   H5Y 4602   5.407   3.534   9.600 -0.7769 -0.6145 -2.0367
   34POPC   C36 4603   5.233   3.538   9.492  0.1214  0.2139  0.1177
   34POPC   H6X 4604   5.240   3.646   9.467  0.4604  0.4797  1.3221
   34POPC   H6Y 4605   5.125   3.514   9.501  0.3762 -0.8434  0.5163
   34POPC   C37 4606   5.285   3.469   9.372  0.3618  0.5606 -0.0175
   34POPC   H7X 4607   5.283   3.358   9.379  1.5438  0.3616 -1.9479
   34POPC   H7Y 4608   5.395   3.486   9.369  0.8853 -1.8354  1.8015
   34POPC   C38 4609   5.199   3.503   9.250 -0.0122  0.0480  0.8772
   34POPC   H8X 4610   5.184   3.611   9.227 -5.4002 -0.7701 -0.7843
   34POPC   H8Y 4611   5.098   3.458   9.258 -0.3973  0.3857 -1.4296
   34POPC   C39 4612   5.268   3.459   9.111  0.5273 -0.8323 -0.0276
   34POPC   H9X 4613   5.284   3.349   9.110 -3.2785 -1.5465  0.9939
   34POPC   H9Y 4614   5.365   3.513   9.117 -1.6988  3.5486  0.8602
   34POPC  C310 4615   5.186   3.501   8.988  0.1668  0.4621  0.1593
   34POPC  H10X 4616   5.187   3.612   8.983 -0.2018  0.4634  0.0838
   34POPC  H10Y 4617   5.079   3.471   8.987  0.1807  0.4107 -0.9435
   34POPC  C311 4618   5.249   3.440   8.867  0.7774 -0.3840  0.2576
   34POPC  H11X 4619   5.240   3.329   8.867 -2.4003 -0.2951 -2.3130
   34POPC  H11Y 4620   5.351   3.485   8.861  0.2653  0.7804  0.0883
   34POPC  C312 4621   5.176   3.477   8.744  0.3449  0.6937  0.8612
   34POPC  H12X 4622   5.174   3.588   8.740 -0.3555  0.6969  1.1029
   34POPC  H12Y 4623   5.072   3.440   8.757  0.5539 -0.4797 -0.5400
   34POPC  C313 4624   5.236   3.406   8.620  0.4964  0.4141  0.2273
   34POPC  H13X 4625   5.250   3.301   8.653  0.1829  0.4247  0.4047
   34POPC  H13Y 4626   5.336   3.454   8.608  0.3355  0.5629 -0.5674
   34POPC  C314 4627   5.160   3.410   8.486  0.4371  1.4001  0.3892
   34POPC  H14X 4628   5.149   3.514   8.447  2.1883  0.9089 -1.5504
   34POPC  H14Y 4629   5.061   3.373   8.518  0.6684  1.7871  1.6442
   34POPC  C315 4630   5.226   3.327   8.379  0.5019  0.0617 -0.4264
   34POPC  H15X 4631   5.214   3.222   8.413 -2.0623 -0.4900 -2.6463
   34POPC  H15Y 4632   5.334   3.352   8.372  1.5024 -2.8381  2.3212
   34POPC  C316 4633   5.165   3.350   8.234  0.6677 -0.7561 -0.5556
   34POPC  H16X 4634   5.056   3.331   8.231  0.0559  2.3962 -2.0176
   34POPC  H16Y 4635   5.218   3.297   8.151  1.1426  0.8268 -1.3004
   34POPC  H16Z 4636   5.163   3.457   8.203 -1.8293 -0.5031  0.3094
   35POPC     N 4637   5.131   0.890  10.850  0.3508 -0.2238 -0.0541
   35POPC   C12 4638   5.017   0.985  10.892  0.3066 -0.1260 -0.6735
   35POPC  H12A 4639   5.003   1.070  10.827 -1.1570  1.9118  2.0725
   35POPC  H12B 4640   5.057   1.019  10.987 -0.1308  0.8664 -0.8273
   35POPC   C13 4641   5.114   0.829  10.714  0.5485  0.0561 -0.1579
   35POPC  H13A 4642   5.028   0.765  10.708 -0.6326  1.4021  1.5124
   35POPC  H13B 4643   5.110   0.905  10.637 -0.9642  0.3955  0.2203
   35POPC  H13C 4644   5.195   0.763  10.686 -0.2376 -0.6458 -0.8692
   35POPC   C14 4645   5.261   0.962  10.834 -0.1636 -1.0901 -0.1358
   35POPC  H14A 4646   5.336   0.913  10.773 -1.3571 -0.2201 -2.4362
   35POPC  H14B 4647   5.252   1.052  10.774  0.4436 -0.5962  0.5058
   35POPC  H14C 4648   5.305   0.985  10.929 -0.6902  0.6666 -0.2799
   35POPC   C15 4649   5.144   0.774  10.939  0.1366 -0.8032 -0.6157
   35POPC  H15A 4650   5.177   0.803  11.037 -0.1518  0.1152 -0.7791
   35POPC  H15B 4651   5.210   0.702  10.893 -0.2442 -1.2220 -0.5126
   35POPC  H15C 4652   5.049   0.723  10.947 -1.2304  1.6682  0.1867
   35POPC   C11 4653   4.874   0.922  10.914 -0.7882  0.0610 -0.0320
   35POPC  H11A 4654   4.819   1.007  10.959  1.2412  1.0244  0.7207
   35POPC  H11B 4655   4.894   0.845  10.993  2.8313  1.4161  0.5696
   35POPC     P 4656   4.670   0.823  10.811 -0.0573  0.6760  0.1258
   35POPC   O13 4657   4.578   0.937  10.838 -0.0305  0.0219 -0.1830
   35POPC   O14 4658   4.667   0.706  10.901  0.0898  0.2008  0.4954
   35POPC   O12 4659   4.815   0.867  10.790  0.4080  0.4032 -0.3182
   35POPC   O11 4660   4.640   0.777  10.666  0.5411 -0.2712  0.2446
   35POPC    C1 4661   4.737   0.705  10.588 -0.2212 -0.1932 -0.1113
   35POPC    HA 4662   4.777   0.616  10.640  2.7490  0.2595 -1.3957
   35POPC    HB 4663   4.814   0.773  10.545  1.1033 -0.9158  1.0515
   35POPC    C2 4664   4.675   0.645  10.457  0.6783 -0.0479  0.0580
   35POPC    HS 4665   4.597   0.572  10.486 -0.1639 -0.5981 -3.2103
   35POPC   O21 4666   4.778   0.572  10.396  0.0802 -0.1665  0.0141
   35POPC   C21 4667   4.764   0.456  10.343 -0.3356 -0.4948  0.9341
   35POPC   O22 4668   4.666   0.385  10.349 -0.1843 -0.0335 -0.2160
   35POPC   C22 4669   4.897   0.421  10.267 -0.2004 -0.5474 -0.1387
   35POPC   H2R 4670   4.954   0.367  10.346 -0.0864  1.4581  1.2365
   35POPC   H2S 4671   4.944   0.514  10.231  4.7916 -2.5066  0.5424
   35POPC    C3 4672   4.632   0.761  10.371 -0.6869 -0.1903  0.8946
   35POPC    HX 4673   4.714   0.834  10.354 -0.1533 -0.7726  0.9102
   35POPC    HY 4674   4.551   0.813  10.427 -0.3017  1.2563  0.1487
   35POPC   O31 4675   4.582   0.712  10.243 -0.5712 -0.2853  0.3057
   35POPC   C31 4676   4.503   0.813  10.185 -0.5264  0.0397 -0.1859
   35POPC   O32 4677   4.467   0.911  10.244  0.0825 -0.0830  0.3327
   35POPC   C32 4678   4.471   0.775  10.044 -0.3050  0.2959  0.7589
   35POPC   H2X 4679   4.385   0.705  10.050 -0.0586  0.0595  1.7498
   35POPC   H2Y 4680   4.551   0.705  10.013 -1.9951 -2.3866  1.9922
   35POPC   C23 4681   4.883   0.318  10.155  0.6197 -0.2131 -0.1982
   35POPC   H3R 4682   4.796   0.250  10.166  0.5158 -0.1102 -0.3747
   35POPC   H3S 4683   4.971   0.249  10.156  0.1847 -0.8463 -2.1126
   35POPC   C24 4684   4.883   0.382  10.011 -0.5069  0.4412  0.0511
   35POPC   H4R 4685   4.970   0.452  10.010 -0.1592  0.0172  0.1466
   35POPC   H4S 4686   4.788   0.437   9.995 -0.1385  1.5964  1.7016
   35POPC   C25 4687   4.891   0.268   9.905  0.2471  0.0269 -0.0212
   35POPC   H5R 4688   4.789   0.227   9.888  1.1350 -1.0858 -3.3782
   35POPC   H5S 4689   4.957   0.190   9.948 -1.3133 -0.9334  0.7507
   35POPC   C26 4690   4.929   0.317   9.763 -0.1094  0.4794 -0.6147
   35POPC   H6R 4691   5.011   0.391   9.770  0.3031 -0.1346  3.9395
   35POPC   H6S 4692   4.847   0.376   9.716 -1.0034  1.2890  1.8029
   35POPC   C27 4693   4.947   0.208   9.662  0.2200  0.1094  0.2391
   35POPC   H7R 4694   4.852   0.150   9.668 -1.3695  2.6801  2.0518
   35POPC   H7S 4695   5.036   0.152   9.698  0.6751  0.7224  0.0823
   35POPC   C28 4696   4.960   0.249   9.524 -0.2723 -0.5003 -0.3094
   35POPC   H8R 4697   5.057   0.304   9.525  0.4922 -1.7675  2.1121
   35POPC   H8S 4698   4.895   0.336   9.499  0.8278  0.2226 -0.7576
   35POPC   C29 4699   4.948   0.150   9.413 -0.0386 -0.1443  0.0772
   35POPC   H91 4700   4.951   0.047   9.452 -0.1036  0.6814  2.3898
   35POPC  C210 4701   4.917   0.166   9.285 -0.1608 -0.0199 -0.7377
   35POPC  H101 4702   4.906   0.081   9.215 -0.3217 -0.7577  0.1621
   35POPC  C211 4703   4.903   0.301   9.225  0.4168 -0.6183  0.5392
   35POPC  H11R 4704   4.990   0.370   9.236 -1.0870  1.4099  0.4273
   35POPC  H11S 4705   4.815   0.348   9.275 -1.5859 -1.6119 -1.8655
   35POPC  C212 4706   4.854   0.291   9.077  0.0504  0.4839  0.7176
   35POPC  H12R 4707   4.799   0.381   9.042  1.3870  1.2000  0.4151
   35POPC  H12S 4708   4.779   0.210   9.066  1.0494 -0.3274 -0.3262
   35POPC  C213 4709   4.977   0.270   8.986  1.1476  0.0147  0.0847
   35POPC  H13R 4710   5.020   0.169   9.006 -2.6270 -1.8778 -0.4189
   35POPC  H13S 4711   5.052   0.342   9.024  1.1498  1.2082 -2.0177
   35POPC  C214 4712   4.932   0.299   8.841  0.2975 -0.1673 -0.2111
   35POPC  H14R 4713   4.899   0.404   8.831 -0.8677 -0.5802 -0.8512
   35POPC  H14S 4714   4.841   0.238   8.821  0.9693 -1.1727 -0.2728
   35POPC  C215 4715   5.043   0.268   8.734  0.2988  0.2906  0.3474
   35POPC  H15R 4716   5.085   0.165   8.736 -1.6781 -0.5377  1.2940
   35POPC  H15S 4717   5.127   0.336   8.761  0.3614 -0.4959  2.3361
   35POPC  C216 4718   5.006   0.297   8.584 -0.7468  0.4220  0.1296
   35POPC  H16R 4719   5.097   0.327   8.528 -0.1822 -0.1387  0.7226
   35POPC  H16S 4720   4.943   0.387   8.569 -0.6433  0.9516  2.4175
   35POPC  C217 4721   4.943   0.173   8.524  0.3774  0.2733 -0.1970
   35POPC  H17R 4722   4.871   0.135   8.599  1.2980  0.3428  0.7519
   35POPC  H17S 4723   5.027   0.099   8.518 -0.4170 -0.6113 -0.6612
   35POPC  C218 4724   4.889   0.178   8.382 -0.0110 -0.2988 -0.0374
   35POPC  H18R 4725   4.973   0.203   8.312  0.8833  0.9216  1.4016
   35POPC  H18S 4726   4.812   0.258   8.383 -0.2616 -0.5483  0.5425
   35POPC  H18T 4727   4.840   0.081   8.362 -0.6256  0.4383 -2.4480
   35POPC   C33 4728   4.435   0.881   9.936 -0.4158 -0.4065 -0.4062
   35POPC   H3X 4729   4.527   0.940   9.916  0.3830 -1.1174  1.0034
   35POPC   H3Y 4730   4.374   0.954   9.992  2.3826  0.3021  1.9950
   35POPC   C34 4731   4.371   0.832   9.801  0.2412 -0.6761  0.0057
   35POPC   H4X 4732   4.267   0.797   9.818  0.1721 -0.2392  0.4898
   35POPC   H4Y 4733   4.422   0.739   9.765 -3.1122 -2.0035 -1.8269
   35POPC   C35 4734   4.372   0.951   9.699  0.2737 -0.6656  0.4283
   35POPC   H5X 4735   4.480   0.976   9.688 -0.0163 -0.3775 -2.4442
   35POPC   H5Y 4736   4.308   1.037   9.729 -0.4491 -1.6025  1.6741
   35POPC   C36 4737   4.313   0.894   9.573  0.9105  0.2100  0.5411
   35POPC   H6X 4738   4.265   0.963   9.501  2.3015  1.4716  0.7540
   35POPC   H6Y 4739   4.238   0.815   9.595 -0.4482  1.8631  2.0611
   35POPC   C37 4740   4.417   0.831   9.484 -0.0978 -0.6774  0.0755
   35POPC   H7X 4741   4.458   0.744   9.538 -0.0727 -0.0464  1.0905
   35POPC   H7Y 4742   4.497   0.908   9.473 -1.3618  0.8466  1.2155
   35POPC   C38 4743   4.368   0.780   9.349 -0.4998  0.2907  0.6750
   35POPC   H8X 4744   4.267   0.736   9.363 -0.5511  0.5724  1.1910
   35POPC   H8Y 4745   4.435   0.695   9.326  1.2733  1.1938  2.2488
   35POPC   C39 4746   4.374   0.877   9.226  0.4837  0.2960  0.1033
   35POPC   H9X 4747   4.476   0.920   9.236  0.9355 -1.0539  1.9021
   35POPC   H9Y 4748   4.289   0.946   9.241  0.3967 -0.1523  1.8677
   35POPC  C310 4749   4.362   0.807   9.091 -0.2225  0.1441 -0.9905
   35POPC  H10X 4750   4.331   0.880   9.014  0.4780  1.6709  0.1102
   35POPC  H10Y 4751   4.297   0.717   9.097  0.2841 -0.3565 -2.6350
   35POPC  C311 4752   4.497   0.759   9.040 -0.1601  0.0560  0.6523
   35POPC  H11X 4753   4.547   0.706   9.124 -0.7114  0.8621  1.5063
   35POPC  H11Y 4754   4.560   0.845   9.010 -1.7466  0.2448 -2.6329
   35POPC  C312 4755   4.482   0.666   8.915 -0.3455  0.3707  0.1696
   35POPC  H12X 4756   4.436   0.727   8.834  2.0409  0.5023 -1.2127
   35POPC  H12Y 4757   4.419   0.578   8.943 -0.5621  0.5889  0.3685
   35POPC  C313 4758   4.624   0.628   8.867 -0.1132  0.5302  0.6685
   35POPC  H13X 4759   4.671   0.560   8.941 -2.0388 -1.9067 -0.1950
   35POPC  H13Y 4760   4.688   0.717   8.849  2.7663 -1.4129  0.4665
   35POPC  C314 4761   4.627   0.547   8.733 -0.1240  0.3888 -0.0391
   35POPC  H14X 4762   4.552   0.466   8.745 -1.3346  1.1064 -2.0849
   35POPC  H14Y 4763   4.731   0.511   8.724  0.6180  1.9899  1.6200
   35POPC  C315 4764   4.590   0.630   8.608 -0.3817  0.7872 -0.1540
   35POPC  H15X 4765   4.650   0.723   8.599 -0.9522  1.0968 -0.8946
   35POPC  H15Y 4766   4.486   0.668   8.604 -0.5158  0.3557 -1.0982
   35POPC  C316 4767   4.604   0.534   8.484 -0.0919 -0.1949 -0.5458
   35POPC  H16X 4768   4.546   0.594   8.410  0.4342  0.4894 -0.4157
   35POPC  H16Y 4769   4.549   0.438   8.489 -1.7875  0.5515 -2.8184
   35POPC  H16Z 4770   4.707   0.527   8.442 -0.9162 -0.7167 -2.6123
   36POPC     N 4771   3.760   4.891  10.962 -0.0870 -0.4777  0.0237
   36POPC   C12 4772   3.632   4.915  11.045  0.2558  0.6067 -0.0230
   36POPC  H12A 4773   3.614   5.020  11.061  0.8044  0.9386 -1.4944
   36POPC  H12B 4774   3.647   4.872  11.143  3.5067  2.2902  0.3448
   36POPC   C13 4775   3.794   4.751  10.968  0.2323  0.1422  0.8470
   36POPC  H13A 4776   3.716   4.698  10.916 -1.7121  2.0050  1.6866
   36POPC  H13B 4777   3.892   4.735  10.927  0.4801  0.9509  1.1032
   36POPC  H13C 4778   3.815   4.728  11.071  1.3969  0.7037  0.7457
   36POPC   C14 4779   3.740   4.943  10.816  0.7586  0.3594  0.1304
   36POPC  H14A 4780   3.819   4.900  10.755  1.2941 -0.9646  1.6728
   36POPC  H14B 4781   3.646   4.909  10.774  0.2259  1.7924  0.1283
   36POPC  H14C 4782   3.743   5.051  10.824 -1.0685  0.3682  1.0505
   36POPC   C15 4783   3.867   4.975  11.018  0.1087  1.0337  0.2637
   36POPC  H15A 4784   3.877   4.963  11.125  2.8533  1.5927  0.1552
   36POPC  H15B 4785   3.847   5.080  10.999  1.4885  0.7348 -3.9709
   36POPC  H15C 4786   3.959   4.960  10.963  0.1935 -0.8097  0.8358
   36POPC   C11 4787   3.495   4.868  10.978  0.6769 -1.0475 -0.4286
   36POPC  H11A 4788   3.470   4.940  10.897 -1.2027 -0.7585  0.3674
   36POPC  H11B 4789   3.421   4.877  11.061  0.4058  1.5010 -0.8717
   36POPC     P 4790   3.477   4.690  10.789 -0.0312 -0.1573  0.5506
   36POPC   O13 4791   3.532   4.797  10.699  0.4260  0.0435 -0.0735
   36POPC   O14 4792   3.333   4.654  10.784  0.0494  0.1309  0.1621
   36POPC   O12 4793   3.507   4.734  10.935  0.1750  0.2028 -0.2128
   36POPC   O11 4794   3.576   4.563  10.778  0.0019 -0.4529  0.2780
   36POPC    C1 4795   3.600   4.512  10.647 -0.3486  0.4505 -0.0909
   36POPC    HA 4796   3.510   4.522  10.582 -0.3579 -3.3795 -0.9040
   36POPC    HB 4797   3.627   4.404  10.647  2.7016  1.1028 -1.3380
   36POPC    C2 4798   3.722   4.575  10.571 -0.4313  1.0497  0.2105
   36POPC    HS 4799   3.711   4.685  10.581 -0.9621  0.9667  0.6034
   36POPC   O21 4800   3.726   4.527  10.432  0.5234 -0.3623 -0.0838
   36POPC   C21 4801   3.779   4.613  10.345  0.0877 -0.1297  0.2590
   36POPC   O22 4802   3.789   4.733  10.364  0.1064 -0.0432 -0.0460
   36POPC   C22 4803   3.800   4.542  10.212  0.3934 -1.2289 -0.3213
   36POPC   H2R 4804   3.716   4.475  10.183  1.3110 -2.6729  0.2411
   36POPC   H2S 4805   3.895   4.486  10.219  2.1655  1.3629 -1.9396
   36POPC    C3 4806   3.845   4.533  10.635 -0.0212 -0.0658 -0.1261
   36POPC    HX 4807   3.854   4.423  10.646  1.8932  0.2136  1.8787
   36POPC    HY 4808   3.837   4.558  10.743  0.4964 -0.2146 -0.0471
   36POPC   O31 4809   3.961   4.576  10.569 -0.3622 -0.8539  0.6298
   36POPC   C31 4810   4.018   4.695  10.597 -0.0707 -0.0340  0.7396
   36POPC   O32 4811   3.975   4.777  10.678  0.0548 -0.4076  0.4757
   36POPC   C32 4812   4.156   4.708  10.521 -0.1137  0.0878 -0.2288
   36POPC   H2X 4813   4.172   4.607  10.480  0.5495  0.0201  0.1801
   36POPC   H2Y 4814   4.235   4.717  10.598 -1.1465 -0.2046  0.9073
   36POPC   C23 4815   3.833   4.634  10.095  0.3512  0.9430 -0.0386
   36POPC   H3R 4816   3.903   4.711  10.135 -1.6472  1.5057  2.6260
   36POPC   H3S 4817   3.739   4.683  10.061  0.2721 -0.3758 -1.8582
   36POPC   C24 4818   3.906   4.562   9.978 -0.0869  0.4791 -0.0873
   36POPC   H4R 4819   3.850   4.475   9.939 -0.7278  1.0601 -0.4886
   36POPC   H4S 4820   4.001   4.512  10.007 -0.3945 -1.2759 -1.9431
   36POPC   C25 4821   3.934   4.670   9.865  0.3462  0.0967 -0.7458
   36POPC   H5R 4822   3.977   4.760   9.912  0.4293 -0.7796  0.9275
   36POPC   H5S 4823   3.835   4.699   9.823  0.5396 -1.1239 -2.1576
   36POPC   C26 4824   4.020   4.631   9.751 -0.1959 -0.0459  0.3376
   36POPC   H6R 4825   3.970   4.538   9.716  1.1108 -1.2336  1.5613
   36POPC   H6S 4826   4.123   4.607   9.785  1.3788  0.8346 -3.2616
   36POPC   C27 4827   4.009   4.752   9.654  0.2560  0.3553 -0.2789
   36POPC   H7R 4828   4.103   4.770   9.597  0.5654 -0.7471 -0.1510
   36POPC   H7S 4829   3.982   4.843   9.712  0.3721  0.1367  0.1216
   36POPC   C28 4830   3.887   4.724   9.564 -0.7630  0.2777  0.5120
   36POPC   H8R 4831   3.847   4.822   9.531 -0.7869 -0.7273 -2.8185
   36POPC   H8S 4832   3.801   4.678   9.616  0.8201 -0.9427  2.1667
   36POPC   C29 4833   3.901   4.647   9.437  0.5540 -0.0321 -0.8271
   36POPC   H91 4834   3.860   4.546   9.424  1.0551 -0.2727 -0.5271
   36POPC  C210 4835   3.957   4.701   9.328  0.2617  0.3254  0.4092
   36POPC  H101 4836   3.957   4.649   9.231 -0.0596  1.0562  0.0133
   36POPC  C211 4837   4.018   4.832   9.316 -0.2707 -0.1728  0.0816
   36POPC  H11R 4838   3.993   4.893   9.405 -0.0244  1.4886 -0.9517
   36POPC  H11S 4839   3.978   4.877   9.223 -1.6697 -2.7420 -0.6638
   36POPC  C212 4840   4.169   4.825   9.309 -0.0791  0.5563  0.6681
   36POPC  H12R 4841   4.207   4.749   9.380  0.6167 -0.6884 -0.9511
   36POPC  H12S 4842   4.206   4.928   9.330  1.7618  0.2341 -0.7044
   36POPC  C213 4843   4.237   4.777   9.172 -0.1999  0.0408 -0.0746
   36POPC  H13R 4844   4.173   4.710   9.111 -1.7942  1.6334 -0.2572
   36POPC  H13S 4845   4.326   4.716   9.199 -1.7730 -1.6868  1.4804
   36POPC  C214 4846   4.283   4.886   9.069 -0.1400  0.2350  0.1635
   36POPC  H14R 4847   4.380   4.846   9.034 -0.4876 -0.2778 -0.2107
   36POPC  H14S 4848   4.318   4.974   9.127 -0.1689  0.2068  0.2240
   36POPC  C215 4849   4.180   4.915   8.958  0.3411 -0.1459 -0.1640
   36POPC  H15R 4850   4.091   4.967   8.999  1.2658  2.0365 -0.7872
   36POPC  H15S 4851   4.152   4.818   8.913 -3.5253  0.9081 -0.4100
   36POPC  C216 4852   4.237   5.004   8.845  0.8369  0.7992 -0.2859
   36POPC  H16R 4853   4.157   5.004   8.767 -1.0574  3.1190  1.4847
   36POPC  H16S 4854   4.328   4.954   8.807 -0.1898 -0.4931 -1.1693
   36POPC  C217 4855   4.269   5.150   8.878  0.1379  0.0648  0.5696
   36POPC  H17R 4856   4.354   5.149   8.949  1.5022 -0.6838 -1.0025
   36POPC  H17S 4857   4.183   5.188   8.938 -0.4910 -1.3073  0.5833
   36POPC  C218 4858   4.308   5.229   8.749 -1.2356 -0.0082 -1.0617
   36POPC  H18R 4859   4.220   5.206   8.685 -0.2080 -2.1629 -1.7767
   36POPC  H18S 4860   4.400   5.192   8.699 -0.2026 -1.5545  1.7306
   36POPC  H18T 4861   4.317   5.338   8.768 -1.3898  0.1906 -2.0447
   36POPC   C33 4862   4.138   4.821  10.413 -0.0806  0.7622 -0.3822
   36POPC   H3X 4863   4.135   4.907  10.483 -0.7997  0.2779  0.1897
   36POPC   H3Y 4864   4.046   4.811  10.352  1.1369  1.1323 -2.4005
   36POPC   C34 4865   4.255   4.834  10.320  0.0491  0.4773  0.1647
   36POPC   H4X 4866   4.276   4.728  10.293 -1.6604  0.3549 -0.8839
   36POPC   H4Y 4867   4.348   4.866  10.371 -1.2708  2.5004  1.4606
   36POPC   C35 4868   4.232   4.929  10.199  1.1153  0.5735  0.1831
   36POPC   H5X 4869   4.236   5.036  10.228  1.6025  0.0704  2.0898
   36POPC   H5Y 4870   4.135   4.904  10.152 -0.7217 -0.1397  4.0496
   36POPC   C36 4871   4.340   4.908  10.087 -0.0886  0.7532  0.7210
   36POPC   H6X 4872   4.445   4.905  10.124  0.2072  0.6072 -0.1023
   36POPC   H6Y 4873   4.305   4.994  10.024 -1.1176 -0.3900 -0.3264
   36POPC   C37 4874   4.322   4.774  10.014  0.1209  0.1360  0.8416
   36POPC   H7X 4875   4.221   4.760   9.971 -0.6020  0.0582  2.4915
   36POPC   H7Y 4876   4.333   4.694  10.091 -0.1174  1.0090  1.8066
   36POPC   C38 4877   4.429   4.763   9.902 -0.2297 -0.3942 -0.2195
   36POPC   H8X 4878   4.525   4.771   9.957  0.3604 -4.0321 -0.4485
   36POPC   H8Y 4879   4.427   4.852   9.836  0.7692  0.3653  0.7368
   36POPC   C39 4880   4.417   4.637   9.822 -0.9200 -0.0925 -0.3769
   36POPC   H9X 4881   4.325   4.634   9.759 -0.5692 -0.4752 -0.8745
   36POPC   H9Y 4882   4.423   4.548   9.887 -1.9582  0.4410  0.4794
   36POPC  C310 4883   4.547   4.622   9.741 -0.1393 -0.6645 -0.0640
   36POPC  H10X 4884   4.621   4.619   9.823  1.0584  1.0479 -1.0127
   36POPC  H10Y 4885   4.562   4.713   9.679  1.3943 -0.3269  0.7447
   36POPC  C311 4886   4.540   4.504   9.648  0.3970  0.2056  0.1138
   36POPC  H11X 4887   4.468   4.545   9.574  1.4883  1.0817 -0.4930
   36POPC  H11Y 4888   4.511   4.414   9.707 -0.1100  0.5945  0.4660
   36POPC  C312 4889   4.681   4.479   9.590  0.2428  0.1186 -0.1092
   36POPC  H12X 4890   4.751   4.465   9.675 -0.0387  1.2631  0.3238
   36POPC  H12Y 4891   4.705   4.570   9.532  1.1601  0.1212  0.2559
   36POPC  C313 4892   4.688   4.356   9.499  0.2723 -0.2944 -0.4213
   36POPC  H13X 4893   4.625   4.376   9.409  0.6238  0.3911 -0.5225
   36POPC  H13Y 4894   4.656   4.258   9.541  2.0675 -0.2065  1.2935
   36POPC  C314 4895   4.836   4.343   9.447  0.2722 -0.0029  0.6594
   36POPC  H14X 4896   4.898   4.313   9.534  2.2639  0.9811 -0.3445
   36POPC  H14Y 4897   4.870   4.443   9.413  1.4080  0.0481  1.8452
   36POPC  C315 4898   4.846   4.244   9.324 -0.5414 -0.3915 -0.0243
   36POPC  H15X 4899   4.800   4.302   9.241  2.7790 -0.1993 -1.9018
   36POPC  H15Y 4900   4.792   4.152   9.356  1.9207 -1.0970  2.6268
   36POPC  C316 4901   4.991   4.215   9.287 -0.4168  0.2289 -0.0900
   36POPC  H16X 4902   5.038   4.309   9.252  0.8160 -1.0080 -1.9410
   36POPC  H16Y 4903   4.986   4.134   9.212  0.4870 -0.9086  1.0244
   36POPC  H16Z 4904   5.050   4.169   9.370  1.9781  0.5999 -1.5063
   37POPC     N 4905   3.193   6.267   6.290  1.2786  0.4127 -0.5805
   37POPC   C12 4906   3.256   6.285   6.431  0.3036 -0.0759 -0.1940
   37POPC  H12A 4907   3.222   6.383   6.462  0.4991  1.0698 -3.2495
   37POPC  H12B 4908   3.363   6.297   6.420  0.8087 -1.6807  2.1581
   37POPC   C13 4909   3.043   6.272   6.298  0.4649 -0.0412 -0.7833
   37POPC  H13A 4910   3.000   6.262   6.200  0.8777 -1.2496 -0.8514
   37POPC  H13B 4911   3.005   6.179   6.337  1.1342  0.7417  2.0057
   37POPC  H13C 4912   3.012   6.359   6.355 -0.5527  1.3688 -3.3408
   37POPC   C14 4913   3.236   6.375   6.199  0.2766  0.6809  0.2715
   37POPC  H14A 4914   3.227   6.353   6.094  1.3061  3.5186 -0.4996
   37POPC  H14B 4915   3.174   6.462   6.210  0.3873  0.9039 -0.8222
   37POPC  H14C 4916   3.337   6.404   6.224  0.0671 -0.2553  2.4639
   37POPC   C15 4917   3.223   6.139   6.225 -0.7634  0.1290  0.5984
   37POPC  H15A 4918   3.165   6.057   6.264 -1.6045 -0.1436 -1.1410
   37POPC  H15B 4919   3.326   6.108   6.234 -1.2910 -2.1275 -0.4170
   37POPC  H15C 4920   3.202   6.141   6.119  0.6609 -3.1304  0.1102
   37POPC   C11 4921   3.227   6.186   6.545  0.0099  0.2905 -0.2283
   37POPC  H11A 4922   3.118   6.174   6.563  0.5521 -2.8426  1.7756
   37POPC  H11B 4923   3.279   6.228   6.633  0.8325  0.8499 -0.9682
   37POPC     P 4924   3.447   6.041   6.528 -0.2060  0.2055 -0.0225
   37POPC   O13 4925   3.522   6.157   6.471 -0.4339 -0.0389 -0.1854
   37POPC   O14 4926   3.482   5.904   6.474  0.3949  0.1873 -0.1009
   37POPC   O12 4927   3.292   6.063   6.511  0.1136 -0.5743 -0.0949
   37POPC   O11 4928   3.463   6.047   6.686 -0.0915 -0.0621  0.7210
   37POPC    C1 4929   3.395   5.967   6.782  0.3533 -0.5226 -0.4571
   37POPC    HA 4930   3.291   5.951   6.746 -0.0935 -2.0522  1.3682
   37POPC    HB 4931   3.400   6.013   6.883  1.9638  1.0418 -1.1949
   37POPC    C2 4932   3.439   5.813   6.781  0.0541 -0.8133 -0.2866
   37POPC    HS 4933   3.426   5.767   6.681  2.8991 -1.3268 -0.5050
   37POPC   O21 4934   3.370   5.738   6.887 -0.1454  0.6988 -0.3270
   37POPC   C21 4935   3.338   5.611   6.856 -0.0913 -0.2503  0.3004
   37POPC   O22 4936   3.352   5.555   6.749  0.3155 -0.1963  0.1967
   37POPC   C22 4937   3.263   5.554   6.983 -0.4338  0.3262  0.1655
   37POPC   H2R 4938   3.166   5.515   6.944  0.2939 -2.4932  0.9553
   37POPC   H2S 4939   3.247   5.637   7.056 -1.4670 -1.5804  2.1991
   37POPC    C3 4940   3.586   5.804   6.806  0.3224 -0.1037 -0.4193
   37POPC    HX 4941   3.647   5.861   6.733 -1.5424  2.5952 -0.0257
   37POPC    HY 4942   3.622   5.701   6.789 -0.3009 -0.2707 -0.7459
   37POPC   O31 4943   3.633   5.868   6.930  0.7318 -0.2116  0.3049
   37POPC   C31 4944   3.649   5.786   7.034  0.6871  0.3057  0.4737
   37POPC   O32 4945   3.654   5.666   7.030 -0.9656  0.2601 -0.0862
   37POPC   C32 4946   3.676   5.874   7.152  0.5434 -0.2995  0.4685
   37POPC   H2X 4947   3.590   5.940   7.175  1.1044  0.8088 -0.4588
   37POPC   H2Y 4948   3.766   5.938   7.134  0.0252  0.2996 -0.0545
   37POPC   C23 4949   3.331   5.436   7.052  0.1061  0.4762 -0.0989
   37POPC   H3R 4950   3.431   5.462   7.094  0.0543  0.1154  0.2586
   37POPC   H3S 4951   3.355   5.362   6.974 -1.4917 -4.0208  3.2324
   37POPC   C24 4952   3.249   5.356   7.153  0.4719  0.1986 -0.3015
   37POPC   H4R 4953   3.303   5.270   7.198  0.3157 -0.0626 -0.6133
   37POPC   H4S 4954   3.173   5.312   7.085  1.3059  0.0536 -1.1621
   37POPC   C25 4955   3.191   5.430   7.274  0.3893 -0.7638  0.2534
   37POPC   H5R 4956   3.098   5.387   7.318 -0.1375 -1.6928 -1.6164
   37POPC   H5S 4957   3.162   5.533   7.245  0.1462 -1.4433 -2.1523
   37POPC   C26 4958   3.288   5.437   7.396  0.1637  0.2866  0.2950
   37POPC   H6R 4959   3.386   5.471   7.355  1.8455 -2.2665  1.9556
   37POPC   H6S 4960   3.312   5.337   7.437 -0.6188 -0.3340 -0.7251
   37POPC   C27 4961   3.238   5.521   7.512  0.4173 -0.3828 -0.1628
   37POPC   H7R 4962   3.128   5.508   7.518  0.3690  0.0696 -0.0128
   37POPC   H7S 4963   3.257   5.628   7.492 -1.2319  0.0680  0.5405
   37POPC   C28 4964   3.298   5.499   7.656 -0.3733 -0.0261 -0.5815
   37POPC   H8R 4965   3.294   5.392   7.684  2.5551 -0.2953 -0.9736
   37POPC   H8S 4966   3.242   5.551   7.738  0.6559  2.1623 -1.1836
   37POPC   C29 4967   3.443   5.550   7.662 -0.7076 -0.0888  0.3438
   37POPC   H91 4968   3.469   5.632   7.594  0.7615 -0.1396  0.8074
   37POPC  C210 4969   3.538   5.509   7.750 -0.2122  0.3814 -0.1689
   37POPC  H101 4970   3.640   5.547   7.764  0.1414 -1.2250  2.3689
   37POPC  C211 4971   3.504   5.412   7.864  0.4629 -0.4665  0.7539
   37POPC  H11R 4972   3.583   5.335   7.865  0.5384 -0.5122  4.1334
   37POPC  H11S 4973   3.403   5.365   7.857  0.1005  0.3676  0.1406
   37POPC  C212 4974   3.510   5.488   8.004  0.4503 -0.1342  1.1223
   37POPC  H12R 4975   3.604   5.546   8.012  0.9303 -0.8186  0.4777
   37POPC  H12S 4976   3.509   5.408   8.081  1.0158 -1.4470 -0.2016
   37POPC  C213 4977   3.388   5.582   8.021  0.4468 -0.1979  0.2071
   37POPC  H13R 4978   3.299   5.515   8.014 -0.4297  1.0015 -0.7250
   37POPC  H13S 4979   3.385   5.651   7.934  0.0173 -0.6135 -0.1199
   37POPC  C214 4980   3.372   5.646   8.157 -0.4469 -0.0241 -0.3035
   37POPC  H14R 4981   3.372   5.570   8.237 -1.3941  1.8826  1.6170
   37POPC  H14S 4982   3.277   5.700   8.177 -0.2569  0.6498 -1.1302
   37POPC  C215 4983   3.490   5.732   8.200  0.8877  0.1978  0.4344
   37POPC  H15R 4984   3.469   5.835   8.165 -0.9230 -0.2898 -0.0162
   37POPC  H15S 4985   3.584   5.701   8.150  0.8107  0.9257 -0.1847
   37POPC  C216 4986   3.508   5.728   8.349 -1.0143 -0.1172  0.0888
   37POPC  H16R 4987   3.541   5.626   8.377 -0.4159  0.5323  1.8591
   37POPC  H16S 4988   3.411   5.740   8.402 -1.2432 -2.2960  0.2418
   37POPC  C217 4989   3.612   5.832   8.407  0.3212  0.1417 -0.0807
   37POPC  H17R 4990   3.565   5.929   8.378  1.3562  0.4844 -0.6764
   37POPC  H17S 4991   3.715   5.821   8.368 -1.0274 -0.1161 -4.0431
   37POPC  C218 4992   3.609   5.832   8.561 -0.0817 -0.0461 -0.3770
   37POPC  H18R 4993   3.628   5.728   8.594  0.0057  0.1212  0.1100
   37POPC  H18S 4994   3.516   5.880   8.599  0.8600  1.6049 -0.0328
   37POPC  H18T 4995   3.687   5.902   8.598  0.0637  0.5675 -1.7714
   37POPC   C33 4996   3.695   5.797   7.286  0.2479  0.9355 -0.1765
   37POPC   H3X 4997   3.783   5.730   7.290  0.6135  1.4143 -0.0355
   37POPC   H3Y 4998   3.608   5.732   7.307 -0.1666  1.4102 -0.4046
   37POPC   C34 4999   3.713   5.890   7.409  0.3037 -0.5787  0.2270
   37POPC   H4X 5000   3.613   5.938   7.417  0.7183  0.1845  0.9739
   37POPC   H4Y 5001   3.792   5.966   7.391  0.3487 -1.1988 -2.6212
   37POPC   C35 5002   3.724   5.813   7.546 -0.6443  0.5808  1.2529
   37POPC   H5X 5003   3.816   5.750   7.547  0.0948  1.4011 -2.0531
   37POPC   H5Y 5004   3.641   5.739   7.540 -1.1538  1.1718  0.9423
   37POPC   C36 5005   3.723   5.908   7.664 -0.0568  0.0011  0.5147
   37POPC   H6X 5006   3.637   5.979   7.658  0.0624  0.1209  0.1874
   37POPC   H6Y 5007   3.814   5.971   7.656  0.3091 -0.5563  0.2077
   37POPC   C37 5008   3.721   5.822   7.794 -0.2803  0.3128  0.6484
   37POPC   H7X 5009   3.778   5.727   7.782 -0.9207  0.0590 -0.6535
   37POPC   H7Y 5010   3.612   5.798   7.797 -0.5423  1.2283 -0.5882
   37POPC   C38 5011   3.775   5.903   7.914  0.6419  0.3553  0.0690
   37POPC   H8X 5012   3.870   5.954   7.888  1.7257 -1.5641  0.0973
   37POPC   H8Y 5013   3.795   5.838   8.002  0.8123 -0.8880 -0.8629
   37POPC   C39 5014   3.686   6.028   7.946 -0.3850  0.0329 -0.3734
   37POPC   H9X 5015   3.580   6.004   7.923 -0.5767  1.3049 -0.9217
   37POPC   H9Y 5016   3.719   6.118   7.890  0.6045 -0.1295 -0.0717
   37POPC  C310 5017   3.688   6.050   8.095 -0.4499 -0.8379 -0.2056
   37POPC  H10X 5018   3.674   5.957   8.155  0.3227 -0.2798  0.8787
   37POPC  H10Y 5019   3.610   6.124   8.123 -0.7099 -1.1057 -0.2183
   37POPC  C311 5020   3.826   6.111   8.137 -0.2257 -0.3567 -0.4017
   37POPC  H11X 5021   3.829   6.218   8.110 -1.1412 -0.2665 -0.1988
   37POPC  H11Y 5022   3.912   6.049   8.104 -0.3300 -1.0003  0.4868
   37POPC  C312 5023   3.843   6.110   8.291  0.9252  0.2361  0.1168
   37POPC  H12X 5024   3.952   6.120   8.308  0.9660 -1.0052  0.7804
   37POPC  H12Y 5025   3.804   6.011   8.324  0.3346  0.5454  0.3649
   37POPC  C313 5026   3.757   6.212   8.364  0.1812  0.4444  0.5218
   37POPC  H13X 5027   3.648   6.207   8.344  0.8237  0.6262 -3.9237
   37POPC  H13Y 5028   3.790   6.309   8.323  0.1852  0.1215 -0.2462
   37POPC  C314 5029   3.780   6.218   8.516  0.2297  0.3589  0.1470
   37POPC  H14X 5030   3.796   6.112   8.545 -1.8607 -0.2328 -0.7421
   37POPC  H14Y 5031   3.696   6.273   8.563  0.7866  3.2396 -1.9902
   37POPC  C315 5032   3.902   6.298   8.554  0.1337  0.6530 -1.2562
   37POPC  H15X 5033   3.892   6.401   8.513  0.8047  0.4066 -2.0722
   37POPC  H15Y 5034   3.991   6.251   8.505  0.0646 -0.3561 -0.4474
   37POPC  C316 5035   3.930   6.302   8.705  0.5339  0.2424  0.9100
   37POPC  H16X 5036   3.975   6.205   8.734  2.5461  0.5059 -1.0948
   37POPC  H16Y 5037   3.837   6.326   8.761 -0.1805  0.3966 -0.3166
   37POPC  H16Z 5038   4.003   6.384   8.721  1.2035  0.2612 -1.7876
   38POPC     N 5039   0.808   4.750   6.334  0.5203  0.4116  0.9633
   38POPC   C12 5040   0.826   4.708   6.482 -0.0295  0.4833  0.8690
   38POPC  H12A 5041   0.731   4.709   6.534 -0.7031  1.1276 -0.3018
   38POPC  H12B 5042   0.891   4.784   6.523  1.5324 -1.0713  1.3676
   38POPC   C13 5043   0.773   4.894   6.323  0.5654 -1.0424 -0.0522
   38POPC  H13A 5044   0.790   4.930   6.223  1.1872  1.3210  0.8227
   38POPC  H13B 5045   0.667   4.911   6.336  0.2631 -1.9436 -1.2384
   38POPC  H13C 5046   0.825   4.959   6.393  0.4011 -1.6583  0.6599
   38POPC   C14 5047   0.937   4.730   6.252 -0.6793  0.0149 -0.2675
   38POPC  H14A 5048   0.916   4.759   6.150  0.5726  0.5576 -0.3930
   38POPC  H14B 5049   1.019   4.790   6.289  2.6034 -3.8086 -0.7403
   38POPC  H14C 5050   0.977   4.631   6.267 -0.5001  0.2066  0.5576
   38POPC   C15 5051   0.703   4.671   6.260  0.2057  0.1598  0.5525
   38POPC  H15A 5052   0.713   4.673   6.152 -0.0917  0.7214  0.5315
   38POPC  H15B 5053   0.605   4.707   6.289  0.3766 -1.2365  3.2526
   38POPC  H15C 5054   0.708   4.565   6.281  1.6523  0.5670  2.5115
   38POPC   C11 5055   0.897   4.576   6.498 -0.8089 -0.2093 -0.6746
   38POPC  H11A 5056   0.854   4.502   6.428  0.3128 -1.8272  0.3018
   38POPC  H11B 5057   0.878   4.527   6.596 -1.9095  0.1343 -0.7024
   38POPC     P 5058   1.119   4.677   6.596  0.4776  0.4245 -0.1618
   38POPC   O13 5059   1.070   4.811   6.585 -0.0138 -0.6183 -0.4105
   38POPC   O14 5060   1.265   4.659   6.584 -0.6276  0.0569 -0.3711
   38POPC   O12 5061   1.043   4.584   6.489  0.1055 -0.2774 -0.3847
   38POPC   O11 5062   1.068   4.617   6.731  0.5597  0.1821 -0.4328
   38POPC    C1 5063   1.079   4.477   6.759 -0.3234 -0.1052 -0.2813
   38POPC    HA 5064   1.128   4.410   6.685 -0.8957 -0.7978 -0.0386
   38POPC    HB 5065   0.982   4.428   6.780 -0.2205  0.2491  1.0865
   38POPC    C2 5066   1.161   4.442   6.885 -0.7287 -0.3534  0.2426
   38POPC    HS 5067   1.269   4.465   6.876 -0.5978 -1.2412 -0.5717
   38POPC   O21 5068   1.143   4.303   6.922 -0.3471 -0.4575 -0.2809
   38POPC   C21 5069   1.223   4.225   6.848  0.0183  0.4634  0.3315
   38POPC   O22 5070   1.290   4.256   6.751 -0.0474 -0.4301 -0.3305
   38POPC   C22 5071   1.226   4.087   6.902  0.6180  0.7812  0.3101
   38POPC   H2R 5072   1.223   4.026   6.809 -1.5889  1.6224 -0.2328
   38POPC   H2S 5073   1.148   4.061   6.976  1.2842  0.7778  1.0181
   38POPC    C3 5074   1.120   4.531   6.999 -1.0293  0.3148  0.0253
   38POPC    HX 5075   1.009   4.533   7.006 -1.2302  1.1321 -2.4066
   38POPC    HY 5076   1.146   4.636   6.976  1.8121 -1.2549 -5.7627
   38POPC   O31 5077   1.174   4.496   7.130 -0.2170  0.5041 -0.4147
   38POPC   C31 5078   1.301   4.509   7.153 -0.0015  0.2591  0.7144
   38POPC   O32 5079   1.385   4.551   7.081  0.0244  0.8394  0.5099
   38POPC   C32 5080   1.334   4.456   7.288 -0.6548  0.2479 -0.3149
   38POPC   H2X 5081   1.431   4.496   7.325  0.1983 -1.7475 -0.2841
   38POPC   H2Y 5082   1.356   4.348   7.280 -1.9638 -0.0179 -0.4018
   38POPC   C23 5083   1.360   4.062   6.973 -0.2389 -1.1056 -0.0600
   38POPC   H3R 5084   1.438   4.132   6.935 -0.8583  0.8629  2.0731
   38POPC   H3S 5085   1.405   3.961   6.964 -1.5948 -1.6967 -0.4224
   38POPC   C24 5086   1.348   4.077   7.125  0.2644 -0.1200  0.2267
   38POPC   H4R 5087   1.255   4.023   7.156  1.2239 -1.0118  1.6680
   38POPC   H4S 5088   1.336   4.187   7.131  1.1848  0.0585 -0.9340
   38POPC   C25 5089   1.458   4.025   7.213 -0.3149 -0.1944 -0.2323
   38POPC   H5R 5090   1.556   4.071   7.190  0.1741 -0.6312  0.9364
   38POPC   H5S 5091   1.469   3.915   7.202 -1.9206 -0.6968  2.2325
   38POPC   C26 5092   1.424   4.047   7.363  0.3905 -0.0323  0.9224
   38POPC   H6R 5093   1.350   3.971   7.394 -1.3151  1.0940 -0.2525
   38POPC   H6S 5094   1.384   4.151   7.369 -0.9847 -0.6354  4.0664
   38POPC   C27 5095   1.552   4.053   7.452  0.1882 -0.1398 -0.2920
   38POPC   H7R 5096   1.620   4.124   7.400  0.1076  0.1068 -0.0657
   38POPC   H7S 5097   1.602   3.955   7.463  2.0450  0.9256  1.5874
   38POPC   C28 5098   1.531   4.110   7.596 -0.0258 -0.5981  0.1493
   38POPC   H8R 5099   1.493   4.214   7.588  1.0961 -0.2670 -1.4844
   38POPC   H8S 5100   1.625   4.120   7.654  0.0793 -0.8821  0.0310
   38POPC   C29 5101   1.443   4.027   7.682  0.4061  0.2368  0.0886
   38POPC   H91 5102   1.347   4.008   7.631  0.8821 -1.7832 -0.1516
   38POPC  C210 5103   1.457   3.984   7.811 -0.0644 -0.2441  0.4645
   38POPC  H101 5104   1.382   3.927   7.868  0.0813 -0.2188  0.6827
   38POPC  C211 5105   1.581   4.009   7.890  0.5865 -0.6436  0.1896
   38POPC  H11R 5106   1.655   4.082   7.852  0.9442 -0.3304  1.4201
   38POPC  H11S 5107   1.639   3.914   7.893 -0.5945 -1.4704 -1.5767
   38POPC  C212 5108   1.553   4.064   8.030 -0.4803 -0.1596  1.1374
   38POPC  H12R 5109   1.464   4.016   8.076 -1.3131 -0.2487 -0.4837
   38POPC  H12S 5110   1.533   4.173   8.028 -1.4223 -0.3181 -1.2430
   38POPC  C213 5111   1.677   4.066   8.124 -0.0589  0.3507 -1.2683
   38POPC  H13R 5112   1.750   4.136   8.079 -0.5687 -1.0593 -4.5901
   38POPC  H13S 5113   1.720   3.963   8.121 -2.2277 -0.9010  2.8770
   38POPC  C214 5114   1.643   4.114   8.263  0.2727  0.4034  0.4288
   38POPC  H14R 5115   1.584   4.038   8.319 -0.1270  1.8645  2.0828
   38POPC  H14S 5116   1.573   4.201   8.260 -1.9131 -1.2945 -0.8395
   38POPC  C215 5117   1.771   4.150   8.341 -0.1947 -0.3356  0.0861
   38POPC  H15R 5118   1.821   4.225   8.277 -0.9239 -0.6645 -0.8918
   38POPC  H15S 5119   1.838   4.063   8.358 -0.7549 -0.6353  0.8542
   38POPC  C216 5120   1.744   4.214   8.479  0.5844  0.9084 -0.6928
   38POPC  H16R 5121   1.680   4.145   8.539 -0.7305  2.2676 -0.4792
   38POPC  H16S 5122   1.678   4.301   8.462  0.2903  0.8101 -0.0736
   38POPC  C217 5123   1.874   4.244   8.559  0.0180  0.0256 -0.4460
   38POPC  H17R 5124   1.942   4.158   8.541 -0.1840 -0.2490  0.0831
   38POPC  H17S 5125   1.848   4.254   8.666  0.7308  1.9687 -0.4076
   38POPC  C218 5126   1.952   4.366   8.504  0.5565 -0.4459 -0.4087
   38POPC  H18R 5127   1.968   4.359   8.395  0.4100  2.6677 -0.7019
   38POPC  H18S 5128   2.040   4.374   8.572 -1.9871  1.0699  2.9917
   38POPC  H18T 5129   1.883   4.451   8.520 -0.2728 -1.3733  1.1312
   38POPC   C33 5130   1.242   4.469   7.410 -0.1152  0.3591  0.5473
   38POPC   H3X 5131   1.145   4.415   7.407 -0.1797  0.4863  0.2018
   38POPC   H3Y 5132   1.227   4.575   7.440  0.8244  0.6635 -0.0065
   38POPC   C34 5133   1.305   4.403   7.531 -0.1373  0.4294 -0.4789
   38POPC   H4X 5134   1.414   4.423   7.529  0.0290  0.0713  1.8174
   38POPC   H4Y 5135   1.301   4.292   7.537  2.2081  0.3366  0.4377
   38POPC   C35 5136   1.253   4.456   7.665  0.4412 -0.2206 -0.4449
   38POPC   H5X 5137   1.149   4.425   7.690  1.2251 -0.3538  3.2213
   38POPC   H5Y 5138   1.248   4.567   7.673 -1.4690 -0.1468 -1.9267
   38POPC   C36 5139   1.330   4.403   7.785  0.1803 -0.0506  0.2046
   38POPC   H6X 5140   1.432   4.449   7.780  0.4898 -0.8306 -1.1150
   38POPC   H6Y 5141   1.351   4.295   7.799  0.3515  0.1116  1.2914
   38POPC   C37 5142   1.276   4.465   7.917 -0.4216 -0.4155  0.1204
   38POPC   H7X 5143   1.169   4.435   7.917  0.3417 -3.5106 -1.0422
   38POPC   H7Y 5144   1.292   4.575   7.919 -0.3189 -0.4182 -0.4343
   38POPC   C38 5145   1.340   4.405   8.043 -0.1896  0.5379 -0.4950
   38POPC   H8X 5146   1.450   4.421   8.042 -0.4290  2.4668 -0.7884
   38POPC   H8Y 5147   1.323   4.296   8.052 -0.3432  0.5018 -1.1676
   38POPC   C39 5148   1.295   4.463   8.176  0.9060 -0.6456 -0.4701
   38POPC   H9X 5149   1.185   4.453   8.183  0.3922  2.7920 -1.9362
   38POPC   H9Y 5150   1.302   4.573   8.176 -0.4696 -0.5442 -0.1172
   38POPC  C310 5151   1.369   4.407   8.298  0.2030 -0.0034 -0.3089
   38POPC  H10X 5152   1.478   4.422   8.285  0.0169  4.6897  1.4439
   38POPC  H10Y 5153   1.349   4.298   8.307  1.8938 -0.4859 -1.7683
   38POPC  C311 5154   1.337   4.488   8.419  0.2179 -0.4187  0.4729
   38POPC  H11X 5155   1.229   4.478   8.442 -0.1110 -0.1533 -0.8997
   38POPC  H11Y 5156   1.354   4.597   8.407 -1.0880 -0.3450 -0.9724
   38POPC  C312 5157   1.416   4.443   8.546  0.3648 -0.1854  0.4687
   38POPC  H12X 5158   1.403   4.527   8.618 -3.1126  0.0617 -0.2517
   38POPC  H12Y 5159   1.522   4.421   8.521  0.1459 -0.2729 -0.4193
   38POPC  C313 5160   1.347   4.319   8.609 -0.6879  0.0161 -0.4009
   38POPC  H13X 5161   1.334   4.239   8.533 -1.4869 -0.3012  0.0471
   38POPC  H13Y 5162   1.241   4.341   8.635 -0.9617 -0.9729 -0.6311
   38POPC  C314 5163   1.413   4.250   8.729  0.1215 -0.2698 -0.1894
   38POPC  H14X 5164   1.405   4.327   8.809  3.3416  1.2487 -1.1177
   38POPC  H14Y 5165   1.521   4.244   8.703 -0.1853 -0.1498 -1.5953
   38POPC  C315 5166   1.354   4.126   8.782  0.2605  0.7028 -0.3963
   38POPC  H15X 5167   1.360   4.048   8.704  0.5583  0.8970 -0.5675
   38POPC  H15Y 5168   1.244   4.120   8.799  0.2905 -2.0872 -0.7569
   38POPC  C316 5169   1.422   4.069   8.906  0.2142 -0.6757 -0.0938
   38POPC  H16X 5170   1.435   3.959   8.898  1.6803 -0.6770  1.5673
   38POPC  H16Y 5171   1.352   4.086   8.991  0.8583 -1.2142  0.5550
   38POPC  H16Z 5172   1.513   4.131   8.925 -2.5000  3.8489 -0.4412
   39POPC     N 5173   5.631   1.172   5.914  0.2410  0.1133 -0.5659
   39POPC   C12 5174   5.689   1.108   6.040  0.5098 -0.1039 -1.2381
   39POPC  H12A 5175   5.610   1.053   6.088  0.2383 -0.4208 -2.0376
   39POPC  H12B 5176   5.722   1.188   6.105 -0.2795  1.7312 -2.9676
   39POPC   C13 5177   5.614   1.075   5.798  0.1256 -0.1919  0.7314
   39POPC  H13A 5178   5.704   1.023   5.771  0.7555  1.9220 -1.5881
   39POPC  H13B 5179   5.535   1.006   5.823  0.5716 -0.9474  0.1153
   39POPC  H13C 5180   5.588   1.136   5.713 -1.4986  0.9658  1.9864
   39POPC   C14 5181   5.497   1.236   5.942  0.6535  0.6527  0.6034
   39POPC  H14A 5182   5.435   1.172   6.004  0.3295 -2.0134 -2.2087
   39POPC  H14B 5183   5.509   1.330   5.993 -0.1699  1.1306 -0.0597
   39POPC  H14C 5184   5.440   1.256   5.852  1.4994  2.9516  0.5257
   39POPC   C15 5185   5.742   1.274   5.875  0.7833 -0.3870 -0.1255
   39POPC  H15A 5186   5.833   1.219   5.858  1.2095 -0.0570  0.9593
   39POPC  H15B 5187   5.767   1.350   5.948 -0.5539 -0.4346  0.4207
   39POPC  H15C 5188   5.708   1.331   5.790  1.7502 -0.5496 -0.6375
   39POPC   C11 5189   5.808   1.013   6.029 -0.1505 -0.1518 -0.1346
   39POPC  H11A 5190   5.775   0.924   5.972 -1.1831 -0.3328  0.6911
   39POPC  H11B 5191   5.826   0.985   6.135 -0.9541  2.4628  0.7789
   39POPC     P 5192   6.044   1.120   6.050  0.6199 -0.1904  0.2291
   39POPC   O13 5193   6.139   1.178   5.959  0.0417 -0.4020  0.6506
   39POPC   O14 5194   6.090   1.005   6.133 -0.4551 -0.3575 -0.1807
   39POPC   O12 5195   5.929   1.070   5.969  0.6357 -0.2635 -0.6351
   39POPC   O11 5196   5.982   1.237   6.131  0.1210  0.2140 -0.3510
   39POPC    C1 5197   6.030   1.373   6.121  0.0949  0.2191 -0.8786
   39POPC    HA 5198   5.947   1.435   6.160 -0.5640 -0.4084 -1.2432
   39POPC    HB 5199   6.050   1.409   6.017  2.2825 -0.2493 -0.6717
   39POPC    C2 5200   6.150   1.390   6.211 -0.0630 -0.5802  0.8573
   39POPC    HS 5201   6.241   1.347   6.164 -0.5815 -1.5716  0.7513
   39POPC   O21 5202   6.130   1.336   6.342 -0.2843  0.1161  0.7941
   39POPC   C21 5203   6.241   1.304   6.409 -0.7675 -0.1125  0.4095
   39POPC   O22 5204   6.355   1.325   6.370  0.3340  0.0750  0.4498
   39POPC   C22 5205   6.199   1.214   6.524  0.0717 -0.6034  0.2632
   39POPC   H2R 5206   6.120   1.144   6.491  0.6709 -0.0759 -2.5981
   39POPC   H2S 5207   6.146   1.279   6.597 -1.2997  0.2134 -1.3802
   39POPC    C3 5208   6.173   1.539   6.222 -0.1637 -0.2848  0.5137
   39POPC    HX 5209   6.099   1.596   6.283 -0.5970 -0.8389  0.5139
   39POPC    HY 5210   6.163   1.588   6.123 -2.0773  1.4872  1.4870
   39POPC   O31 5211   6.303   1.578   6.274  0.0631  0.3325  0.2550
   39POPC   C31 5212   6.310   1.708   6.294 -0.3459  0.5390  0.5868
   39POPC   O32 5213   6.225   1.790   6.269 -0.2204  0.1285  0.4835
   39POPC   C32 5214   6.442   1.743   6.362  0.1164 -0.0236 -0.1135
   39POPC   H2X 5215   6.508   1.657   6.337 -1.7651 -2.3415  2.3046
   39POPC   H2Y 5216   6.489   1.831   6.314  3.6017 -1.0352  1.1125
   39POPC   C23 5217   6.302   1.141   6.599  0.2530 -0.4870 -0.5730
   39POPC   H3R 5218   6.358   1.205   6.670 -0.7537 -2.3003  1.9978
   39POPC   H3S 5219   6.387   1.097   6.542  2.1231  0.8083  1.0752
   39POPC   C24 5220   6.229   1.032   6.677  0.0844  0.2052 -0.3613
   39POPC   H4R 5221   6.196   0.943   6.619 -0.1044  1.1197 -1.7060
   39POPC   H4S 5222   6.142   1.083   6.724  2.4297  2.0447  2.3055
   39POPC   C25 5223   6.316   0.988   6.803  0.3752  0.7073  0.2207
   39POPC   H5R 5224   6.256   0.923   6.870  1.2944  0.3669  0.7320
   39POPC   H5S 5225   6.344   1.075   6.867  0.5677  0.4695  0.4643
   39POPC   C26 5226   6.441   0.912   6.757 -0.7204  0.3319 -0.6496
   39POPC   H6R 5227   6.511   0.980   6.704 -0.0115  1.4206  1.5590
   39POPC   H6S 5228   6.425   0.822   6.695 -0.3786 -0.8974  0.9941
   39POPC   C27 5229   6.523   0.876   6.880 -0.7975  0.5190  0.0555
   39POPC   H7R 5230   6.522   0.963   6.949  1.0533 -0.1235  0.9367
   39POPC   H7S 5231   6.627   0.854   6.850 -1.2206 -1.6541  0.0064
   39POPC   C28 5232   6.470   0.748   6.948 -0.5582  0.0676  0.3865
   39POPC   H8R 5233   6.453   0.672   6.869  2.1268 -0.1097 -0.1053
   39POPC   H8S 5234   6.365   0.756   6.983 -0.8136 -0.0439 -0.3434
   39POPC   C29 5235   6.555   0.680   7.054  0.5080 -0.2055 -1.1305
   39POPC   H91 5236   6.629   0.611   7.012  0.1540 -1.2257 -0.1216
   39POPC  C210 5237   6.547   0.703   7.191  0.3487 -0.1012 -0.1543
   39POPC  H101 5238   6.602   0.645   7.266 -0.4693  1.2210  1.5407
   39POPC  C211 5239   6.450   0.820   7.241  0.1456  0.6315 -0.1518
   39POPC  H11R 5240   6.408   0.893   7.168 -2.2785  0.6663  1.1581
   39POPC  H11S 5241   6.498   0.887   7.314 -1.1616  0.1676  1.1943
   39POPC  C212 5242   6.324   0.776   7.307 -0.3875 -0.4043  0.1965
   39POPC  H12R 5243   6.247   0.745   7.233 -1.0829  1.6500  0.0185
   39POPC  H12S 5244   6.286   0.856   7.374  0.2418 -0.4559  0.6194
   39POPC  C213 5245   6.351   0.659   7.411  0.2503  0.0464 -0.2160
   39POPC  H13R 5246   6.374   0.566   7.355  0.6499  0.4689 -0.7573
   39POPC  H13S 5247   6.249   0.643   7.453  0.2365  2.3086  0.7656
   39POPC  C214 5248   6.445   0.698   7.519 -0.2683 -0.5292  0.8452
   39POPC  H14R 5249   6.405   0.782   7.581 -2.9567 -1.0004 -0.0836
   39POPC  H14S 5250   6.539   0.734   7.474 -2.1473  1.6102 -1.6967
   39POPC  C215 5251   6.483   0.579   7.606  0.2463  0.0624  0.1973
   39POPC  H15R 5252   6.503   0.500   7.531 -1.4047  0.4191 -0.6626
   39POPC  H15S 5253   6.389   0.557   7.660  0.2944 -0.1432  0.1991
   39POPC  C216 5254   6.587   0.604   7.714  0.4068  0.0185  0.4892
   39POPC  H16R 5255   6.685   0.629   7.668  1.4437 -0.4820  2.2964
   39POPC  H16S 5256   6.604   0.510   7.771 -1.3813 -1.5003 -1.3208
   39POPC  C217 5257   6.537   0.727   7.801 -0.2284  0.2414 -0.6171
   39POPC  H17R 5258   6.433   0.699   7.828 -0.1088 -0.3688 -0.7688
   39POPC  H17S 5259   6.524   0.822   7.746 -2.4284 -0.0368 -0.6883
   39POPC  C218 5260   6.611   0.753   7.930  0.0559 -0.4649 -0.1642
   39POPC  H18R 5261   6.568   0.845   7.974  0.1874  0.4800 -1.9515
   39POPC  H18S 5262   6.718   0.773   7.911  0.9362 -3.3644  1.0484
   39POPC  H18T 5263   6.609   0.664   7.997  1.8517  0.0819  0.6854
   39POPC   C33 5264   6.433   1.754   6.514  0.1249  0.1946 -0.7786
   39POPC   H3X 5265   6.355   1.831   6.530  0.0044  0.2191 -1.4554
   39POPC   H3Y 5266   6.534   1.783   6.550  0.6939 -2.7346  0.2530
   39POPC   C34 5267   6.407   1.624   6.582 -0.0663  0.2063 -0.0737
   39POPC   H4X 5268   6.478   1.553   6.535 -0.4755 -0.7481  0.7186
   39POPC   H4Y 5269   6.300   1.593   6.572 -0.1876  0.9868 -1.3660
   39POPC   C35 5270   6.446   1.616   6.733  0.0197  0.6748 -0.2646
   39POPC   H5X 5271   6.386   1.689   6.792 -0.3160  1.5658 -1.6659
   39POPC   H5Y 5272   6.550   1.656   6.740  0.4768 -0.5708  0.3683
   39POPC   C36 5273   6.449   1.476   6.792 -0.5544 -0.6246 -0.6021
   39POPC   H6X 5274   6.466   1.400   6.713 -0.5821 -0.4663 -0.7604
   39POPC   H6Y 5275   6.348   1.452   6.834 -0.2554  0.4701  0.8367
   39POPC   C37 5276   6.544   1.451   6.903 -0.3845 -0.0505  0.5825
   39POPC   H7X 5277   6.534   1.535   6.975  1.5540 -1.4217  2.5869
   39POPC   H7Y 5278   6.642   1.460   6.853 -0.6940  1.5057  0.1865
   39POPC   C38 5279   6.528   1.331   6.988 -0.0525  0.2232 -0.2894
   39POPC   H8X 5280   6.623   1.314   7.043  0.2158  0.6386 -0.6183
   39POPC   H8Y 5281   6.502   1.234   6.941 -1.3251 -0.4029  1.5841
   39POPC   C39 5282   6.416   1.355   7.095 -0.5954  0.3441  0.4498
   39POPC   H9X 5283   6.323   1.385   7.042  0.1649  1.6953 -0.1509
   39POPC   H9Y 5284   6.453   1.445   7.148 -0.5857 -0.9323  2.7686
   39POPC  C310 5285   6.390   1.245   7.201 -0.0617  0.4210 -0.4089
   39POPC  H10X 5286   6.489   1.234   7.251 -0.3526 -1.6971 -0.2074
   39POPC  H10Y 5287   6.372   1.149   7.150  1.0792  1.1603 -2.2989
   39POPC  C311 5288   6.282   1.280   7.305  0.2359  0.1563  0.0955
   39POPC  H11X 5289   6.183   1.238   7.276  0.6049  0.3969 -1.6001
   39POPC  H11Y 5290   6.284   1.390   7.323  1.3267  0.5764 -2.2311
   39POPC  C312 5291   6.309   1.227   7.446  0.3331  0.0128  0.2031
   39POPC  H12X 5292   6.409   1.269   7.474  1.4543  0.0829 -3.4184
   39POPC  H12Y 5293   6.303   1.116   7.446 -0.4816 -0.0116 -2.7063
   39POPC  C313 5294   6.202   1.275   7.547  0.6150 -0.2774 -0.3363
   39POPC  H13X 5295   6.103   1.257   7.500  0.5062 -2.1008  0.4724
   39POPC  H13Y 5296   6.212   1.383   7.567  0.1946 -0.6234  2.0476
   39POPC  C314 5297   6.213   1.204   7.680  0.3460  0.0061 -0.0553
   39POPC  H14X 5298   6.250   1.100   7.670 -0.3774 -0.2309 -0.2946
   39POPC  H14Y 5299   6.112   1.179   7.718  1.3011 -2.4715  1.0620
   39POPC  C315 5300   6.299   1.288   7.779 -0.3429  0.2048 -0.6498
   39POPC  H15X 5301   6.293   1.395   7.752  1.1436  1.6406  3.7520
   39POPC  H15Y 5302   6.402   1.258   7.750  0.3014  1.5520  0.1178
   39POPC  C316 5303   6.281   1.262   7.931 -1.2181  0.3876  0.2220
   39POPC  H16X 5304   6.344   1.331   7.990 -0.7204 -0.6549  0.9385
   39POPC  H16Y 5305   6.308   1.158   7.962 -0.0254  1.0358  1.4294
   39POPC  H16Z 5306   6.178   1.283   7.968 -0.3444  1.3904  2.1973
   40POPC     N 5307   0.259   6.506   5.959 -0.2154  0.4100 -0.0259
   40POPC   C12 5308   0.264   6.419   6.085  0.1351  0.6280 -0.2236
   40POPC  H12A 5309   0.368   6.419   6.116 -0.3973 -0.7514  1.7892
   40POPC  H12B 5310   0.243   6.318   6.053 -2.7494  1.0773 -0.0504
   40POPC   C13 5311   0.356   6.471   5.849  0.4380 -0.6998 -0.8677
   40POPC  H13A 5312   0.352   6.542   5.767  1.4908 -2.2942 -2.3700
   40POPC  H13B 5313   0.460   6.471   5.878  0.4836  1.7157 -0.8181
   40POPC  H13C 5314   0.332   6.372   5.812  0.4076 -2.0434  2.4425
   40POPC   C14 5315   0.124   6.503   5.898  0.3176 -0.1578 -0.2713
   40POPC  H14A 5316   0.101   6.412   5.845  2.0114 -0.2276 -0.9613
   40POPC  H14B 5317   0.054   6.497   5.980 -1.0556 -1.9668 -1.5164
   40POPC  H14C 5318   0.116   6.591   5.836  0.6643  0.8589  1.0680
   40POPC   C15 5319   0.288   6.650   5.992  0.3303 -0.4386  0.0687
   40POPC  H15A 5320   0.206   6.694   6.046  0.3854 -1.1661  0.7605
   40POPC  H15B 5321   0.295   6.706   5.900 -0.8444 -1.5082 -0.7113
   40POPC  H15C 5322   0.382   6.669   6.041 -0.0078 -0.1506  0.6207
   40POPC   C11 5323   0.174   6.450   6.207  0.0881  0.5146 -0.6473
   40POPC  H11A 5324   0.174   6.558   6.234  0.5437  0.0977  1.1831
   40POPC  H11B 5325   0.207   6.390   6.295  2.8636  2.3001 -0.3284
   40POPC     P 5326  -0.080   6.442   6.246  0.1213  0.1966  0.1876
   40POPC   O13 5327  -0.175   6.344   6.190  0.0345 -0.7917 -0.1989
   40POPC   O14 5328  -0.110   6.585   6.225 -0.6466  0.2671 -0.2450
   40POPC   O12 5329   0.049   6.407   6.165 -0.7398 -0.2686 -0.0507
   40POPC   O11 5330  -0.049   6.419   6.393  0.3123  0.0216 -1.3384
   40POPC    C1 5331  -0.080   6.515   6.499 -0.0403 -0.6809  0.6314
   40POPC    HA 5332  -0.126   6.464   6.586 -1.6756 -3.5660 -1.7484
   40POPC    HB 5333  -0.152   6.591   6.463  0.1864 -1.3904 -1.4797
   40POPC    C2 5334   0.051   6.586   6.553  0.6632 -0.9555 -0.6876
   40POPC    HS 5335   0.095   6.640   6.467 -3.7007  0.8815 -2.0437
   40POPC   O21 5336   0.136   6.491   6.610 -0.8077  0.0336  0.4321
   40POPC   C21 5337   0.268   6.522   6.609 -0.1895  0.3705 -1.0957
   40POPC   O22 5338   0.321   6.616   6.558 -0.4089  0.1804  0.0353
   40POPC   C22 5339   0.340   6.424   6.707  0.7039  0.0454 -0.0336
   40POPC   H2R 5340   0.343   6.324   6.658  0.1882  0.3549 -0.7092
   40POPC   H2S 5341   0.278   6.406   6.797  0.0864 -1.9744 -0.8073
   40POPC    C3 5342   0.022   6.691   6.668  0.2501 -0.0971  0.3603
   40POPC    HX 5343  -0.054   6.750   6.612  1.3647 -1.2739 -2.5799
   40POPC    HY 5344   0.105   6.761   6.691  0.1881  0.3243 -0.6588
   40POPC   O31 5345  -0.052   6.642   6.785 -0.7531  0.1204  0.1154
   40POPC   C31 5346   0.029   6.607   6.885  0.6389 -0.6541 -0.1848
   40POPC   O32 5347   0.151   6.624   6.889  0.1810 -0.1067  0.0403
   40POPC   C32 5348  -0.054   6.562   7.001  1.0758 -0.0268  1.0227
   40POPC   H2X 5349  -0.076   6.455   6.983 -1.0732  0.9411 -3.9809
   40POPC   H2Y 5350  -0.151   6.614   7.012  0.4627 -0.2294 -2.2084
   40POPC   C23 5351   0.483   6.454   6.752 -0.0824 -1.0773  0.8178
   40POPC   H3R 5352   0.490   6.548   6.812  1.5108 -0.3431 -0.4137
   40POPC   H3S 5353   0.551   6.459   6.664 -1.0728 -2.3072 -0.0401
   40POPC   C24 5354   0.530   6.345   6.844  0.2608  0.0671  0.3209
   40POPC   H4R 5355   0.513   6.256   6.779 -1.1955  2.4620 -2.8881
   40POPC   H4S 5356   0.460   6.341   6.930  0.1473  0.7539  0.2608
   40POPC   C25 5357   0.674   6.361   6.886  0.0413  0.1709 -0.0398
   40POPC   H5R 5358   0.671   6.440   6.964  0.8366  2.0336 -1.7995
   40POPC   H5S 5359   0.741   6.393   6.803 -1.4244 -0.8470 -1.6786
   40POPC   C26 5360   0.720   6.227   6.950 -0.2853  0.0684 -0.0541
   40POPC   H6R 5361   0.717   6.150   6.871  1.2024  0.8735 -0.9352
   40POPC   H6S 5362   0.645   6.199   7.027 -2.1912  1.2890 -1.3879
   40POPC   C27 5363   0.868   6.235   6.996  0.3641 -0.2686  0.3558
   40POPC   H7R 5364   0.925   6.255   6.903 -0.4981 -0.6104 -0.2613
   40POPC   H7S 5365   0.904   6.135   7.028  1.5012 -0.4090 -1.2395
   40POPC   C28 5366   0.899   6.344   7.096 -0.5999 -0.0488  0.3257
   40POPC   H8R 5367   0.910   6.445   7.051 -2.2083 -0.5601 -1.3449
   40POPC   H8S 5368   0.998   6.332   7.144  0.0028 -1.2630 -1.1235
   40POPC   C29 5369   0.797   6.362   7.203 -0.8509 -0.0961  0.5220
   40POPC   H91 5370   0.721   6.431   7.164  0.2607  1.3798  0.8549
   40POPC  C210 5371   0.797   6.297   7.315  0.1366 -0.0666 -0.4906
   40POPC  H101 5372   0.708   6.319   7.376  0.9566 -1.2815  1.2225
   40POPC  C211 5373   0.901   6.203   7.366 -0.1910  0.1192 -0.6322
   40POPC  H11R 5374   0.980   6.166   7.296  1.0670 -1.1248  1.3501
   40POPC  H11S 5375   0.841   6.111   7.384 -1.2594  1.0397  0.5872
   40POPC  C212 5376   0.952   6.256   7.502 -0.5352  0.3320  0.3277
   40POPC  H12R 5377   0.948   6.175   7.578 -0.0992 -2.3924 -2.3757
   40POPC  H12S 5378   0.893   6.341   7.542 -1.1739 -0.7071  1.7001
   40POPC  C213 5379   1.101   6.288   7.500  0.2553  0.9035 -0.4781
   40POPC  H13R 5380   1.160   6.205   7.454  2.3886  1.6697  0.6957
   40POPC  H13S 5381   1.134   6.283   7.607 -1.8671  0.1428  0.1799
   40POPC  C214 5382   1.150   6.418   7.431 -0.4137 -0.4751  0.4466
   40POPC  H14R 5383   1.135   6.422   7.321  1.7907  0.1104  0.1315
   40POPC  H14S 5384   1.259   6.424   7.454 -0.0486 -1.8700 -0.8180
   40POPC  C215 5385   1.075   6.546   7.469  0.2207 -0.8040 -0.9085
   40POPC  H15R 5386   1.063   6.543   7.580  0.4343 -0.6526 -0.8814
   40POPC  H15S 5387   0.969   6.545   7.437  0.1368  0.0488 -0.6729
   40POPC  C216 5388   1.154   6.674   7.415  0.3819  0.6091 -0.3667
   40POPC  H16R 5389   1.146   6.675   7.304  0.8700 -0.7934 -0.4298
   40POPC  H16S 5390   1.260   6.667   7.445  0.0157 -0.0371  0.8453
   40POPC  C217 5391   1.101   6.810   7.454  0.4691  0.3771 -0.1116
   40POPC  H17R 5392   1.179   6.882   7.421  1.2690 -1.0852 -1.5001
   40POPC  H17S 5393   1.088   6.816   7.564  2.6830 -0.2719  0.2283
   40POPC  C218 5394   0.970   6.839   7.389  0.5489 -0.5654 -0.4278
   40POPC  H18R 5395   0.947   6.947   7.377  0.8140 -0.7251 -3.1329
   40POPC  H18S 5396   0.891   6.788   7.447 -0.0472 -0.2661 -0.9712
   40POPC  H18T 5397   0.980   6.797   7.286 -0.1143 -0.9241 -0.3525
   40POPC   C33 5398   0.035   6.573   7.133  0.3670  0.3143 -0.2860
   40POPC   H3X 5399   0.069   6.677   7.155  0.7188  0.0484  0.4355
   40POPC   H3Y 5400   0.127   6.512   7.124  0.6166  0.7424 -0.6920
   40POPC   C34 5401  -0.049   6.513   7.253  0.0772 -0.2752 -0.6304
   40POPC   H4X 5402  -0.081   6.409   7.232 -1.4425  0.4788 -2.2753
   40POPC   H4Y 5403  -0.138   6.574   7.279  1.0158  0.4608  1.0654
   40POPC   C35 5404   0.033   6.496   7.383 -0.4898 -0.4007 -1.0988
   40POPC   H5X 5405   0.121   6.427   7.378  0.8750  1.2274 -0.5065
   40POPC   H5Y 5406  -0.033   6.459   7.464  2.1917 -0.8716  1.0382
   40POPC   C36 5407   0.101   6.629   7.434  0.3240 -0.3374 -0.7390
   40POPC   H6X 5408   0.032   6.715   7.423  1.5134  1.3006  3.0801
   40POPC   H6Y 5409   0.190   6.661   7.376  1.8027  1.0917  2.1393
   40POPC   C37 5410   0.149   6.612   7.587 -0.0144  0.0023  0.6827
   40POPC   H7X 5411   0.227   6.535   7.601  0.7856  0.7141  0.2182
   40POPC   H7Y 5412   0.072   6.569   7.655  0.8128 -1.4054  0.7592
   40POPC   C38 5413   0.187   6.749   7.636  0.3868 -0.4408  0.1975
   40POPC   H8X 5414   0.100   6.818   7.640  0.8288  0.0862  1.5726
   40POPC   H8Y 5415   0.255   6.812   7.576 -0.4577  2.5016  2.1072
   40POPC   C39 5416   0.245   6.742   7.776  0.5151  0.4112  0.2454
   40POPC   H9X 5417   0.338   6.682   7.777 -0.1655 -0.6553  1.6334
   40POPC   H9Y 5418   0.179   6.699   7.854 -0.0704 -0.5102 -0.7315
   40POPC  C310 5419   0.278   6.883   7.823  0.5252 -0.4806 -0.3174
   40POPC  H10X 5420   0.192   6.953   7.821  0.9886  0.1631  0.8762
   40POPC  H10Y 5421   0.351   6.936   7.757  2.2982 -0.8619  1.2694
   40POPC  C311 5422   0.324   6.904   7.969 -0.4866  0.0817  0.9440
   40POPC  H11X 5423   0.235   6.922   8.033 -0.3135  1.4138  0.8518
   40POPC  H11Y 5424   0.379   7.000   7.979  0.8114 -0.1503 -2.6681
   40POPC  C312 5425   0.395   6.785   8.040 -0.8515 -0.3584  0.5830
   40POPC  H12X 5426   0.468   6.732   7.974  2.6175  0.6539  3.2872
   40POPC  H12Y 5427   0.322   6.706   8.067  0.6167 -0.9547  3.1101
   40POPC  C313 5428   0.470   6.833   8.164 -0.2881 -0.6672 -0.2113
   40POPC  H13X 5429   0.557   6.894   8.131 -2.6996  3.4501  0.4140
   40POPC  H13Y 5430   0.510   6.741   8.212  0.9127  0.0715  0.2497
   40POPC  C314 5431   0.377   6.901   8.271  0.8359  0.1925  0.3572
   40POPC  H14X 5432   0.307   6.819   8.298 -0.4014  1.4210  0.9846
   40POPC  H14Y 5433   0.319   6.987   8.231  0.5564  0.0208  0.3900
   40POPC  C315 5434   0.462   6.952   8.398  0.1395  0.0414  0.3065
   40POPC  H15X 5435   0.540   7.024   8.368  0.8737 -0.6181  0.5995
   40POPC  H15Y 5436   0.521   6.868   8.439  0.3080  1.0128  2.1549
   40POPC  C316 5437   0.371   7.022   8.501 -0.2550  0.3300  0.2570
   40POPC  H16X 5438   0.289   6.957   8.538 -0.2701 -0.5898 -1.2764
   40POPC  H16Y 5439   0.310   7.096   8.446  0.8645  0.2985 -1.0734
   40POPC  H16Z 5440   0.422   7.069   8.587 -1.6658  2.9291 -0.2170
   41CHL1    C3 5441   1.493   3.631  10.018  0.0498 -0.3977 -0.1722
   41CHL1    H3 5442   1.594   3.676  10.025  0.2680 -0.5352 -1.8818
   41CHL1    O3 5443   1.474   3.533  10.121  0.0595  0.1786 -0.0970
   41CHL1   H3' 5444   1.495   3.575  10.204  1.5219 -0.6817  0.0075
   41CHL1    C4 5445   1.389   3.747  10.038 -0.4162  0.4844  0.1205
   41CHL1   H4A 5446   1.288   3.699  10.031 -0.1752 -0.2304  1.1609
   41CHL1   H4B 5447   1.415   3.798  10.133 -0.1210  2.3015 -0.8914
   41CHL1    C5 5448   1.391   3.851   9.929  0.2566 -0.3492  0.6991
   41CHL1    C6 5449   1.391   3.985   9.952  0.2673  0.3833  1.2268
   41CHL1    H6 5450   1.387   4.013  10.058  0.0115 -0.2665  1.3964
   41CHL1    C7 5451   1.392   4.090   9.850  0.0820  0.3330  0.9325
   41CHL1   H7A 5452   1.346   4.184   9.888  1.2262  0.8291  1.1375
   41CHL1   H7B 5453   1.496   4.124   9.828 -0.7222  1.7670 -1.0003
   41CHL1    C8 5454   1.327   4.048   9.718 -0.3307 -0.1860 -0.4366
   41CHL1    H8 5455   1.218   4.029   9.723  0.0494 -2.4423  0.6099
   41CHL1   C14 5456   1.357   4.148   9.611 -0.1144 -0.2004  0.0856
   41CHL1   H14 5457   1.465   4.172   9.606 -0.4172  2.2295  2.6590
   41CHL1   C15 5458   1.290   4.294   9.642  0.2038  0.5265  0.0281
   41CHL1  H15A 5459   1.191   4.260   9.680  0.7209  0.2337  1.1566
   41CHL1  H15B 5460   1.340   4.351   9.724  0.3625 -2.1048  1.8941
   41CHL1   C16 5461   1.283   4.362   9.502  0.0700 -0.9627 -0.2721
   41CHL1  H16A 5462   1.179   4.383   9.468  0.7515 -0.7718 -2.3757
   41CHL1  H16B 5463   1.343   4.456   9.495 -0.9044 -0.3564 -0.7242
   41CHL1   C17 5464   1.332   4.252   9.401  0.0478  0.1297  0.2907
   41CHL1   H17 5465   1.442   4.268   9.398 -0.1895  1.9569  0.1227
   41CHL1   C13 5466   1.316   4.115   9.471 -0.6004 -1.0813 -0.3593
   41CHL1   C18 5467   1.167   4.071   9.470 -0.1299  0.5206  0.6529
   41CHL1  H18A 5468   1.102   4.145   9.519 -0.8850  1.0308 -1.0577
   41CHL1  H18B 5469   1.146   4.051   9.363  3.2394  1.2732 -0.2731
   41CHL1  H18C 5470   1.155   3.974   9.524 -0.3391 -0.7734 -1.5725
   41CHL1   C12 5471   1.413   4.004   9.435 -0.3305  0.9663  0.2420
   41CHL1  H12A 5472   1.411   3.974   9.328 -1.8721 -1.7686  0.9526
   41CHL1  H12B 5473   1.514   4.048   9.449 -0.2608  1.0171 -0.3946
   41CHL1   C11 5474   1.400   3.877   9.525 -0.1599 -0.7517 -0.1808
   41CHL1  H11A 5475   1.301   3.831   9.504 -0.1330 -0.0718 -1.9876
   41CHL1  H11B 5476   1.482   3.804   9.509  0.4983  0.1411 -0.9722
   41CHL1    C9 5477   1.403   3.915   9.678  0.0820  0.1909  0.0130
   41CHL1    H9 5478   1.509   3.948   9.686  0.1468  1.0989 -3.2586
   41CHL1   C10 5479   1.386   3.800   9.785  0.9473 -0.0310 -0.2972
   41CHL1   C19 5480   1.239   3.742   9.770 -0.2638 -0.1993  0.3666
   41CHL1  H19A 5481   1.234   3.692   9.671  1.3243  2.7032 -1.3357
   41CHL1  H19B 5482   1.214   3.658   9.838 -0.2873 -1.0713 -0.6811
   41CHL1  H19C 5483   1.151   3.809   9.771 -0.4617 -0.3894  3.3638
   41CHL1    C1 5484   1.487   3.681   9.768  0.3635  0.0282  0.5803
   41CHL1   H1A 5485   1.469   3.636   9.669  0.9336  1.3449 -0.1529
   41CHL1   H1B 5486   1.588   3.726   9.755 -0.6585  2.3706  0.2434
   41CHL1    C2 5487   1.476   3.575   9.875 -0.2591 -0.3958  0.1742
   41CHL1   H2A 5488   1.566   3.512   9.861  1.0153  1.3168  0.2834
   41CHL1   H2B 5489   1.377   3.526   9.882 -1.5183  2.1718  2.0102
   41CHL1   C20 5490   1.279   4.259   9.253 -1.0397 -0.4651 -0.0127
   41CHL1   H20 5491   1.288   4.160   9.203 -0.9280  0.8427 -2.7525
   41CHL1   C21 5492   1.376   4.348   9.171 -0.0224  0.0072 -0.3382
   41CHL1  H21A 5493   1.358   4.353   9.061  0.9169  1.7770 -0.4500
   41CHL1  H21B 5494   1.482   4.319   9.188  0.4817  1.3873 -1.0013
   41CHL1  H21C 5495   1.364   4.450   9.213  0.8168 -0.7993  2.0409
   41CHL1   C22 5496   1.139   4.318   9.230  0.0503 -0.5763 -0.4091
   41CHL1  H22A 5497   1.069   4.266   9.299 -1.1823  0.6246 -0.7226
   41CHL1  H22B 5498   1.133   4.421   9.273  1.2427 -0.6599  0.0185
   41CHL1   C23 5499   1.104   4.284   9.081  0.0898 -0.5325  0.3037
   41CHL1  H23A 5500   1.168   4.345   9.014  0.0051  1.4962  1.9674
   41CHL1  H23B 5501   1.128   4.178   9.056  2.0707 -0.1787  0.4938
   41CHL1   C24 5502   0.951   4.303   9.049 -0.9164  0.4884 -0.7579
   41CHL1  H24A 5503   0.905   4.260   9.140  1.5977  0.8018  0.7594
   41CHL1  H24B 5504   0.931   4.413   9.044  0.2713  0.7697  0.2905
   41CHL1   C25 5505   0.893   4.231   8.925  0.7379  0.1649  0.3540
   41CHL1   H25 5506   0.944   4.132   8.918  1.5794  0.4717  1.7348
   41CHL1   C26 5507   0.744   4.210   8.937 -0.5074 -0.1336  0.2071
   41CHL1  H26A 5508   0.720   4.132   9.012  1.8934  1.3959  2.7616
   41CHL1  H26B 5509   0.699   4.304   8.976  0.3738 -0.1921  1.3831
   41CHL1  H26C 5510   0.713   4.181   8.834  1.2341 -2.6655  0.3261
   41CHL1   C27 5511   0.932   4.305   8.791  0.4991  0.5088 -0.0007
   41CHL1  H27A 5512   0.867   4.395   8.780 -1.1995 -0.6478  0.1117
   41CHL1  H27B 5513   1.040   4.330   8.787  1.6208 -3.4567  1.3430
   41CHL1  H27C 5514   0.909   4.248   8.699  1.5123  0.9476 -0.5384
   42CHL1    C3 5515   4.702   3.372   9.864  0.2159  0.4976  0.2134
   42CHL1    H3 5516   4.808   3.358   9.834 -0.5136 -1.2953 -1.7609
   42CHL1    O3 5517   4.685   3.463   9.966  0.7127  0.6612  0.0074
   42CHL1   H3' 5518   4.589   3.463   9.975  0.8438 -0.4005  1.7464
   42CHL1    C4 5519   4.619   3.418   9.737  0.3940  0.4843 -0.2923
   42CHL1   H4A 5520   4.514   3.440   9.767  0.5936  0.8977  0.1224
   42CHL1   H4B 5521   4.667   3.509   9.696 -1.2715  3.2714  3.3620
   42CHL1    C5 5522   4.612   3.321   9.624 -0.2199 -0.2106 -0.3106
   42CHL1    C6 5523   4.661   3.354   9.500  0.6155  0.1060  0.7231
   42CHL1    H6 5524   4.711   3.451   9.487  1.0535 -0.1318  0.5858
   42CHL1    C7 5525   4.635   3.266   9.376 -0.5587  0.1961  1.0167
   42CHL1   H7A 5526   4.608   3.326   9.287 -1.8235  0.2825  1.4478
   42CHL1   H7B 5527   4.731   3.215   9.353 -1.0612  0.1281 -1.1871
   42CHL1    C8 5528   4.529   3.150   9.400  0.1551 -0.7993 -0.2852
   42CHL1    H8 5529   4.431   3.201   9.393 -0.4568 -1.7508  1.0158
   42CHL1   C14 5530   4.533   3.044   9.298  1.2896 -0.0731  0.1098
   42CHL1   H14 5531   4.634   2.998   9.302  1.8755  1.2083  0.7957
   42CHL1   C15 5532   4.509   3.091   9.154  0.3836 -0.2738 -0.0582
   42CHL1  H15A 5533   4.426   3.165   9.162  0.2703 -0.6457  5.6428
   42CHL1  H15B 5534   4.603   3.134   9.116  1.4809 -0.7743  1.9618
   42CHL1   C16 5535   4.465   2.963   9.080 -1.0353 -0.3069  0.0927
   42CHL1  H16A 5536   4.369   2.991   9.030 -0.5647  1.5508  0.1712
   42CHL1  H16B 5537   4.522   2.933   8.989 -1.3222  0.0317 -0.2035
   42CHL1   C17 5538   4.451   2.844   9.185 -0.0497 -0.1864 -0.1445
   42CHL1   H17 5539   4.546   2.789   9.199 -0.1006 -0.1230  0.4676
   42CHL1   C13 5540   4.439   2.929   9.317 -0.1794  0.0667  0.2879
   42CHL1   C18 5541   4.294   2.976   9.325  0.5251 -0.1994 -0.2802
   42CHL1  H18A 5542   4.292   3.055   9.404  4.6637 -0.2431  0.0959
   42CHL1  H18B 5543   4.258   3.022   9.231 -2.2207 -2.2976 -0.3963
   42CHL1  H18C 5544   4.222   2.898   9.356 -0.3399 -1.0900 -4.0425
   42CHL1   C12 5545   4.492   2.854   9.443  0.1477  0.0579  0.3998
   42CHL1  H12A 5546   4.421   2.773   9.468 -1.3559  0.6011 -1.8325
   42CHL1  H12B 5547   4.594   2.811   9.440 -0.0318 -0.5976  2.5156
   42CHL1   C11 5548   4.481   2.952   9.562  0.7499  0.3165 -0.5310
   42CHL1  H11A 5549   4.375   2.973   9.585  1.1454  1.0817  0.6659
   42CHL1  H11B 5550   4.532   2.904   9.648  0.4770  2.7450  1.0806
   42CHL1    C9 5551   4.553   3.087   9.540  0.1382 -0.0708 -0.3230
   42CHL1    H9 5552   4.661   3.062   9.543  0.1125 -0.1974 -0.4438
   42CHL1   C10 5553   4.543   3.188   9.655 -0.8107 -0.1427 -0.2908
   42CHL1   C19 5554   4.404   3.214   9.696  0.1931  0.8270  0.4008
   42CHL1  H19A 5555   4.353   3.130   9.747 -0.7141  0.8380 -0.4642
   42CHL1  H19B 5556   4.385   3.303   9.760  0.6227  0.2101  1.4157
   42CHL1  H19C 5557   4.342   3.227   9.605  1.2310  1.5146 -0.2279
   42CHL1    C1 5558   4.627   3.134   9.776  0.6058 -0.2005 -0.4673
   42CHL1   H1A 5559   4.569   3.044   9.805  1.8322 -0.7499  0.3895
   42CHL1   H1B 5560   4.728   3.093   9.753  0.5824  0.4174 -1.7457
   42CHL1    C2 5561   4.638   3.231   9.899  0.1709  0.4436  0.1633
   42CHL1   H2A 5562   4.694   3.188   9.985  0.1908  0.9882  0.4291
   42CHL1   H2B 5563   4.540   3.244   9.950  1.8554  1.7850  3.3682
   42CHL1   C20 5564   4.340   2.737   9.145 -0.6661  0.4189 -0.1578
   42CHL1   H20 5565   4.239   2.782   9.138 -0.2345  1.1723 -2.1341
   42CHL1   C21 5566   4.344   2.612   9.236 -0.0534 -0.1400  0.3522
   42CHL1  H21A 5567   4.451   2.582   9.232  0.9492  2.7799  2.3451
   42CHL1  H21B 5568   4.274   2.528   9.218  0.1600 -0.4909  1.1294
   42CHL1  H21C 5569   4.320   2.646   9.339  0.6437 -0.6147  0.6817
   42CHL1   C22 5570   4.355   2.692   8.997 -0.4241  0.2134  0.4242
   42CHL1  H22A 5571   4.340   2.779   8.930 -2.1295 -0.2575  0.1438
   42CHL1  H22B 5572   4.456   2.651   8.978 -0.3163  0.3372  0.7312
   42CHL1   C23 5573   4.248   2.591   8.959  0.0984 -0.4519 -0.1008
   42CHL1  H23A 5574   4.254   2.494   9.013  2.1790  0.3681  1.2854
   42CHL1  H23B 5575   4.150   2.637   8.984  0.2693 -0.4409  0.5529
   42CHL1   C24 5576   4.255   2.546   8.807 -0.5547 -0.0260 -0.6805
   42CHL1  H24A 5577   4.253   2.648   8.763  1.4767  1.6944  2.8087
   42CHL1  H24B 5578   4.357   2.510   8.782 -0.2371  0.1764  0.2788
   42CHL1   C25 5579   4.142   2.455   8.757  0.0751  0.3113 -0.6783
   42CHL1   H25 5580   4.137   2.373   8.833  0.9281  0.3257 -0.5937
   42CHL1   C26 5581   4.011   2.537   8.761  0.1205 -0.0724 -0.0251
   42CHL1  H26A 5582   3.982   2.564   8.864  1.0934  2.8019 -0.4162
   42CHL1  H26B 5583   4.010   2.633   8.706 -0.8876  1.1770  2.0540
   42CHL1  H26C 5584   3.935   2.463   8.727  0.0147  1.0074 -2.3492
   42CHL1   C27 5585   4.169   2.387   8.623  0.3456  0.1173 -0.1335
   42CHL1  H27A 5586   4.105   2.298   8.603  0.9794 -0.7498  1.4860
   42CHL1  H27B 5587   4.154   2.459   8.539 -0.2075  0.9126  0.6331
   42CHL1  H27C 5588   4.276   2.355   8.620  0.1228 -0.6666 -0.1150
   43CHL1    C3 5589   6.365   3.292   9.657  0.6611  0.5709 -0.1801
   43CHL1    H3 5590   6.468   3.253   9.666  0.0709 -0.7257  1.3432
   43CHL1    O3 5591   6.308   3.318   9.788  0.1494  0.7211 -0.5253
   43CHL1   H3' 5592   6.213   3.309   9.777  0.1408 -0.2043  0.2154
   43CHL1    C4 5593   6.358   3.421   9.577 -0.3632  0.1012  0.3817
   43CHL1   H4A 5594   6.266   3.475   9.607 -0.4842 -0.0040  0.2039
   43CHL1   H4B 5595   6.444   3.484   9.608 -2.0319  3.6227 -1.5844
   43CHL1    C5 5596   6.369   3.416   9.426  0.1621 -0.3143  0.4919
   43CHL1    C6 5597   6.470   3.483   9.358 -0.4495 -0.2107  0.1611
   43CHL1    H6 5598   6.538   3.549   9.414  3.4985 -2.6240 -1.3560
   43CHL1    C7 5599   6.486   3.481   9.210  0.1352  0.0022 -0.3776
   43CHL1   H7A 5600   6.494   3.586   9.174  2.3760 -0.6892 -2.1358
   43CHL1   H7B 5601   6.585   3.432   9.192  0.9272  1.3721  0.0787
   43CHL1    C8 5602   6.372   3.401   9.145  0.2073 -0.4967 -0.7487
   43CHL1    H8 5603   6.302   3.487   9.140  2.9583  1.9307 -0.4390
   43CHL1   C14 5604   6.412   3.360   9.001  0.2837  0.3469  0.7786
   43CHL1   H14 5605   6.484   3.275   9.007 -1.5212 -1.3821 -0.5884
   43CHL1   C15 5606   6.487   3.465   8.910 -0.2137  0.3788 -0.2383
   43CHL1  H15A 5607   6.447   3.568   8.922  0.1274  0.5495 -0.5542
   43CHL1  H15B 5608   6.593   3.455   8.939 -0.7288 -1.7922  1.1572
   43CHL1   C16 5609   6.471   3.400   8.771  0.1007 -0.1346  0.2929
   43CHL1  H16A 5610   6.431   3.474   8.699 -1.3439  0.6602  1.8358
   43CHL1  H16B 5611   6.563   3.360   8.723 -1.0684 -2.8178  0.1271
   43CHL1   C17 5612   6.362   3.285   8.780 -0.1178 -0.6356 -0.6972
   43CHL1   H17 5613   6.420   3.193   8.802  2.3218  1.4230  2.1923
   43CHL1   C13 5614   6.292   3.308   8.917  0.8271  0.4853 -0.4141
   43CHL1   C18 5615   6.167   3.407   8.900 -0.1134 -0.3503  0.2645
   43CHL1  H18A 5616   6.184   3.492   8.831  0.2158  0.5656  1.4440
   43CHL1  H18B 5617   6.089   3.339   8.860 -0.5881 -0.4100  1.2569
   43CHL1  H18C 5618   6.131   3.449   8.996 -0.2942 -2.9578  1.4305
   43CHL1   C12 5619   6.255   3.177   8.998  0.1524  0.5467  0.0482
   43CHL1  H12A 5620   6.173   3.136   8.934  1.5362  1.0423 -2.1648
   43CHL1  H12B 5621   6.339   3.105   8.993 -0.2160  0.0803  0.5090
   43CHL1   C11 5622   6.209   3.205   9.141 -0.6454 -0.0092 -0.5084
   43CHL1  H11A 5623   6.110   3.255   9.134  0.0042  1.4042  0.1655
   43CHL1  H11B 5624   6.199   3.108   9.194  2.6290  0.3325  0.9620
   43CHL1    C9 5625   6.322   3.281   9.222 -0.3183 -1.1314  0.7362
   43CHL1    H9 5626   6.404   3.206   9.228 -0.9159 -1.8262  0.3528
   43CHL1   C10 5627   6.281   3.311   9.363  0.6462 -0.5748 -0.3539
   43CHL1   C19 5628   6.142   3.381   9.351 -0.3691  0.0099 -0.5158
   43CHL1  H19A 5629   6.064   3.305   9.330 -1.2645  0.6303  0.4690
   43CHL1  H19B 5630   6.108   3.416   9.451  0.0859 -2.0386  0.3966
   43CHL1  H19C 5631   6.146   3.462   9.275  2.5730  0.5516  0.1247
   43CHL1    C1 5632   6.288   3.177   9.450  0.1019  0.4218 -0.1952
   43CHL1   H1A 5633   6.223   3.095   9.412  1.2416 -0.1174 -1.0446
   43CHL1   H1B 5634   6.390   3.136   9.433 -0.5229 -2.0762  1.5582
   43CHL1    C2 5635   6.273   3.183   9.603  0.1250 -0.6703  0.3517
   43CHL1   H2A 5636   6.280   3.084   9.652 -1.4727 -1.0077 -0.0468
   43CHL1   H2B 5637   6.167   3.215   9.613 -0.3506 -0.3279 -3.8819
   43CHL1   C20 5638   6.278   3.267   8.653 -0.1542  0.2826  0.4598
   43CHL1   H20 5639   6.220   3.360   8.633  1.2446  1.0181 -0.3379
   43CHL1   C21 5640   6.173   3.153   8.660 -0.0998  0.3120 -0.5446
   43CHL1  H21A 5641   6.099   3.183   8.737 -0.1469 -1.0509 -0.0202
   43CHL1  H21B 5642   6.208   3.052   8.690  0.3506  1.2586  2.3757
   43CHL1  H21C 5643   6.111   3.149   8.568  0.0559  0.7401 -0.6703
   43CHL1   C22 5644   6.364   3.229   8.522  0.0367  0.0900  0.0309
   43CHL1  H22A 5645   6.472   3.250   8.535  0.4940  1.9694 -4.6660
   43CHL1  H22B 5646   6.348   3.123   8.491 -0.3651  0.1286  0.1005
   43CHL1   C23 5647   6.325   3.324   8.410  0.0835  0.3218  0.6884
   43CHL1  H23A 5648   6.214   3.332   8.402  0.1869  1.6696  0.3441
   43CHL1  H23B 5649   6.359   3.428   8.428 -0.2049  0.3156  1.3134
   43CHL1   C24 5650   6.385   3.280   8.270 -0.0748 -0.2969  0.1301
   43CHL1  H24A 5651   6.492   3.307   8.258 -0.4270  0.4347 -1.6457
   43CHL1  H24B 5652   6.383   3.171   8.252  0.2246 -0.3101  0.1783
   43CHL1   C25 5653   6.326   3.347   8.145 -0.1732 -0.5499 -0.2776
   43CHL1   H25 5654   6.378   3.309   8.054 -1.0481 -2.1145 -0.1631
   43CHL1   C26 5655   6.178   3.308   8.128  0.1577  0.1209  0.0443
   43CHL1  H26A 5656   6.155   3.199   8.122 -2.2283  0.4534  1.9812
   43CHL1  H26B 5657   6.110   3.355   8.201 -0.9465  1.2792 -1.6611
   43CHL1  H26C 5658   6.155   3.341   8.024 -1.9117 -0.1211  0.3908
   43CHL1   C27 5659   6.330   3.499   8.139 -0.2506 -0.0805 -0.0943
   43CHL1  H27A 5660   6.301   3.539   8.040  1.9707  0.3185 -0.6367
   43CHL1  H27B 5661   6.247   3.537   8.203 -0.3381  0.3155 -0.4364
   43CHL1  H27C 5662   6.427   3.551   8.159 -0.0194 -0.7175  0.4675
   44CHL1    C3 5663   0.206   3.920  10.046  0.2879  0.6975 -0.0190
   44CHL1    H3 5664   0.096   3.933  10.043  0.2451  1.0243  1.9322
   44CHL1    O3 5665   0.242   3.942  10.180 -0.3030 -0.0268 -0.0499
   44CHL1   H3' 5666   0.206   3.864  10.222  0.3897  0.6411  1.9054
   44CHL1    C4 5667   0.248   3.775  10.010 -0.4715 -0.4425  0.6281
   44CHL1   H4A 5668   0.359   3.776  10.024 -0.4515 -0.1187  0.4356
   44CHL1   H4B 5669   0.201   3.709  10.086 -0.7210 -0.8050  0.1603
   44CHL1    C5 5670   0.201   3.746   9.871  0.2041 -0.2331 -0.3292
   44CHL1    C6 5671   0.126   3.635   9.856  0.0718 -0.2627 -0.2626
   44CHL1    H6 5672   0.118   3.563   9.938 -0.7823  2.8514  2.6143
   44CHL1    C7 5673   0.084   3.590   9.726  0.3021 -0.1850 -0.0908
   44CHL1   H7A 5674   0.113   3.483   9.715  1.2852  0.3185 -3.5541
   44CHL1   H7B 5675  -0.027   3.601   9.721  0.3601  0.6379  0.4013
   44CHL1    C8 5676   0.152   3.667   9.605  1.0125 -0.2410  0.6389
   44CHL1    H8 5677   0.258   3.641   9.584  0.4062 -0.2947 -2.9865
   44CHL1   C14 5678   0.078   3.647   9.475  0.4547  0.1946 -0.4313
   44CHL1   H14 5679  -0.029   3.679   9.482 -0.0270 -1.3163 -0.4896
   44CHL1   C15 5680   0.082   3.500   9.430 -0.4081 -0.2749 -0.0108
   44CHL1  H15A 5681   0.180   3.450   9.445 -0.4618 -0.5770 -0.6457
   44CHL1  H15B 5682   0.004   3.431   9.470  0.1338 -0.6233  0.4667
   44CHL1   C16 5683   0.045   3.516   9.280  0.4707 -0.4404  0.0687
   44CHL1  H16A 5684   0.125   3.477   9.214 -0.9092 -0.2503 -1.8068
   44CHL1  H16B 5685  -0.052   3.466   9.259 -0.8609  1.5127  1.1517
   44CHL1   C17 5686   0.040   3.667   9.240 -0.4098 -0.6743 -0.3016
   44CHL1   H17 5687  -0.062   3.708   9.256 -0.3914  0.0383 -1.8144
   44CHL1   C13 5688   0.135   3.722   9.349 -0.2221  0.0487  0.6389
   44CHL1   C18 5689   0.286   3.685   9.319  0.2022 -0.2521 -0.0814
   44CHL1  H18A 5690   0.303   3.587   9.270 -1.7961 -0.2925 -0.7876
   44CHL1  H18B 5691   0.323   3.761   9.247  2.2776 -1.1995 -0.0763
   44CHL1  H18C 5692   0.348   3.690   9.411 -0.4099  1.9734  0.2801
   44CHL1   C12 5693   0.118   3.871   9.379 -0.1007  0.1714 -0.0429
   44CHL1  H12A 5694   0.160   3.933   9.297 -0.9860  0.5803 -0.1882
   44CHL1  H12B 5695   0.018   3.916   9.393  1.1800  2.7986  1.2568
   44CHL1   C11 5696   0.196   3.903   9.515 -0.1992 -0.2298 -0.4398
   44CHL1  H11A 5697   0.300   3.888   9.478 -0.1700 -1.0510 -0.0301
   44CHL1  H11B 5698   0.190   4.013   9.527  0.1192 -0.1128 -1.2498
   44CHL1    C9 5699   0.156   3.818   9.634 -0.1883 -0.4137 -0.2996
   44CHL1    H9 5700   0.057   3.853   9.668  0.3321  0.8073  0.0300
   44CHL1   C10 5701   0.241   3.851   9.765 -0.2114  0.2971  0.2540
   44CHL1   C19 5702   0.394   3.842   9.732 -0.0354  0.0170 -0.1622
   44CHL1  H19A 5703   0.432   3.740   9.714  1.3200  0.0955  1.8922
   44CHL1  H19B 5704   0.422   3.915   9.653 -0.1522  3.5580  2.7646
   44CHL1  H19C 5705   0.445   3.875   9.825 -1.5548  1.7940  0.1028
   44CHL1    C1 5706   0.205   3.995   9.815 -0.5317  0.3685 -0.8264
   44CHL1   H1A 5707   0.240   4.075   9.746 -0.7656 -0.0761 -1.4673
   44CHL1   H1B 5708   0.095   4.012   9.818 -0.1537  3.4132 -1.0591
   44CHL1    C2 5709   0.260   4.035   9.958 -0.1633  0.0062  0.4779
   44CHL1   H2A 5710   0.218   4.130   9.995 -0.9525 -1.1281  2.7013
   44CHL1   H2B 5711   0.371   4.046   9.958  0.0085 -1.4016  1.6091
   44CHL1   C20 5712   0.074   3.684   9.090 -0.6364 -0.2852  0.2347
   44CHL1   H20 5713   0.182   3.657   9.084 -0.3211  1.0102 -0.4333
   44CHL1   C21 5714   0.062   3.831   9.049 -0.3141  0.7718  0.3134
   44CHL1  H21A 5715   0.146   3.892   9.088 -2.1852  2.0968  2.4868
   44CHL1  H21B 5716  -0.027   3.878   9.095 -0.5170  0.5446  0.1515
   44CHL1  H21C 5717   0.068   3.834   8.938 -0.4121 -2.3756  0.1281
   44CHL1   C22 5718   0.000   3.594   8.982  0.9212  0.5138  0.0647
   44CHL1  H22A 5719  -0.039   3.502   9.030 -0.6298  1.2104  0.1942
   44CHL1  H22B 5720  -0.084   3.657   8.946  1.4381  1.6505  0.7624
   44CHL1   C23 5721   0.089   3.553   8.868 -0.2756  0.4418  0.3752
   44CHL1  H23A 5722   0.135   3.645   8.826 -0.3784 -0.2113 -1.2511
   44CHL1  H23B 5723   0.173   3.489   8.901 -0.4229 -0.7471 -1.4290
   44CHL1   C24 5724   0.015   3.464   8.774 -0.2026  0.0712 -1.2801
   44CHL1  H24A 5725  -0.017   3.384   8.845  2.2700  0.3729  0.2957
   44CHL1  H24B 5726  -0.072   3.518   8.730 -0.8692 -0.8768 -1.1510
   44CHL1   C25 5727   0.090   3.398   8.659  0.5767  0.5313  0.8951
   44CHL1   H25 5728   0.150   3.323   8.715  0.1303  0.0738  0.7674
   44CHL1   C26 5729  -0.004   3.312   8.572 -0.4952  0.0256  0.0735
   44CHL1  H26A 5730  -0.091   3.372   8.537  1.0521  0.9717 -2.3925
   44CHL1  H26B 5731   0.037   3.267   8.480 -0.3486 -2.8221  1.4291
   44CHL1  H26C 5732  -0.046   3.228   8.632  0.2424  1.5076  2.8557
   44CHL1   C27 5733   0.178   3.495   8.590 -0.0537  0.1803 -0.0284
   44CHL1  H27A 5734   0.113   3.574   8.545  0.5021  0.4422 -0.3831
   44CHL1  H27B 5735   0.250   3.525   8.669  1.0796 -0.7731 -0.6598
   44CHL1  H27C 5736   0.235   3.444   8.509 -0.0568  0.8436 -0.4621
   45CHL1    C3 5737   3.280   4.997  10.140  0.9632  0.1077  0.4822
   45CHL1    H3 5738   3.169   4.999  10.146  0.9586 -2.2047  3.0993
   45CHL1    O3 5739   3.332   5.014  10.271  0.3816  0.4783  0.2810
   45CHL1   H3' 5740   3.426   5.028  10.261  0.3090  0.1472 -1.2179
   45CHL1    C4 5741   3.310   4.851  10.095 -0.1064  0.1888 -0.6105
   45CHL1   H4A 5742   3.417   4.822  10.102 -0.9834 -3.3138  0.6387
   45CHL1   H4B 5743   3.267   4.772  10.161  0.5064  0.1778 -0.2217
   45CHL1    C5 5744   3.264   4.820   9.954  0.1688  0.2723  0.3435
   45CHL1    C6 5745   3.196   4.704   9.925  0.1439 -0.7275  0.4165
   45CHL1    H6 5746   3.171   4.641  10.012  1.9880  0.7583  2.1125
   45CHL1    C7 5747   3.156   4.667   9.787  0.0170  0.7253  0.1985
   45CHL1   H7A 5748   3.170   4.558   9.772  2.2470  0.9292  0.5224
   45CHL1   H7B 5749   3.047   4.683   9.774 -0.1699 -1.0432 -0.7183
   45CHL1    C8 5750   3.213   4.752   9.669  0.0986 -0.2848  0.2392
   45CHL1    H8 5751   3.126   4.772   9.604 -1.0785 -2.8275  0.9241
   45CHL1   C14 5752   3.316   4.693   9.580 -0.4976  0.2100 -0.2859
   45CHL1   H14 5753   3.414   4.672   9.628 -0.3541  0.0303 -0.6525
   45CHL1   C15 5754   3.260   4.553   9.527 -0.3848 -0.5557  1.0402
   45CHL1  H15A 5755   3.309   4.483   9.598  2.5858 -0.6984 -0.9452
   45CHL1  H15B 5756   3.151   4.536   9.530 -0.7725  1.5062  0.5569
   45CHL1   C16 5757   3.317   4.553   9.380  0.4248  0.4711 -0.2813
   45CHL1  H16A 5758   3.421   4.514   9.382 -0.2876 -1.5343  1.1588
   45CHL1  H16B 5759   3.248   4.490   9.320 -1.3191  1.0774  1.0019
   45CHL1   C17 5760   3.307   4.700   9.332 -0.3693 -0.9529 -0.2535
   45CHL1   H17 5761   3.197   4.712   9.329 -0.3876 -0.8287  0.7467
   45CHL1   C13 5762   3.351   4.780   9.453  0.5523 -0.0441  0.4592
   45CHL1   C18 5763   3.504   4.788   9.460  0.5487 -0.2837 -0.6920
   45CHL1  H18A 5764   3.531   4.851   9.547 -0.6524  1.4206 -1.4943
   45CHL1  H18B 5765   3.556   4.690   9.459  0.6328 -0.2393 -0.6149
   45CHL1  H18C 5766   3.540   4.863   9.387 -0.2628  0.9317  0.1152
   45CHL1   C12 5767   3.289   4.927   9.458 -0.1294  0.0392  0.4054
   45CHL1  H12A 5768   3.333   4.991   9.378  0.9512  0.2600  1.1411
   45CHL1  H12B 5769   3.184   4.919   9.425  0.7920 -0.1702 -2.7942
   45CHL1   C11 5770   3.306   4.990   9.594 -0.4197 -0.3769  0.2389
   45CHL1  H11A 5771   3.413   5.017   9.608 -0.7718  0.8603  0.6624
   45CHL1  H11B 5772   3.246   5.083   9.603 -0.5825 -0.3973 -0.6109
   45CHL1    C9 5773   3.254   4.894   9.711 -0.2155 -0.5014  0.1009
   45CHL1    H9 5774   3.154   4.940   9.725 -0.3481 -0.7171 -0.1417
   45CHL1   C10 5775   3.325   4.920   9.849 -0.2925  0.3134 -0.2118
   45CHL1   C19 5776   3.483   4.891   9.838 -0.2784 -1.0221 -0.6767
   45CHL1  H19A 5777   3.533   4.976   9.786 -1.0819  2.2009  3.2869
   45CHL1  H19B 5778   3.532   4.890   9.938  0.6346  0.6864 -1.0686
   45CHL1  H19C 5779   3.502   4.790   9.796 -0.0238 -1.3752  0.2567
   45CHL1    C1 5780   3.294   5.069   9.896 -0.1961 -0.1753  0.1471
   45CHL1   H1A 5781   3.326   5.143   9.820 -1.5782 -0.1879 -0.4845
   45CHL1   H1B 5782   3.184   5.087   9.899 -0.0015  0.8870  2.1591
   45CHL1    C2 5783   3.339   5.101  10.043  0.0387 -0.6022  0.5111
   45CHL1   H2A 5784   3.293   5.202  10.052 -0.8550 -1.0655  1.2750
   45CHL1   H2B 5785   3.449   5.114  10.036 -0.0825  1.8141  1.8478
   45CHL1   C20 5786   3.364   4.732   9.189  0.5647  0.0937  0.0854
   45CHL1   H20 5787   3.362   4.843   9.176  0.0931 -0.0715 -1.3591
   45CHL1   C21 5788   3.264   4.682   9.086  0.7282  0.2186  0.4613
   45CHL1  H21A 5789   3.260   4.572   9.099  0.9161  0.1395 -0.1129
   45CHL1  H21B 5790   3.300   4.694   8.982 -0.0741  0.1945  0.1771
   45CHL1  H21C 5791   3.159   4.718   9.084  0.6088 -0.0084  1.6313
   45CHL1   C22 5792   3.511   4.682   9.162 -0.5997  0.2750 -0.7386
   45CHL1  H22A 5793   3.580   4.723   9.238 -1.1817 -0.7211  0.3548
   45CHL1  H22B 5794   3.512   4.571   9.171  1.9394  0.3198  0.1336
   45CHL1   C23 5795   3.572   4.727   9.023 -1.0436 -0.3479  0.2799
   45CHL1  H23A 5796   3.513   4.689   8.937  0.0910 -4.2315  1.0192
   45CHL1  H23B 5797   3.575   4.838   9.017 -0.5261 -0.3983 -0.4667
   45CHL1   C24 5798   3.713   4.667   9.010 -0.4869  1.2200  0.4790
   45CHL1  H24A 5799   3.772   4.724   9.084 -0.4532 -1.4617  2.6522
   45CHL1  H24B 5800   3.717   4.563   9.048  1.1014 -0.1550 -2.9491
   45CHL1   C25 5801   3.766   4.658   8.857 -0.6003  0.2776 -0.1301
   45CHL1   H25 5802   3.696   4.597   8.797  0.6277 -0.8909 -0.4351
   45CHL1   C26 5803   3.791   4.799   8.794 -0.0214  0.0238  0.6052
   45CHL1  H26A 5804   3.886   4.832   8.840 -0.1261  0.7272  0.3236
   45CHL1  H26B 5805   3.822   4.790   8.687  0.6431 -1.3839  0.8943
   45CHL1  H26C 5806   3.711   4.876   8.796  0.2405  0.5625 -2.9973
   45CHL1   C27 5807   3.896   4.572   8.844  0.1086  0.4674  0.4409
   45CHL1  H27A 5808   3.985   4.632   8.874  0.0448  1.2525 -0.8448
   45CHL1  H27B 5809   3.894   4.479   8.905  1.8546  1.2092  1.7053
   45CHL1  H27C 5810   3.903   4.553   8.735  0.2584  2.0596  0.1479
   46CHL1    C3 5811   5.440   5.728  10.120 -0.4846 -0.4550 -0.2031
   46CHL1    H3 5812   5.336   5.725  10.081 -0.4528 -1.6144 -0.2139
   46CHL1    O3 5813   5.448   5.715  10.261 -0.0634  0.0145 -0.2504
   46CHL1   H3' 5814   5.541   5.708  10.287 -0.2571 -1.2971  0.1659
   46CHL1    C4 5815   5.518   5.608  10.062  0.5969 -1.4315 -0.1553
   46CHL1   H4A 5816   5.616   5.613  10.113  0.2705  1.7438  0.3243
   46CHL1   H4B 5817   5.471   5.514  10.100  3.0105 -2.5049  0.3387
   46CHL1    C5 5818   5.539   5.605   9.915  0.5027 -0.0877 -0.1801
   46CHL1    C6 5819   5.497   5.498   9.840 -0.8882 -0.3560 -0.5003
   46CHL1    H6 5820   5.448   5.411   9.887  0.8234 -0.6868  0.7808
   46CHL1    C7 5821   5.505   5.488   9.688  0.0295  0.3072 -0.1965
   46CHL1   H7A 5822   5.556   5.397   9.652  3.7515  1.5345  1.5148
   46CHL1   H7B 5823   5.405   5.494   9.640 -0.2826 -0.8697  0.2761
   46CHL1    C8 5824   5.588   5.598   9.621 -0.6427 -0.9542 -0.2408
   46CHL1    H8 5825   5.692   5.570   9.650 -0.4840 -1.8918 -1.5987
   46CHL1   C14 5826   5.574   5.606   9.469  0.0735 -0.5026 -0.2733
   46CHL1   H14 5827   5.469   5.633   9.446  0.5604  0.4657 -1.4884
   46CHL1   C15 5828   5.595   5.476   9.389  0.1456  0.3109 -0.0594
   46CHL1  H15A 5829   5.690   5.422   9.406  0.8357 -0.0698 -4.0913
   46CHL1  H15B 5830   5.506   5.409   9.387 -1.6977  2.6259 -0.2005
   46CHL1   C16 5831   5.609   5.527   9.242  0.5279 -0.0728 -0.0783
   46CHL1  H16A 5832   5.704   5.491   9.197 -0.5084  0.8020 -3.3045
   46CHL1  H16B 5833   5.537   5.481   9.172 -0.5103 -0.6241  1.3255
   46CHL1   C17 5834   5.623   5.680   9.247  0.3948 -0.8562 -0.8927
   46CHL1   H17 5835   5.517   5.711   9.236  0.3578 -0.1896  0.9928
   46CHL1   C13 5836   5.658   5.715   9.397 -0.5724  0.4204 -0.5844
   46CHL1   C18 5837   5.809   5.679   9.425 -0.2189 -0.0037  0.4773
   46CHL1  H18A 5838   5.832   5.595   9.356  3.6759  0.7101  0.7029
   46CHL1  H18B 5839   5.864   5.771   9.393 -0.2976 -0.7674 -2.1080
   46CHL1  H18C 5840   5.827   5.652   9.531 -4.0910 -1.0376  1.0234
   46CHL1   C12 5841   5.609   5.848   9.466 -0.7463 -0.4941 -0.7540
   46CHL1  H12A 5842   5.653   5.941   9.424  0.1184 -1.5294 -2.1956
   46CHL1  H12B 5843   5.499   5.861   9.454 -0.6817 -0.3706 -1.2070
   46CHL1   C11 5844   5.645   5.845   9.612 -0.0228  0.4433 -0.1615
   46CHL1  H11A 5845   5.755   5.842   9.624  0.0332 -0.3325 -0.7576
   46CHL1  H11B 5846   5.607   5.934   9.666 -0.4959  0.1513  0.0002
   46CHL1    C9 5847   5.566   5.735   9.688 -0.0541 -0.7975  0.5062
   46CHL1    H9 5848   5.459   5.756   9.669 -0.0812 -1.0919  0.3285
   46CHL1   C10 5849   5.585   5.736   9.851  0.5810  0.4723  0.3695
   46CHL1   C19 5850   5.739   5.742   9.888 -0.1270  0.2729 -0.0735
   46CHL1  H19A 5851   5.794   5.657   9.844 -0.3343  0.4198 -0.6243
   46CHL1  H19B 5852   5.773   5.843   9.859  0.5857 -0.4395 -1.8256
   46CHL1  H19C 5853   5.768   5.732   9.995  0.0485 -0.1461 -0.1581
   46CHL1    C1 5854   5.520   5.858   9.918  0.2880 -0.1664  1.0758
   46CHL1   H1A 5855   5.565   5.956   9.891  0.0054 -0.2409  0.3033
   46CHL1   H1B 5856   5.416   5.850   9.880  0.9659 -0.7346 -0.8212
   46CHL1    C2 5857   5.513   5.848  10.073  0.1451  0.0660 -0.2398
   46CHL1   H2A 5858   5.469   5.935  10.126  4.1099  1.1507  1.6463
   46CHL1   H2B 5859   5.617   5.834  10.107  0.4909 -1.7468 -1.9003
   46CHL1   C20 5860   5.695   5.740   9.128 -0.5000  0.5441  0.0166
   46CHL1   H20 5861   5.805   5.724   9.132 -0.4676  0.7267 -0.1377
   46CHL1   C21 5862   5.670   5.892   9.140 -0.0176 -0.5827 -0.4007
   46CHL1  H21A 5863   5.737   5.949   9.071  2.2442  0.2934  2.3123
   46CHL1  H21B 5864   5.711   5.933   9.234 -0.5829  1.6245 -1.0498
   46CHL1  H21C 5865   5.564   5.914   9.118  0.8050  1.3543 -3.0018
   46CHL1   C22 5866   5.649   5.671   9.000  0.5442  0.0417  0.3192
   46CHL1  H22A 5867   5.712   5.711   8.918  0.9043 -1.2441 -0.0583
   46CHL1  H22B 5868   5.675   5.563   8.988 -2.2947 -0.7008  0.1065
   46CHL1   C23 5869   5.497   5.688   8.960  0.1771 -0.8278  0.0230
   46CHL1  H23A 5870   5.435   5.713   9.049  1.6471  0.5532  0.7218
   46CHL1  H23B 5871   5.483   5.771   8.887 -0.8162  0.4819  1.6158
   46CHL1   C24 5872   5.436   5.557   8.907 -0.6092  0.1115  0.1285
   46CHL1  H24A 5873   5.490   5.528   8.814 -1.1415 -2.9603  0.6831
   46CHL1  H24B 5874   5.442   5.482   8.988 -1.4506  0.7023  0.7518
   46CHL1   C25 5875   5.287   5.573   8.865  0.4440  0.4650 -0.3980
   46CHL1   H25 5876   5.231   5.618   8.950  1.8562  2.6814 -0.5898
   46CHL1   C26 5877   5.274   5.659   8.741  0.2481  0.3290 -0.1046
   46CHL1  H26A 5878   5.312   5.759   8.770 -0.6990 -0.4010  4.4480
   46CHL1  H26B 5879   5.324   5.609   8.655 -1.4824 -1.5352 -0.1112
   46CHL1  H26C 5880   5.166   5.664   8.716 -0.2075 -0.9354  1.4532
   46CHL1   C27 5881   5.244   5.422   8.835  0.1319 -0.3084  0.8880
   46CHL1  H27A 5882   5.261   5.360   8.926  0.0190 -0.8789  0.5204
   46CHL1  H27B 5883   5.139   5.422   8.800 -0.2325  1.8483  1.7914
   46CHL1  H27C 5884   5.301   5.390   8.746  2.1930  2.3399  1.1445
   47CHL1    C3 5885   6.696   0.278  10.217 -0.3194  0.0896 -0.2630
   47CHL1    H3 5886   6.595   0.255  10.256  0.9629 -1.2814  2.4932
   47CHL1    O3 5887   6.773   0.330  10.323  0.8247  0.1306 -0.2480
   47CHL1   H3' 5888   6.863   0.340  10.290  1.3359  0.1612  1.1097
   47CHL1    C4 5889   6.753   0.137  10.170 -0.1914 -0.0984  0.2504
   47CHL1   H4A 5890   6.863   0.152  10.180 -0.1290 -0.7928  0.7508
   47CHL1   H4B 5891   6.727   0.059  10.245 -0.6314  0.5686  0.8099
   47CHL1    C5 5892   6.725   0.091  10.031 -0.0188 -0.1102  0.6455
   47CHL1    C6 5893   6.705  -0.036   9.998 -0.0064 -0.1721  0.2044
   47CHL1    H6 5894   6.708  -0.115  10.075 -0.1243 -0.1358  0.2467
   47CHL1    C7 5895   6.675  -0.074   9.849  0.8840  0.1604 -0.2737
   47CHL1   H7A 5896   6.725  -0.172   9.829  0.8439  0.1952 -0.5530
   47CHL1   H7B 5897   6.566  -0.077   9.827  1.2565  1.5487 -2.5523
   47CHL1    C8 5898   6.721   0.023   9.736  0.1984 -0.3434  0.0416
   47CHL1    H8 5899   6.832   0.021   9.734  0.3741 -1.2079  3.7580
   47CHL1   C14 5900   6.656  -0.011   9.601  0.0470  0.7080  0.3302
   47CHL1   H14 5901   6.548   0.004   9.622  0.3277  0.0712  2.5031
   47CHL1   C15 5902   6.671  -0.159   9.556 -0.2537 -0.1532  0.2941
   47CHL1  H15A 5903   6.777  -0.183   9.577  0.1808  0.2598 -1.3234
   47CHL1  H15B 5904   6.609  -0.239   9.603  0.1815 -2.1497 -2.2820
   47CHL1   C16 5905   6.644  -0.151   9.400 -0.3559  0.7763  0.1031
   47CHL1  H16A 5906   6.734  -0.194   9.349 -1.6132 -2.6536  0.4932
   47CHL1  H16B 5907   6.557  -0.206   9.358  0.6668 -0.0488 -1.0353
   47CHL1   C17 5908   6.616   0.001   9.377 -0.3655  0.0588 -0.6647
   47CHL1   H17 5909   6.506   0.006   9.391 -0.4744 -0.9313 -1.0565
   47CHL1   C13 5910   6.681   0.084   9.488 -0.2500  0.1705 -0.7209
   47CHL1   C18 5911   6.840   0.087   9.476 -0.8631  0.0566 -0.0531
   47CHL1  H18A 5912   6.874   0.135   9.382 -1.9223 -1.6999 -1.4011
   47CHL1  H18B 5913   6.889   0.149   9.554  0.3413 -1.1431  0.1850
   47CHL1  H18C 5914   6.880  -0.016   9.469  1.4865  0.9139 -0.1539
   47CHL1   C12 5915   6.625   0.220   9.530 -0.0472 -0.7101 -0.6878
   47CHL1  H12A 5916   6.651   0.298   9.456  1.1895 -0.6969 -0.2574
   47CHL1  H12B 5917   6.514   0.220   9.540 -0.4755  4.6999 -2.1800
   47CHL1   C11 5918   6.675   0.267   9.665  0.3993  0.1890 -0.3288
   47CHL1  H11A 5919   6.774   0.317   9.665  1.0155 -0.9708  0.2554
   47CHL1  H11B 5920   6.612   0.353   9.697 -1.8839 -1.3711 -0.3651
   47CHL1    C9 5921   6.670   0.158   9.774 -0.0273 -0.3781 -0.1480
   47CHL1    H9 5922   6.561   0.144   9.791 -0.0566  0.8086  0.7243
   47CHL1   C10 5923   6.718   0.203   9.919  0.1470 -0.0857  0.3935
   47CHL1   C19 5924   6.863   0.254   9.905 -0.7965 -0.5575  0.3444
   47CHL1  H19A 5925   6.885   0.338   9.836  2.5417 -0.0952  1.7825
   47CHL1  H19B 5926   6.900   0.289  10.004 -2.9018  1.9275  0.3741
   47CHL1  H19C 5927   6.928   0.170   9.871 -0.2449 -0.6317  1.5318
   47CHL1    C1 5928   6.621   0.308   9.978  0.1690 -0.6197 -0.8092
   47CHL1   H1A 5929   6.611   0.390   9.904  1.9521  1.2245  0.8638
   47CHL1   H1B 5930   6.522   0.261   9.998 -0.8953  0.8753 -2.3788
   47CHL1    C2 5931   6.679   0.375  10.102 -0.6044 -0.0056 -0.5079
   47CHL1   H2A 5932   6.610   0.451  10.143  0.9682  0.2725  1.7997
   47CHL1   H2B 5933   6.773   0.428  10.077 -0.1257 -0.4044  0.3840
   47CHL1   C20 5934   6.646   0.046   9.232 -0.2124 -0.3626 -0.2809
   47CHL1   H20 5935   6.754   0.056   9.211 -0.1426 -0.9600 -0.2207
   47CHL1   C21 5936   6.607   0.190   9.218  0.0763  0.3887  0.3243
   47CHL1  H21A 5937   6.688   0.248   9.267  0.3986 -0.5886  0.9920
   47CHL1  H21B 5938   6.509   0.220   9.262 -1.6265 -1.5299 -1.8947
   47CHL1  H21C 5939   6.608   0.231   9.115 -3.8245  0.4922  0.1694
   47CHL1   C22 5940   6.580  -0.050   9.138  0.0645  0.1635  0.2316
   47CHL1  H22A 5941   6.629  -0.147   9.158  2.4425  1.1026 -0.7167
   47CHL1  H22B 5942   6.471  -0.067   9.148  0.3700 -1.4311  1.2677
   47CHL1   C23 5943   6.602  -0.021   8.986 -0.2696 -0.5027 -0.0474
   47CHL1  H23A 5944   6.544   0.072   8.967 -0.2407 -0.0118  1.9755
   47CHL1  H23B 5945   6.705   0.017   8.972 -1.2089  2.7662  0.9845
   47CHL1   C24 5946   6.558  -0.138   8.895 -1.1022  0.2250  0.3870
   47CHL1  H24A 5947   6.604  -0.223   8.949  1.9740  1.7767  0.4038
   47CHL1  H24B 5948   6.449  -0.161   8.891 -1.0133 -0.1981  0.3143
   47CHL1   C25 5949   6.614  -0.133   8.755 -0.2313  0.0487 -0.4476
   47CHL1   H25 5950   6.724  -0.131   8.764 -0.4367  0.6468  3.2023
   47CHL1   C26 5951   6.580  -0.248   8.664 -0.4731 -0.5261 -0.1580
   47CHL1  H26A 5952   6.665  -0.276   8.598  0.6826 -0.9570  1.4362
   47CHL1  H26B 5953   6.498  -0.214   8.598 -0.6254 -0.2082  0.1865
   47CHL1  H26C 5954   6.561  -0.345   8.715 -1.2792  0.3662  1.2948
   47CHL1   C27 5955   6.570   0.003   8.683 -0.5755 -0.4402  0.0456
   47CHL1  H27A 5956   6.644   0.077   8.720 -1.6774  1.7480 -1.8669
   47CHL1  H27B 5957   6.589  -0.009   8.574  0.4925 -0.4642  0.2257
   47CHL1  H27C 5958   6.464   0.025   8.707 -1.1326 -2.5936 -0.1844
   48CHL1    C3 5959   1.032   6.461   9.951  0.7488  0.1473 -0.5206
   48CHL1    H3 5960   1.019   6.361   9.905 -1.6642  0.6599 -1.1497
   48CHL1    O3 5961   0.951   6.453  10.064  0.0321 -0.0669  0.1311
   48CHL1   H3' 5962   0.981   6.373  10.108  1.9772 -0.2760 -1.3824
   48CHL1    C4 5963   1.176   6.500   9.990  0.4149  0.7942  0.4126
   48CHL1   H4A 5964   1.176   6.587  10.059  0.8636  1.6155 -0.6074
   48CHL1   H4B 5965   1.215   6.416  10.051  3.2492  0.6566 -1.4004
   48CHL1    C5 5966   1.277   6.512   9.876  0.8790  0.2904  0.1359
   48CHL1    C6 5967   1.397   6.451   9.870  0.1098 -0.0673  0.1471
   48CHL1    H6 5968   1.432   6.379   9.945 -0.7095 -0.9611 -0.3082
   48CHL1    C7 5969   1.489   6.466   9.757 -0.3503 -0.4430  0.6403
   48CHL1   H7A 5970   1.588   6.473   9.805  0.2924  1.3866 -0.8162
   48CHL1   H7B 5971   1.485   6.375   9.693  0.6780 -1.2608  1.7026
   48CHL1    C8 5972   1.454   6.593   9.673 -0.3086  0.6710  0.8427
   48CHL1    H8 5973   1.494   6.671   9.742 -0.0083  0.5407  0.8167
   48CHL1   C14 5974   1.531   6.587   9.542 -0.6834 -0.6957  0.1064
   48CHL1   H14 5975   1.512   6.491   9.489  1.8482 -0.5396 -1.2416
   48CHL1   C15 5976   1.683   6.591   9.564  0.1819  0.2855  0.2997
   48CHL1  H15A 5977   1.702   6.672   9.638  0.2795 -0.4905  1.1494
   48CHL1  H15B 5978   1.716   6.493   9.606  1.2584 -0.0543 -1.2769
   48CHL1   C16 5979   1.741   6.618   9.428 -0.3535  0.4635  0.3854
   48CHL1  H16A 5980   1.817   6.698   9.434  1.1798 -0.8840 -0.3469
   48CHL1  H16B 5981   1.791   6.528   9.387 -0.7421  1.1297 -1.6623
   48CHL1   C17 5982   1.620   6.664   9.344 -0.6442 -0.3564 -0.8567
   48CHL1   H17 5983   1.588   6.566   9.302  3.5396 -1.6063 -1.5452
   48CHL1   C13 5984   1.502   6.699   9.441  0.0488  0.4434 -0.5313
   48CHL1   C18 5985   1.532   6.837   9.489 -0.5354 -0.5221 -0.4204
   48CHL1  H18A 5986   1.634   6.856   9.528 -2.3164  3.6218  3.1087
   48CHL1  H18B 5987   1.509   6.913   9.410 -3.6810  1.3967  2.1036
   48CHL1  H18C 5988   1.472   6.875   9.574 -1.0307  0.6973 -1.2750
   48CHL1   C12 5989   1.357   6.698   9.395 -0.5234  0.0683 -0.0074
   48CHL1  H12A 5990   1.335   6.787   9.333 -2.2018 -0.1085  0.2714
   48CHL1  H12B 5991   1.345   6.607   9.332  0.8390 -0.5793  0.6331
   48CHL1   C11 5992   1.268   6.702   9.522 -0.0782 -0.2286 -0.0075
   48CHL1  H11A 5993   1.259   6.807   9.556 -2.9166 -0.5296  0.5029
   48CHL1  H11B 5994   1.161   6.674   9.505 -0.0041 -0.1675 -0.5967
   48CHL1    C9 5995   1.311   6.600   9.637 -0.6863  0.4827 -0.7298
   48CHL1    H9 5996   1.297   6.500   9.591  3.0650  0.7227 -2.8112
   48CHL1   C10 5997   1.225   6.601   9.764  0.1088 -0.4449 -0.1989
   48CHL1   C19 5998   1.230   6.746   9.820  0.2092  0.2954  1.0220
   48CHL1  H19A 5999   1.337   6.774   9.834 -0.2954  1.3281  3.2607
   48CHL1  H19B 6000   1.191   6.822   9.749  0.6495 -2.4402 -2.4500
   48CHL1  H19C 6001   1.183   6.751   9.920 -1.4364 -3.3531  0.5895
   48CHL1    C1 6002   1.071   6.567   9.734  0.3814 -0.5640 -0.1952
   48CHL1   H1A 6003   1.033   6.646   9.666  1.6226  0.3126  0.0840
   48CHL1   H1B 6004   1.055   6.470   9.682  1.4818  0.3000 -2.2663
   48CHL1    C2 6005   0.968   6.565   9.857  0.5576 -0.3879 -0.1579
   48CHL1   H2A 6006   0.871   6.538   9.811 -0.5215  0.8210  1.2873
   48CHL1   H2B 6007   0.963   6.664   9.908  2.1194 -0.4958  0.2555
   48CHL1   C20 6008   1.649   6.752   9.224  0.4816  0.4704 -0.2899
   48CHL1   H20 6009   1.684   6.847   9.271  1.2791 -1.2414  2.8596
   48CHL1   C21 6010   1.520   6.792   9.146 -0.9254 -0.8537  0.2894
   48CHL1  H21A 6011   1.453   6.859   9.203  1.9558  0.2538  2.6554
   48CHL1  H21B 6012   1.462   6.703   9.115 -0.0424 -0.1230 -4.2221
   48CHL1  H21C 6013   1.550   6.841   9.051 -3.1245 -0.3854 -0.2050
   48CHL1   C22 6014   1.765   6.699   9.137 -0.6219  0.1097  0.0391
   48CHL1  H22A 6015   1.857   6.728   9.192 -1.3771  1.4242  0.6495
   48CHL1  H22B 6016   1.757   6.590   9.118 -1.2551  0.0418  0.6936
   48CHL1   C23 6017   1.791   6.772   8.996  0.5461 -0.3275 -0.4494
   48CHL1  H23A 6018   1.705   6.759   8.927  0.3141  0.5089 -0.3317
   48CHL1  H23B 6019   1.814   6.878   9.017 -1.7295  0.0887  0.2053
   48CHL1   C24 6020   1.913   6.714   8.923  0.2992  0.0273 -0.1549
   48CHL1  H24A 6021   1.944   6.767   8.831  0.1471 -0.1178 -0.2906
   48CHL1  H24B 6022   1.997   6.722   8.996  0.6108 -2.2902 -0.1712
   48CHL1   C25 6023   1.912   6.564   8.884 -0.5976  0.2272  0.1587
   48CHL1   H25 6024   1.893   6.514   8.981 -0.1496  1.0298  0.6665
   48CHL1   C26 6025   1.810   6.518   8.785 -0.0045 -0.0084 -0.6899
   48CHL1  H26A 6026   1.707   6.540   8.818  0.4210  0.9388  0.0642
   48CHL1  H26B 6027   1.817   6.568   8.686 -1.6546  1.1441 -0.2532
   48CHL1  H26C 6028   1.820   6.407   8.779  2.8061  0.1994 -1.6379
   48CHL1   C27 6029   2.054   6.524   8.833  0.7239  0.4052  0.0610
   48CHL1  H27A 6030   2.132   6.582   8.887  0.1017  1.9095 -0.6038
   48CHL1  H27B 6031   2.071   6.418   8.861 -0.8985  0.7057  2.4741
   48CHL1  H27C 6032   2.055   6.543   8.724 -0.9464  0.9564  0.1148
   49CHL1    C3 6033   5.372   3.921  10.077 -0.1826  0.4318 -1.0652
   49CHL1    H3 6034   5.339   3.819  10.051  0.4760  0.1365 -0.7695
   49CHL1    O3 6035   5.365   3.934  10.217  0.2432 -0.2002 -0.7102
   49CHL1   H3' 6036   5.452   3.971  10.233  0.0280  0.1813 -0.3917
   49CHL1    C4 6037   5.511   3.939  10.026 -0.0017  0.2484  0.2855
   49CHL1   H4A 6038   5.544   4.041  10.053 -1.8981  1.0018 -0.0292
   49CHL1   H4B 6039   5.568   3.867  10.087  0.6526 -1.4713 -2.1921
   49CHL1    C5 6040   5.505   3.921   9.880 -0.0026 -0.3397 -0.5958
   49CHL1    C6 6041   5.589   3.833   9.825  0.0792  0.6041  0.1985
   49CHL1    H6 6042   5.662   3.775   9.883 -1.0567 -2.2353 -1.0603
   49CHL1    C7 6043   5.597   3.805   9.675 -0.2648 -0.4564 -0.7873
   49CHL1   H7A 6044   5.706   3.805   9.651  0.0393 -1.6876  0.4499
   49CHL1   H7B 6045   5.557   3.702   9.672  1.3922 -1.1902  0.4321
   49CHL1    C8 6046   5.529   3.916   9.587 -0.2051  0.4221  0.6328
   49CHL1    H8 6047   5.612   3.989   9.577  2.4350 -2.1780  2.0025
   49CHL1   C14 6048   5.487   3.864   9.451  0.2593 -0.0448 -0.3625
   49CHL1   H14 6049   5.404   3.791   9.461 -1.0703  1.2483 -1.4421
   49CHL1   C15 6050   5.604   3.792   9.377  0.1783  0.2642 -0.1025
   49CHL1  H15A 6051   5.690   3.859   9.393  0.8112 -0.6280  0.3317
   49CHL1  H15B 6052   5.624   3.688   9.413 -3.9185 -0.3078  1.0534
   49CHL1   C16 6053   5.550   3.786   9.230 -0.2409 -0.3947 -0.2751
   49CHL1  H16A 6054   5.626   3.833   9.163 -0.6488  1.8275  0.7106
   49CHL1  H16B 6055   5.534   3.681   9.199  3.7445 -1.3257  0.2823
   49CHL1   C17 6056   5.421   3.874   9.225 -0.3173  0.1049 -0.1890
   49CHL1   H17 6057   5.344   3.797   9.251 -1.1132  0.3768 -1.6673
   49CHL1   C13 6058   5.424   3.966   9.357  0.0464  0.3751  0.0468
   49CHL1   C18 6059   5.518   4.085   9.332 -0.0679 -0.9953 -0.6567
   49CHL1  H18A 6060   5.594   4.069   9.253  3.3615 -1.1965  2.4561
   49CHL1  H18B 6061   5.449   4.167   9.303 -1.4979 -1.2850  1.6540
   49CHL1  H18C 6062   5.572   4.116   9.423  1.9137  0.0072 -2.1054
   49CHL1   C12 6063   5.285   4.010   9.423 -0.0711  0.4897  0.3653
   49CHL1  H12A 6064   5.244   4.097   9.367  0.4246  0.3888 -0.1681
   49CHL1  H12B 6065   5.219   3.921   9.425 -0.0566  0.4607 -0.1308
   49CHL1   C11 6066   5.315   4.068   9.564 -0.0025  0.2408 -0.4754
   49CHL1  H11A 6067   5.377   4.158   9.544  0.3490  0.2480  0.6340
   49CHL1  H11B 6068   5.218   4.092   9.613 -0.7653 -2.3200 -0.5882
   49CHL1    C9 6069   5.398   3.963   9.655 -0.2748 -0.5732  0.1870
   49CHL1    H9 6070   5.334   3.873   9.662 -0.9561 -0.2984 -1.9275
   49CHL1   C10 6071   5.410   4.012   9.796 -0.1099 -0.0208 -0.2682
   49CHL1   C19 6072   5.474   4.156   9.802 -0.3456  0.0860 -0.1331
   49CHL1  H19A 6073   5.566   4.153   9.739 -1.3482 -1.1386 -1.6278
   49CHL1  H19B 6074   5.405   4.234   9.762 -2.2857 -0.8116  1.3176
   49CHL1  H19C 6075   5.507   4.176   9.906  2.4283 -0.2055 -0.8583
   49CHL1    C1 6076   5.267   4.009   9.863 -0.5820  0.2976  0.5230
   49CHL1   H1A 6077   5.213   4.096   9.821 -0.6390 -0.3883 -0.8792
   49CHL1   H1B 6078   5.210   3.916   9.846 -2.1195  1.0941  1.2065
   49CHL1    C2 6079   5.273   4.025  10.016  0.0520 -0.6393  0.0229
   49CHL1   H2A 6080   5.169   4.014  10.054  0.1697  0.2006  0.6388
   49CHL1   H2B 6081   5.301   4.128  10.050 -2.2210 -0.4865  1.6905
   49CHL1   C20 6082   5.389   3.931   9.081  0.0728 -0.0188 -0.5829
   49CHL1   H20 6083   5.450   4.023   9.071  0.9223 -0.3185  1.3675
   49CHL1   C21 6084   5.242   3.977   9.081 -0.0947  0.3678 -0.5224
   49CHL1  H21A 6085   5.199   3.987   8.979  3.0762 -0.8300 -2.1203
   49CHL1  H21B 6086   5.224   4.071   9.139 -0.9866  0.5280 -1.0400
   49CHL1  H21C 6087   5.176   3.904   9.132  0.5352  0.4057  0.3782
   49CHL1   C22 6088   5.423   3.829   8.972 -0.0495 -0.5110 -0.7383
   49CHL1  H22A 6089   5.532   3.818   8.958 -0.2679 -1.7503 -1.6458
   49CHL1  H22B 6090   5.376   3.736   9.010 -0.9969  0.9433  1.9624
   49CHL1   C23 6091   5.383   3.870   8.833  0.4534  0.3425 -0.2223
   49CHL1  H23A 6092   5.273   3.859   8.817  0.1605 -1.7758  2.5300
   49CHL1  H23B 6093   5.411   3.974   8.805 -0.6044  1.1254  1.4426
   49CHL1   C24 6094   5.465   3.790   8.728 -0.4258  0.0910 -0.1453
   49CHL1  H24A 6095   5.569   3.826   8.741 -0.8622  1.7536 -0.8675
   49CHL1  H24B 6096   5.465   3.683   8.756  0.7607 -1.0454 -3.9173
   49CHL1   C25 6097   5.424   3.803   8.577  0.0336 -0.2568  0.0647
   49CHL1   H25 6098   5.318   3.777   8.559  0.6720 -1.0489 -3.3559
   49CHL1   C26 6099   5.455   3.945   8.530 -0.0149 -0.1926  0.1833
   49CHL1  H26A 6100   5.387   4.016   8.583  0.9755  1.4580 -0.6868
   49CHL1  H26B 6101   5.562   3.967   8.544  0.8631 -2.8236 -1.5790
   49CHL1  H26C 6102   5.426   3.950   8.423 -1.3579  1.7237  0.5776
   49CHL1   C27 6103   5.504   3.710   8.474 -0.0689  0.4294  0.0650
   49CHL1  H27A 6104   5.609   3.744   8.488 -0.2584  0.4768  1.5289
   49CHL1  H27B 6105   5.503   3.601   8.494 -0.1123  0.1030 -1.5738
   49CHL1  H27C 6106   5.461   3.713   8.371 -1.1351 -2.0035  0.3698
   50CHL1    C3 6107   2.843   4.918  10.278  0.9918  0.0872 -0.8184
   50CHL1    H3 6108   2.891   5.016  10.295 -1.3765  1.0786  0.6471
   50CHL1    O3 6109   2.862   4.833  10.396  0.1751 -0.1765  0.4508
   50CHL1   H3' 6110   2.949   4.793  10.389 -0.3983 -1.3729 -0.0512
   50CHL1    C4 6111   2.690   4.940  10.269 -0.5974  0.3711 -0.3263
   50CHL1   H4A 6112   2.640   4.840  10.273  0.2918 -0.0621  0.6241
   50CHL1   H4B 6113   2.648   4.977  10.365 -0.7020 -2.2511  0.7318
   50CHL1    C5 6114   2.660   5.011  10.144 -0.0766 -0.4566  0.6583
   50CHL1    C6 6115   2.579   5.116  10.143 -0.3635  0.1651  0.2282
   50CHL1    H6 6116   2.530   5.151  10.235 -0.6937 -0.5993  0.3490
   50CHL1    C7 6117   2.541   5.189  10.021  0.1003 -0.4492 -0.3006
   50CHL1   H7A 6118   2.431   5.175  10.013  0.0155 -1.2288  1.7151
   50CHL1   H7B 6119   2.581   5.293  10.027 -0.3901 -0.3192  1.0400
   50CHL1    C8 6120   2.587   5.116   9.892  0.3757  0.5080  0.1404
   50CHL1    H8 6121   2.510   5.038   9.869 -0.4516  1.4573 -0.4071
   50CHL1   C14 6122   2.584   5.209   9.770 -0.5672 -0.0345  0.1355
   50CHL1   H14 6123   2.661   5.287   9.787 -0.5374  0.3496 -1.5778
   50CHL1   C15 6124   2.443   5.276   9.741 -0.9338  0.5167  0.0356
   50CHL1  H15A 6125   2.364   5.199   9.749 -1.2015  0.8582  0.7920
   50CHL1  H15B 6126   2.423   5.352   9.819  0.0456 -1.1512  1.9978
   50CHL1   C16 6127   2.456   5.332   9.600 -0.3756 -0.2943 -0.2422
   50CHL1  H16A 6128   2.376   5.307   9.526  0.0797 -1.6132 -0.3110
   50CHL1  H16B 6129   2.468   5.442   9.590 -1.8295 -0.1271 -0.3946
   50CHL1   C17 6130   2.594   5.277   9.538  0.4093  0.7906 -0.8691
   50CHL1   H17 6131   2.674   5.348   9.565 -0.1683  1.2495 -0.3304
   50CHL1   C13 6132   2.626   5.148   9.635  0.5247  0.5852 -0.4715
   50CHL1   C18 6133   2.527   5.043   9.600  0.5061 -0.1196  0.4812
   50CHL1  H18A 6134   2.503   4.961   9.671 -4.5195 -0.8837 -1.6468
   50CHL1  H18B 6135   2.428   5.089   9.579  1.2702  2.1277  1.4582
   50CHL1  H18C 6136   2.555   5.006   9.499 -1.2289  1.7416 -0.7694
   50CHL1   C12 6137   2.770   5.093   9.650 -0.5282  0.0196  0.2229
   50CHL1  H12A 6138   2.801   5.052   9.552  1.6777 -1.0935  1.2861
   50CHL1  H12B 6139   2.832   5.185   9.655 -0.9219  0.5175 -2.7233
   50CHL1   C11 6140   2.776   4.994   9.774 -0.5007 -0.1125  0.1677
   50CHL1  H11A 6141   2.721   4.905   9.735 -1.2318  0.4447 -0.1102
   50CHL1  H11B 6142   2.882   4.962   9.781 -0.3796  0.0702 -0.7681
   50CHL1    C9 6143   2.717   5.046   9.908 -0.0575 -0.2242 -0.1197
   50CHL1    H9 6144   2.774   5.138   9.930 -0.8437 -0.0821  1.4451
   50CHL1   C10 6145   2.719   4.949  10.020  0.3374  0.1396  0.3987
   50CHL1   C19 6146   2.645   4.817   9.977 -0.2065 -0.0872  0.0418
   50CHL1  H19A 6147   2.542   4.835   9.941  0.2602  1.3204 -0.6411
   50CHL1  H19B 6148   2.709   4.765   9.903  0.9713  1.0354  0.2248
   50CHL1  H19C 6149   2.643   4.750  10.066  2.1568 -0.4417 -0.1045
   50CHL1    C1 6150   2.871   4.926  10.032  0.3656 -0.5857 -1.0849
   50CHL1   H1A 6151   2.904   4.863   9.945  0.0850 -0.3697 -1.3483
   50CHL1   H1B 6152   2.918   5.026  10.040  1.4801 -1.2619  2.2541
   50CHL1    C2 6153   2.901   4.845  10.161 -0.2376  0.2270  0.5160
   50CHL1   H2A 6154   3.009   4.825  10.174 -0.5402 -1.8227  0.1968
   50CHL1   H2B 6155   2.853   4.745  10.164 -1.6842  0.8370 -0.8665
   50CHL1   C20 6156   2.606   5.264   9.388  0.0919 -0.3035 -0.1177
   50CHL1   H20 6157   2.564   5.165   9.359  1.8811 -0.9907 -0.5282
   50CHL1   C21 6158   2.750   5.279   9.348  0.1623 -0.1528 -0.2760
   50CHL1  H21A 6159   2.757   5.231   9.248 -0.0429  1.9841 -1.3920
   50CHL1  H21B 6160   2.817   5.229   9.421 -0.3379 -0.6114 -0.1261
   50CHL1  H21C 6161   2.783   5.385   9.353  0.3776 -0.2673  2.6022
   50CHL1   C22 6162   2.529   5.374   9.320 -0.1641  0.0779 -0.6434
   50CHL1  H22A 6163   2.421   5.349   9.336 -0.8073  1.4770 -2.4350
   50CHL1  H22B 6164   2.540   5.473   9.371 -1.7256  1.3821 -2.6607
   50CHL1   C23 6165   2.542   5.402   9.171  0.7583 -0.0773 -0.4146
   50CHL1  H23A 6166   2.473   5.488   9.159 -1.2692 -1.3700  1.4027
   50CHL1  H23B 6167   2.637   5.443   9.131  0.6251  0.3615 -0.2936
   50CHL1   C24 6168   2.502   5.278   9.081 -0.0760 -0.3375 -0.5236
   50CHL1  H24A 6169   2.526   5.303   8.976 -2.1776  1.9315 -0.5514
   50CHL1  H24B 6170   2.566   5.188   9.093  1.6344  0.2062 -4.2772
   50CHL1   C25 6171   2.347   5.237   9.088  0.3436 -0.3946 -0.1679
   50CHL1   H25 6172   2.331   5.194   9.189 -1.6179 -0.3661 -0.4361
   50CHL1   C26 6173   2.250   5.351   9.063 -0.5913 -0.0148  0.1866
   50CHL1  H26A 6174   2.148   5.308   9.057 -1.4492  1.3392  3.1191
   50CHL1  H26B 6175   2.247   5.415   9.154 -3.0038 -0.9320  0.8437
   50CHL1  H26C 6176   2.281   5.409   8.974  0.3492 -1.4997 -0.4936
   50CHL1   C27 6177   2.315   5.123   8.992 -1.0684  0.1680 -0.4292
   50CHL1  H27A 6178   2.209   5.091   8.986 -0.6885 -1.3208  0.4530
   50CHL1  H27B 6179   2.344   5.140   8.886 -4.1702 -0.6757 -1.5348
   50CHL1  H27C 6180   2.365   5.033   9.032 -0.9736  0.5038  0.2403
   51CHL1    C3 6181   4.188   0.295  10.155 -0.5014  0.1679 -0.1498
   51CHL1    H3 6182   4.080   0.278  10.133 -0.2632  0.2383 -1.4504
   51CHL1    O3 6183   4.202   0.289  10.294  0.4083 -0.1523  0.2252
   51CHL1   H3' 6184   4.205   0.195  10.310  2.9512 -0.7331 -2.8251
   51CHL1    C4 6185   4.276   0.178  10.107 -0.0259 -0.2518 -0.1231
   51CHL1   H4A 6186   4.376   0.189  10.155 -1.1685  1.8889  1.9371
   51CHL1   H4B 6187   4.230   0.082  10.139  0.3509 -0.2746  0.3676
   51CHL1    C5 6188   4.302   0.176   9.955  0.0479 -0.3750  0.0635
   51CHL1    C6 6189   4.263   0.066   9.890  0.5053  0.3463  0.8150
   51CHL1    H6 6190   4.218  -0.023   9.938 -0.4410  0.1095 -0.4440
   51CHL1    C7 6191   4.265   0.055   9.738 -0.2342 -0.6342 -0.0147
   51CHL1   H7A 6192   4.319  -0.038   9.713  0.7610 -0.1678  0.3429
   51CHL1   H7B 6193   4.163   0.071   9.696  0.0268 -0.0144 -0.4240
   51CHL1    C8 6194   4.354   0.168   9.673 -0.0162 -0.3836 -0.7936
   51CHL1    H8 6195   4.459   0.148   9.701 -0.5043 -0.4990  1.0648
   51CHL1   C14 6196   4.328   0.171   9.530  0.2097 -0.1038  0.1008
   51CHL1   H14 6197   4.228   0.216   9.509  0.5177 -0.0119 -1.2430
   51CHL1   C15 6198   4.326   0.043   9.448 -0.3545 -0.5024  0.6352
   51CHL1  H15A 6199   4.411  -0.024   9.474  0.0418 -0.6085 -0.8915
   51CHL1  H15B 6200   4.232  -0.014   9.463 -0.6298  0.3992  2.8710
   51CHL1   C16 6201   4.338   0.097   9.297 -0.6421 -0.1281 -0.5037
   51CHL1  H16A 6202   4.412   0.027   9.254 -0.1341 -0.0583  0.2418
   51CHL1  H16B 6203   4.237   0.100   9.249 -0.8490 -1.6680 -0.2171
   51CHL1   C17 6204   4.386   0.241   9.307 -0.1308 -0.0909  0.6414
   51CHL1   H17 6205   4.299   0.306   9.286 -0.2339 -0.4727 -0.1202
   51CHL1   C13 6206   4.419   0.264   9.452 -0.7339 -0.6793 -0.5491
   51CHL1   C18 6207   4.567   0.215   9.464 -0.0940  0.1004 -0.1401
   51CHL1  H18A 6208   4.608   0.211   9.567 -0.4616  0.8974  0.0491
   51CHL1  H18B 6209   4.584   0.127   9.399 -0.5504  0.6777 -1.0788
   51CHL1  H18C 6210   4.625   0.293   9.410 -2.9498  0.8409 -2.3797
   51CHL1   C12 6211   4.410   0.403   9.506  0.2704 -0.2512 -0.4862
   51CHL1  H12A 6212   4.491   0.462   9.458  0.2438 -0.7577 -1.1581
   51CHL1  H12B 6213   4.314   0.447   9.469 -0.1990 -2.0108 -1.4784
   51CHL1   C11 6214   4.421   0.414   9.660 -0.4150  0.5633 -0.0902
   51CHL1  H11A 6215   4.527   0.395   9.690 -0.7549 -0.8347  0.2959
   51CHL1  H11B 6216   4.387   0.519   9.676  2.2325  1.6411 -0.9715
   51CHL1    C9 6217   4.334   0.310   9.732 -0.2640  0.0853  0.0372
   51CHL1    H9 6218   4.226   0.327   9.710  0.1632 -0.0544 -2.4752
   51CHL1   C10 6219   4.348   0.308   9.889  0.2100  0.3689  1.0886
   51CHL1   C19 6220   4.502   0.325   9.925  0.2973 -0.3044 -0.0694
   51CHL1  H19A 6221   4.522   0.298  10.031 -1.5099  1.1154  0.6961
   51CHL1  H19B 6222   4.555   0.247   9.866 -2.3208 -0.6368 -2.1868
   51CHL1  H19C 6223   4.543   0.425   9.899  1.2716 -0.6326  0.1695
   51CHL1    C1 6224   4.263   0.423   9.949 -0.1700 -0.8465 -0.7290
   51CHL1   H1A 6225   4.326   0.506   9.910  1.6197 -0.9932  1.6225
   51CHL1   H1B 6226   4.162   0.409   9.905  0.2140  0.2531 -2.0530
   51CHL1    C2 6227   4.240   0.427  10.101 -0.1257  0.1281 -0.2103
   51CHL1   H2A 6228   4.173   0.511  10.128  0.4715  0.6961 -0.4530
   51CHL1   H2B 6229   4.333   0.453  10.157 -0.9959 -0.9718  1.8454
   51CHL1   C20 6230   4.483   0.284   9.191  0.0503  0.6759  0.4746
   51CHL1   H20 6231   4.568   0.212   9.187 -2.2566 -2.2559  0.0550
   51CHL1   C21 6232   4.528   0.429   9.191  0.0184  0.4922 -0.3168
   51CHL1  H21A 6233   4.439   0.496   9.194 -0.6988 -0.4091 -0.9951
   51CHL1  H21B 6234   4.591   0.449   9.102  0.1307  0.3545 -0.2688
   51CHL1  H21C 6235   4.589   0.442   9.284 -3.5155 -0.5427  2.3845
   51CHL1   C22 6236   4.415   0.273   9.058 -0.2322  0.6253  0.8477
   51CHL1  H22A 6237   4.333   0.198   9.060 -0.1437  0.4632 -0.7155
   51CHL1  H22B 6238   4.371   0.369   9.024 -1.1190  0.7787  2.3377
   51CHL1   C23 6239   4.507   0.217   8.931  1.1362  0.1587 -0.2886
   51CHL1  H23A 6240   4.594   0.285   8.915  1.1472  0.8318  2.2356
   51CHL1  H23B 6241   4.535   0.113   8.955 -1.8832 -0.6252  0.2364
   51CHL1   C24 6242   4.420   0.212   8.803 -0.0506 -0.9126 -0.7489
   51CHL1  H24A 6243   4.338   0.139   8.818  0.1240 -0.6573  1.7196
   51CHL1  H24B 6244   4.366   0.308   8.786  2.0638  0.9546  2.1753
   51CHL1   C25 6245   4.498   0.171   8.674  0.0435  0.7554  0.2868
   51CHL1   H25 6246   4.585   0.239   8.662 -1.1567  2.2170 -0.6766
   51CHL1   C26 6247   4.556   0.028   8.679 -0.1918 -0.4768  0.5351
   51CHL1  H26A 6248   4.617   0.023   8.586  1.0504 -1.1480  1.3662
   51CHL1  H26B 6249   4.625   0.038   8.766 -0.8228  3.0966  0.7696
   51CHL1  H26C 6250   4.472  -0.044   8.672 -1.3263  0.9000 -0.6502
   51CHL1   C27 6251   4.401   0.188   8.557 -0.3314  0.0551 -0.6623
   51CHL1  H27A 6252   4.433   0.140   8.462 -1.8942 -1.9917 -0.2440
   51CHL1  H27B 6253   4.302   0.141   8.579 -0.9030  1.3692 -0.3580
   51CHL1  H27C 6254   4.389   0.297   8.541 -1.3127  0.0449 -0.1047
   52CHL1    C3 6255   5.667   2.665   9.734 -0.2417  0.4114 -0.2037
   52CHL1    H3 6256   5.748   2.721   9.683  0.7376  0.4720  1.3621
   52CHL1    O3 6257   5.707   2.631   9.866 -0.3334 -0.5341 -0.2461
   52CHL1   H3' 6258   5.731   2.705   9.923 -1.4042 -2.8639  3.5772
   52CHL1    C4 6259   5.540   2.749   9.735 -0.1551 -0.3757 -0.1946
   52CHL1   H4A 6260   5.454   2.704   9.789 -1.4497  0.6772 -1.3218
   52CHL1   H4B 6261   5.560   2.839   9.797  1.2316 -0.8374  0.0696
   52CHL1    C5 6262   5.503   2.791   9.591 -0.0675  0.3816 -0.1065
   52CHL1    C6 6263   5.495   2.918   9.556 -1.1121 -0.6636  0.0703
   52CHL1    H6 6264   5.515   2.993   9.634  0.7167  1.5890 -2.3790
   52CHL1    C7 6265   5.475   2.973   9.412  0.2860  0.6861 -0.5934
   52CHL1   H7A 6266   5.400   3.056   9.408  1.9005  2.2143 -0.5555
   52CHL1   H7B 6267   5.579   3.007   9.393  1.4400 -1.8692  0.6706
   52CHL1    C8 6268   5.414   2.858   9.314 -0.5436 -0.3778  0.0642
   52CHL1    H8 6269   5.305   2.858   9.338 -0.8567  1.0133 -1.1499
   52CHL1   C14 6270   5.434   2.895   9.166 -0.3402  0.1765  0.5568
   52CHL1   H14 6271   5.544   2.909   9.159 -0.2052 -0.3581  1.3988
   52CHL1   C15 6272   5.378   3.028   9.121 -0.1730 -1.0503  0.2884
   52CHL1  H15A 6273   5.269   3.041   9.142 -0.4438  0.6017 -1.7833
   52CHL1  H15B 6274   5.447   3.104   9.162 -0.9215  0.3712 -0.9799
   52CHL1   C16 6275   5.382   3.012   8.966  1.3964  0.0177  0.1547
   52CHL1  H16A 6276   5.281   3.018   8.920  0.8095  0.1288  1.4146
   52CHL1  H16B 6277   5.445   3.090   8.919  0.5711  2.2286  2.5123
   52CHL1   C17 6278   5.431   2.866   8.933  0.7999  0.3277 -0.1739
   52CHL1   H17 6279   5.541   2.875   8.925  0.9299  0.3946  1.4286
   52CHL1   C13 6280   5.398   2.786   9.063  0.0610 -0.2654 -0.3111
   52CHL1   C18 6281   5.243   2.764   9.079 -0.5147 -0.3798 -0.3599
   52CHL1  H18A 6282   5.193   2.857   9.045  2.8114  1.1715 -1.5061
   52CHL1  H18B 6283   5.227   2.680   9.009  0.7934 -1.1414  0.2177
   52CHL1  H18C 6284   5.213   2.731   9.181 -0.1070 -2.3946 -0.8632
   52CHL1   C12 6285   5.488   2.667   9.102 -0.2072  0.6823  0.4838
   52CHL1  H12A 6286   5.475   2.578   9.037  0.3114  0.2568  0.9548
   52CHL1  H12B 6287   5.594   2.697   9.090 -0.0066  0.2656  1.1236
   52CHL1   C11 6288   5.471   2.623   9.247  0.5354  0.1712  0.2461
   52CHL1  H11A 6289   5.371   2.576   9.241  1.3200 -1.4993 -0.4369
   52CHL1  H11B 6290   5.537   2.536   9.264 -1.6047 -1.4965  0.3393
   52CHL1    C9 6291   5.496   2.731   9.344  0.2284 -0.6038 -0.7538
   52CHL1    H9 6292   5.602   2.754   9.320  0.6048 -1.9181 -0.4276
   52CHL1   C10 6293   5.492   2.678   9.488 -0.0461  0.5668 -0.2916
   52CHL1   C19 6294   5.356   2.607   9.507  0.1236 -0.2618 -0.1313
   52CHL1  H19A 6295   5.356   2.513   9.449  0.8375 -0.2487 -0.1532
   52CHL1  H19B 6296   5.353   2.579   9.614 -1.0031  0.3479  0.0123
   52CHL1  H19C 6297   5.270   2.675   9.487  1.5058  1.4775 -0.4764
   52CHL1    C1 6298   5.605   2.576   9.509  0.0236 -0.4079  0.0166
   52CHL1   H1A 6299   5.588   2.478   9.459  0.8200  0.2486 -1.6572
   52CHL1   H1B 6300   5.698   2.626   9.474 -2.7889  3.9511 -2.1753
   52CHL1    C2 6301   5.643   2.536   9.656  0.5160  0.5286  0.2120
   52CHL1   H2A 6302   5.720   2.456   9.664 -2.4332 -2.5594  0.1547
   52CHL1   H2B 6303   5.547   2.487   9.684  1.0915 -1.6640 -1.3566
   52CHL1   C20 6304   5.376   2.809   8.800 -0.5937 -0.0210 -0.5255
   52CHL1   H20 6305   5.268   2.796   8.820  0.1160 -1.1490  3.5261
   52CHL1   C21 6306   5.435   2.667   8.786  0.4799 -0.7031  0.6890
   52CHL1  H21A 6307   5.395   2.599   8.864  0.7791  0.2045  1.6764
   52CHL1  H21B 6308   5.545   2.667   8.800  0.5554 -1.4157  0.1176
   52CHL1  H21C 6309   5.421   2.622   8.686 -0.9116  1.0910  0.0067
   52CHL1   C22 6310   5.414   2.891   8.680 -0.0991  0.1732  0.5990
   52CHL1  H22A 6311   5.404   3.001   8.693  3.3525  0.7795 -0.8018
   52CHL1  H22B 6312   5.522   2.871   8.664  0.2217  0.6439  1.9878
   52CHL1   C23 6313   5.343   2.857   8.548  0.3068  0.3433 -0.1492
   52CHL1  H23A 6314   5.413   2.890   8.469  1.3735  0.4039  0.7929
   52CHL1  H23B 6315   5.327   2.747   8.548  1.0914  0.2235 -0.4597
   52CHL1   C24 6316   5.209   2.923   8.550 -0.0878  0.8239  0.1352
   52CHL1  H24A 6317   5.148   2.898   8.640  0.6802  0.7079  0.6302
   52CHL1  H24B 6318   5.228   3.031   8.539  1.8514  0.4718 -0.3671
   52CHL1   C25 6319   5.123   2.885   8.426 -0.5291 -0.2214 -0.3511
   52CHL1   H25 6320   5.107   2.775   8.425  0.7250 -0.4119 -1.1231
   52CHL1   C26 6321   4.978   2.941   8.438 -0.2427  0.2185  0.8225
   52CHL1  H26A 6322   4.924   2.892   8.355  0.7691  0.9946 -0.3251
   52CHL1  H26B 6323   4.931   2.895   8.528 -0.8944  0.6835  0.7226
   52CHL1  H26C 6324   4.971   3.051   8.452  0.7766  0.0327  3.3192
   52CHL1   C27 6325   5.191   2.930   8.297  0.4569 -0.0349  0.3982
   52CHL1  H27A 6326   5.121   2.906   8.214  0.1126  0.3320  0.5780
   52CHL1  H27B 6327   5.211   3.040   8.294  1.4331 -0.2041  0.6639
   52CHL1  H27C 6328   5.292   2.886   8.288 -0.2559 -1.6001 -0.4144
   53CHL1    C3 6329   6.700   1.564  10.019  0.0227 -0.1443 -0.1638
   53CHL1    H3 6330   6.664   1.459  10.012  0.3768 -0.4106  1.6022
   53CHL1    O3 6331   6.729   1.598  10.151  0.8881  0.5407 -0.2658
   53CHL1   H3' 6332   6.750   1.692  10.153 -1.0944  1.0204 -0.3615
   53CHL1    C4 6333   6.825   1.581   9.934  0.2708 -0.5845  0.3512
   53CHL1   H4A 6334   6.857   1.687   9.948  1.7737 -1.0221  0.4572
   53CHL1   H4B 6335   6.912   1.522   9.972  0.5248 -0.2192  0.3444
   53CHL1    C5 6336   6.795   1.556   9.789 -0.3424  0.1199 -1.1456
   53CHL1    C6 6337   6.856   1.459   9.717  0.6415 -0.5427 -0.1087
   53CHL1    H6 6338   6.925   1.394   9.772  0.0083 -0.9200  0.2590
   53CHL1    C7 6339   6.824   1.435   9.571  0.1390 -0.4925  0.0276
   53CHL1   H7A 6340   6.915   1.411   9.511 -0.2572  2.4369 -1.9269
   53CHL1   H7B 6341   6.756   1.348   9.562 -0.0573 -1.0447  4.7133
   53CHL1    C8 6342   6.763   1.561   9.505  0.4037 -0.5155  0.9040
   53CHL1    H8 6343   6.836   1.644   9.509 -0.6044  0.4856 -0.5316
   53CHL1   C14 6344   6.725   1.521   9.365  0.2972  0.2585 -0.0703
   53CHL1   H14 6345   6.657   1.436   9.389 -1.1984  2.2673  3.5863
   53CHL1   C15 6346   6.835   1.469   9.274 -1.1497  0.2334  0.5415
   53CHL1  H15A 6347   6.906   1.553   9.264 -0.8289 -0.2604 -1.9487
   53CHL1  H15B 6348   6.900   1.381   9.289  2.5583  2.7046  0.0984
   53CHL1   C16 6349   6.772   1.467   9.136 -0.0215 -0.6243 -0.6765
   53CHL1  H16A 6350   6.831   1.505   9.050 -0.0146  0.5360 -0.1762
   53CHL1  H16B 6351   6.744   1.362   9.113  0.2330 -0.5142 -1.4906
   53CHL1   C17 6352   6.626   1.536   9.152 -0.2770  0.0627  0.5470
   53CHL1   H17 6353   6.555   1.452   9.166 -1.8568  0.9444 -1.5693
   53CHL1   C13 6354   6.637   1.614   9.284 -0.3030  0.4416 -0.0236
   53CHL1   C18 6355   6.716   1.746   9.263  0.0312  0.0092 -0.1837
   53CHL1  H18A 6356   6.766   1.765   9.361 -0.7572  0.0182  0.2201
   53CHL1  H18B 6357   6.804   1.742   9.195 -0.0328 -1.2037 -0.2273
   53CHL1  H18C 6358   6.653   1.830   9.228 -2.6030 -2.2772 -1.2605
   53CHL1   C12 6359   6.512   1.638   9.373  0.1846 -0.2332 -0.5885
   53CHL1  H12A 6360   6.451   1.712   9.317 -0.2851  0.0161  0.2440
   53CHL1  H12B 6361   6.457   1.541   9.375 -0.3592  0.0726  2.0572
   53CHL1   C11 6362   6.547   1.692   9.510 -0.1329  0.0656 -0.2535
   53CHL1  H11A 6363   6.594   1.792   9.496 -0.0135  0.1759  0.8267
   53CHL1  H11B 6364   6.459   1.714   9.575 -0.4992 -1.9494 -0.0114
   53CHL1    C9 6365   6.642   1.601   9.588  0.2185  0.3157  0.0900
   53CHL1    H9 6366   6.580   1.509   9.596 -0.1175  0.2637 -2.3457
   53CHL1   C10 6367   6.682   1.642   9.729 -0.3226 -0.3775 -0.0587
   53CHL1   C19 6368   6.728   1.795   9.721  0.4084 -0.0033 -0.1820
   53CHL1  H19A 6369   6.803   1.803   9.640 -0.8973 -0.4107 -1.4669
   53CHL1  H19B 6370   6.642   1.865   9.712  1.1654  0.6330 -3.5919
   53CHL1  H19C 6371   6.775   1.825   9.817  1.7200 -2.4115  0.0047
   53CHL1    C1 6372   6.560   1.631   9.828 -0.6460  0.2818 -0.5114
   53CHL1   H1A 6373   6.485   1.707   9.796  0.8958  1.6146 -1.0859
   53CHL1   H1B 6374   6.517   1.529   9.818 -1.6536  0.7463 -1.0564
   53CHL1    C2 6375   6.585   1.661   9.978  0.0694  0.9047  0.1464
   53CHL1   H2A 6376   6.486   1.652  10.028 -1.9088  2.8475 -3.0381
   53CHL1   H2B 6377   6.619   1.765  10.000  0.8499  0.4854  0.9769
   53CHL1   C20 6378   6.573   1.594   9.018  0.6327  0.2087  0.3646
   53CHL1   H20 6379   6.647   1.667   8.978 -1.0362  0.9464 -1.5766
   53CHL1   C21 6380   6.440   1.677   9.033 -0.0919  0.0759 -0.5346
   53CHL1  H21A 6381   6.458   1.760   9.105  1.2476  0.7771 -1.6278
   53CHL1  H21B 6382   6.351   1.619   9.064  0.5551 -1.1537 -0.9168
   53CHL1  H21C 6383   6.422   1.722   8.933  0.1495 -0.4953 -0.8417
   53CHL1   C22 6384   6.542   1.500   8.904  0.1194 -0.0275 -0.7537
   53CHL1  H22A 6385   6.612   1.413   8.906 -1.5561 -1.5161 -2.2754
   53CHL1  H22B 6386   6.441   1.455   8.910  0.2755 -0.6151 -2.0219
   53CHL1   C23 6387   6.568   1.567   8.765  0.1569  0.7443  0.1607
   53CHL1  H23A 6388   6.523   1.668   8.757  3.1017  2.0773 -1.1738
   53CHL1  H23B 6389   6.678   1.582   8.769  0.3124 -0.4461  2.2721
   53CHL1   C24 6390   6.535   1.477   8.645  0.5962 -0.0148  0.1830
   53CHL1  H24A 6391   6.612   1.399   8.625 -1.2481 -1.4686 -1.7163
   53CHL1  H24B 6392   6.448   1.411   8.666  0.8839 -0.9006 -1.2370
   53CHL1   C25 6393   6.530   1.558   8.515 -0.2178  0.1954  0.2321
   53CHL1   H25 6394   6.450   1.634   8.526 -1.6213 -1.2369  0.2830
   53CHL1   C26 6395   6.666   1.630   8.484  0.7250  0.2833  0.0105
   53CHL1  H26A 6396   6.748   1.555   8.489  0.2421 -0.3746 -1.5853
   53CHL1  H26B 6397   6.661   1.673   8.382 -0.5416  0.1859  0.0248
   53CHL1  H26C 6398   6.682   1.713   8.556  1.2972 -0.3377  0.6175
   53CHL1   C27 6399   6.492   1.463   8.401  0.7521  0.9320 -0.0341
   53CHL1  H27A 6400   6.392   1.419   8.424  0.3279  1.0734 -1.5419
   53CHL1  H27B 6401   6.478   1.509   8.301 -0.2701 -0.4905 -0.5769
   53CHL1  H27C 6402   6.563   1.380   8.386  0.7557  0.3467  2.6026
   54CHL1    C3 6403   3.677   1.246   9.965 -0.6087  0.4087 -0.3801
   54CHL1    H3 6404   3.768   1.188   9.939 -1.1768 -1.4169  1.4271
   54CHL1    O3 6405   3.706   1.286  10.098  0.5133  0.1603  0.3786
   54CHL1   H3' 6406   3.631   1.320  10.146 -0.7100 -1.8781  0.0126
   54CHL1    C4 6407   3.651   1.370   9.889 -0.2828 -0.7403 -0.1986
   54CHL1   H4A 6408   3.549   1.402   9.919  0.0705  0.8860 -0.6209
   54CHL1   H4B 6409   3.731   1.441   9.918  2.1754 -2.3135 -2.6821
   54CHL1    C5 6410   3.643   1.338   9.736 -0.5335 -0.4068  0.2096
   54CHL1    C6 6411   3.741   1.369   9.644  0.4533  0.5635  0.7349
   54CHL1    H6 6412   3.826   1.436   9.665 -0.2215  1.5686  0.3235
   54CHL1    C7 6413   3.730   1.335   9.499  0.9892  0.6932 -0.0104
   54CHL1   H7A 6414   3.757   1.429   9.447  2.6739 -0.5095 -1.4399
   54CHL1   H7B 6415   3.797   1.256   9.458  0.4459  0.1667  0.1064
   54CHL1    C8 6416   3.588   1.295   9.454 -0.6122  0.0645 -0.1099
   54CHL1    H8 6417   3.520   1.383   9.452  0.3476  0.8184 -2.1675
   54CHL1   C14 6418   3.588   1.234   9.314 -0.5381 -0.7498  0.5760
   54CHL1   H14 6419   3.675   1.165   9.311  1.7004  1.8980 -2.2982
   54CHL1   C15 6420   3.638   1.332   9.199 -0.1220  0.3409 -0.6515
   54CHL1  H15A 6421   3.570   1.421   9.197 -1.4090 -0.6063 -0.2449
   54CHL1  H15B 6422   3.745   1.359   9.196  0.0997 -0.4984 -0.4209
   54CHL1   C16 6423   3.589   1.255   9.070 -0.0291 -0.0325  0.3505
   54CHL1  H16A 6424   3.531   1.327   9.009 -4.0990 -1.0104  2.6758
   54CHL1  H16B 6425   3.677   1.214   9.015 -1.7429  0.4174 -3.0307
   54CHL1   C17 6426   3.516   1.126   9.116 -0.4966 -0.1956  0.0601
   54CHL1   H17 6427   3.596   1.050   9.130  0.9697  1.6689  2.5417
   54CHL1   C13 6428   3.467   1.165   9.260 -0.9873  0.1304 -0.4284
   54CHL1   C18 6429   3.341   1.255   9.254  0.0270 -0.0560  0.4087
   54CHL1  H18A 6430   3.363   1.334   9.179 -0.3217  0.2872  0.6651
   54CHL1  H18B 6431   3.250   1.202   9.220  1.0235 -1.2057 -0.5403
   54CHL1  H18C 6432   3.311   1.308   9.347  1.8287  1.6683  0.0817
   54CHL1   C12 6433   3.433   1.053   9.357 -0.0684 -0.3021  0.2298
   54CHL1  H12A 6434   3.334   1.013   9.325 -0.6417  2.4041 -1.7585
   54CHL1  H12B 6435   3.491   0.961   9.335 -1.3236 -0.8453 -0.9485
   54CHL1   C11 6436   3.416   1.106   9.504 -0.8269  0.7387 -0.2805
   54CHL1  H11A 6437   3.323   1.167   9.495 -0.5637  1.5919  2.0354
   54CHL1  H11B 6438   3.398   1.022   9.574  0.3953  1.1310  0.5371
   54CHL1    C9 6439   3.539   1.192   9.554  0.3718  0.4795  0.4358
   54CHL1    H9 6440   3.621   1.117   9.560 -0.2391 -0.2392 -0.0358
   54CHL1   C10 6441   3.523   1.253   9.699  0.2231  0.1313 -0.5770
   54CHL1   C19 6442   3.391   1.327   9.707  0.5831 -0.0676 -0.2492
   54CHL1  H19A 6443   3.303   1.259   9.707 -0.2746  1.0152  0.7552
   54CHL1  H19B 6444   3.384   1.399   9.791  0.3587 -0.4079  0.0285
   54CHL1  H19C 6445   3.382   1.398   9.622 -1.4997 -0.7368 -0.6504
   54CHL1    C1 6446   3.528   1.125   9.797  0.1107  0.1577  0.3157
   54CHL1   H1A 6447   3.436   1.064   9.782  1.0349 -0.9945 -0.9759
   54CHL1   H1B 6448   3.616   1.062   9.772 -0.2707 -0.6740  1.0204
   54CHL1    C2 6449   3.555   1.154   9.952  0.5320 -0.3840  0.3524
   54CHL1   H2A 6450   3.558   1.050   9.991 -1.8077 -0.5799  0.1289
   54CHL1   H2B 6451   3.465   1.204   9.994  0.7040 -0.3492  0.6868
   54CHL1   C20 6452   3.406   1.065   9.030 -0.1332 -0.4050  0.2563
   54CHL1   H20 6453   3.314   1.126   9.042 -0.4609 -0.6352 -1.0194
   54CHL1   C21 6454   3.375   0.910   9.070  0.2323 -0.6830  0.2232
   54CHL1  H21A 6455   3.287   0.877   9.011 -0.7687  0.8668  0.8018
   54CHL1  H21B 6456   3.340   0.897   9.175 -0.3131  0.4486  0.1917
   54CHL1  H21C 6457   3.454   0.836   9.043 -1.2820 -0.9947 -4.1511
   54CHL1   C22 6458   3.444   1.069   8.877  0.7831  0.4234  0.0815
   54CHL1  H22A 6459   3.360   1.014   8.829  0.0863  0.7977  0.8374
   54CHL1  H22B 6460   3.440   1.173   8.839 -1.4183 -0.7677 -3.4401
   54CHL1   C23 6461   3.575   0.994   8.844 -0.4918  0.0150  0.0392
   54CHL1  H23A 6462   3.651   1.072   8.866 -1.3209  0.6600  0.6874
   54CHL1  H23B 6463   3.595   0.906   8.908  1.2900  0.6358  0.4031
   54CHL1   C24 6464   3.574   0.957   8.700 -0.3114  0.4308  0.4517
   54CHL1  H24A 6465   3.541   1.046   8.642 -2.1928  0.9049  2.1318
   54CHL1  H24B 6466   3.679   0.933   8.675  0.0355  0.4490  1.8395
   54CHL1   C25 6467   3.499   0.832   8.658  0.5928 -0.0196  0.7533
   54CHL1   H25 6468   3.393   0.835   8.692  0.2380  1.1121 -0.3724
   54CHL1   C26 6469   3.498   0.827   8.504  0.2117 -0.1110 -0.0284
   54CHL1  H26A 6470   3.430   0.744   8.477  0.3897 -0.9270  1.8885
   54CHL1  H26B 6471   3.440   0.907   8.453 -2.8949 -3.1691 -1.7293
   54CHL1  H26C 6472   3.600   0.815   8.462  1.3550 -0.4417  2.6151
   54CHL1   C27 6473   3.567   0.706   8.724  0.6428  0.3830  0.7516
   54CHL1  H27A 6474   3.672   0.699   8.687  0.2052  1.7705 -0.8482
   54CHL1  H27B 6475   3.569   0.719   8.835  0.5786 -3.9176  1.4120
   54CHL1  H27C 6476   3.518   0.613   8.688  2.0058 -0.1990  0.3270
   55CHL1    C3 6477   2.447   6.577  10.200  0.0391 -0.0486 -0.5705
   55CHL1    H3 6478   2.550   6.558  10.164  0.0198  2.1453 -1.9495
   55CHL1    O3 6479   2.447   6.605  10.337  0.0971  0.2273 -0.2639
   55CHL1   H3' 6480   2.475   6.695  10.354  1.6615 -0.3281  0.2534
   55CHL1    C4 6481   2.397   6.698  10.117  0.3266  0.2264 -0.4378
   55CHL1   H4A 6482   2.294   6.722  10.152 -0.2269 -0.0948 -1.7722
   55CHL1   H4B 6483   2.464   6.782  10.145  1.9579 -1.1977  0.1836
   55CHL1    C5 6484   2.383   6.665   9.976 -0.9049  0.2894  0.1520
   55CHL1    C6 6485   2.424   6.755   9.887 -0.2514  0.8569 -0.0559
   55CHL1    H6 6486   2.486   6.838   9.924 -1.4045  1.4320  0.6261
   55CHL1    C7 6487   2.400   6.730   9.740  0.0772 -0.1128 -0.0147
   55CHL1   H7A 6488   2.368   6.826   9.694 -1.4115  0.5314  2.1879
   55CHL1   H7B 6489   2.498   6.696   9.700  0.4752 -2.1435  2.4580
   55CHL1    C8 6490   2.298   6.607   9.709  0.5254 -0.3482  0.2918
   55CHL1    H8 6491   2.199   6.658   9.717 -0.7358 -2.2826 -1.6697
   55CHL1   C14 6492   2.325   6.552   9.568  0.2196 -0.0918 -0.4895
   55CHL1   H14 6493   2.425   6.505   9.574 -0.1878 -0.9554 -0.2427
   55CHL1   C15 6494   2.344   6.652   9.452  0.5736  0.3701  0.0413
   55CHL1  H15A 6495   2.261   6.724   9.439 -0.4253 -0.9639 -1.3681
   55CHL1  H15B 6496   2.442   6.703   9.461  1.1668 -0.9923  1.8419
   55CHL1   C16 6497   2.346   6.557   9.326  0.1982 -0.0551 -0.3190
   55CHL1  H16A 6498   2.280   6.607   9.252  0.7508  3.1860  1.2070
   55CHL1  H16B 6499   2.451   6.543   9.293  0.3968 -2.2873  1.0291
   55CHL1   C17 6500   2.294   6.423   9.381  0.3438 -0.2656 -1.0450
   55CHL1   H17 6501   2.390   6.374   9.409 -0.2767  0.6373  3.3148
   55CHL1   C13 6502   2.222   6.447   9.516  0.7688 -0.2842  0.0831
   55CHL1   C18 6503   2.084   6.510   9.501  0.3831  0.3107  0.1163
   55CHL1  H18A 6504   2.021   6.433   9.452  0.9942  0.1661 -0.4654
   55CHL1  H18B 6505   2.032   6.536   9.595 -2.8692  1.0879 -1.7524
   55CHL1  H18C 6506   2.078   6.593   9.427 -0.9844 -0.0968 -0.2639
   55CHL1   C12 6507   2.223   6.331   9.612  0.5297 -0.4119  0.3100
   55CHL1  H12A 6508   2.144   6.259   9.582 -1.0201  1.0487  0.7501
   55CHL1  H12B 6509   2.326   6.289   9.606  0.9957  0.7763 -0.2958
   55CHL1   C11 6510   2.205   6.378   9.755 -0.2905 -0.2302  0.4028
   55CHL1  H11A 6511   2.100   6.407   9.773 -0.4077 -1.2309  1.4775
   55CHL1  H11B 6512   2.214   6.285   9.815 -2.3495 -0.1652  0.8697
   55CHL1    C9 6513   2.312   6.487   9.797  0.5096  0.0872 -0.7120
   55CHL1    H9 6514   2.416   6.455   9.777  0.1243  0.0336 -2.8951
   55CHL1   C10 6515   2.307   6.528   9.948 -0.0156 -0.5225 -0.3140
   55CHL1   C19 6516   2.162   6.551   9.983  0.1563 -0.5173  0.1625
   55CHL1  H19A 6517   2.093   6.465   9.975 -0.2907 -0.2897  1.4341
   55CHL1  H19B 6518   2.138   6.588  10.084 -0.2262  0.4723 -0.2754
   55CHL1  H19C 6519   2.123   6.631   9.916 -0.1655 -0.0045  0.9498
   55CHL1    C1 6520   2.364   6.413  10.034  0.0289  0.5471 -0.1455
   55CHL1   H1A 6521   2.318   6.312  10.027 -1.1301  1.0831 -0.4289
   55CHL1   H1B 6522   2.468   6.394   9.999  0.8263 -0.4895  2.5132
   55CHL1    C2 6523   2.371   6.452  10.182  0.7119  0.2900 -0.0014
   55CHL1   H2A 6524   2.425   6.375  10.240  0.2332  1.6380  2.3453
   55CHL1   H2B 6525   2.266   6.467  10.215  0.0772  1.3922 -2.2918
   55CHL1   C20 6526   2.226   6.330   9.280  0.6040 -0.2724  0.1798
   55CHL1   H20 6527   2.140   6.384   9.236 -0.0001 -1.5672 -0.2934
   55CHL1   C21 6528   2.170   6.192   9.321 -0.1590 -0.6475  0.6143
   55CHL1  H21A 6529   2.098   6.195   9.406 -0.1109 -1.1202  0.6781
   55CHL1  H21B 6530   2.253   6.134   9.367  2.3596  0.5760 -2.0760
   55CHL1  H21C 6531   2.116   6.141   9.238  0.0254 -0.7185  0.5396
   55CHL1   C22 6532   2.323   6.326   9.159 -0.0308  0.3433  0.1189
   55CHL1  H22A 6533   2.371   6.422   9.132 -0.0973  0.3135 -0.1105
   55CHL1  H22B 6534   2.409   6.264   9.192 -0.9928 -0.4978  1.0980
   55CHL1   C23 6535   2.270   6.267   9.033 -0.6242 -0.6090  1.1604
   55CHL1  H23A 6536   2.243   6.165   9.066 -1.6402  0.3713  3.6127
   55CHL1  H23B 6537   2.177   6.326   9.017 -0.1840  0.3429  1.9793
   55CHL1   C24 6538   2.370   6.247   8.914  0.7135  0.5291 -0.1893
   55CHL1  H24A 6539   2.396   6.351   8.887  1.5296  0.5353  0.5857
   55CHL1  H24B 6540   2.460   6.196   8.952  1.8404  1.7677 -1.1027
   55CHL1   C25 6541   2.310   6.171   8.792 -0.3797 -0.2530  0.2800
   55CHL1   H25 6542   2.224   6.232   8.757 -0.5253 -1.2576 -1.2066
   55CHL1   C26 6543   2.414   6.178   8.674 -0.0005  0.2409  0.1020
   55CHL1  H26A 6544   2.501   6.119   8.712 -0.8019 -1.3751 -0.5080
   55CHL1  H26B 6545   2.395   6.113   8.587  1.2544  0.9950 -0.7778
   55CHL1  H26C 6546   2.435   6.282   8.640  0.3064  0.4076  0.7815
   55CHL1   C27 6547   2.279   6.026   8.827  0.4878  0.1392  0.4744
   55CHL1  H27A 6548   2.267   5.973   8.730  1.3080 -2.4041  1.6757
   55CHL1  H27B 6549   2.363   5.969   8.871 -0.7096 -3.6061 -1.6381
   55CHL1  H27C 6550   2.195   6.000   8.894 -0.0554 -1.6497 -0.8147
   56CHL1    C3 6551   6.408   4.772   9.847  0.0921  0.4614  0.5409
   56CHL1    H3 6552   6.305   4.773   9.806 -1.2593  1.9834  3.6497
   56CHL1    O3 6553   6.410   4.782   9.991 -0.0156  0.0566  0.5162
   56CHL1   H3' 6554   6.392   4.694  10.024  2.4998  0.1823  2.5355
   56CHL1    C4 6555   6.474   4.639   9.803  0.2188 -0.0115 -0.5375
   56CHL1   H4A 6556   6.568   4.636   9.862 -0.8662 -0.5640  1.2583
   56CHL1   H4B 6557   6.405   4.561   9.843 -0.3554  0.0007 -1.4745
   56CHL1    C5 6558   6.503   4.641   9.657 -0.0651 -0.4017 -0.5619
   56CHL1    C6 6559   6.458   4.549   9.573  0.0851  0.8636 -0.4332
   56CHL1    H6 6560   6.399   4.469   9.621 -0.3668  1.9899  0.9566
   56CHL1    C7 6561   6.488   4.530   9.425 -0.3510 -0.1381 -0.8665
   56CHL1   H7A 6562   6.528   4.430   9.399 -0.3314 -0.5879  0.7389
   56CHL1   H7B 6563   6.390   4.541   9.374 -1.6295  0.2130  1.5124
   56CHL1    C8 6564   6.599   4.631   9.379  0.0091 -0.0960  0.5323
   56CHL1    H8 6565   6.695   4.589   9.415  0.4330 -0.6437 -1.1262
   56CHL1   C14 6566   6.610   4.638   9.226 -0.6554  0.0321 -0.0582
   56CHL1   H14 6567   6.514   4.689   9.203 -0.2508  1.7244  1.7315
   56CHL1   C15 6568   6.615   4.505   9.144  0.1880 -0.2067  0.3256
   56CHL1  H15A 6569   6.681   4.429   9.190  1.2158 -0.7876 -1.9646
   56CHL1  H15B 6570   6.509   4.476   9.125 -0.4272  1.2851  1.2660
   56CHL1   C16 6571   6.684   4.560   9.013  0.1861  0.9758  0.9038
   56CHL1  H16A 6572   6.773   4.497   8.991  0.4925  1.2519  1.3288
   56CHL1  H16B 6573   6.610   4.544   8.932  1.6921  1.4850 -0.6208
   56CHL1   C17 6574   6.709   4.711   9.027 -0.2438 -0.0148  0.1705
   56CHL1   H17 6575   6.615   4.762   8.996 -0.8499 -0.7058  0.8260
   56CHL1   C13 6576   6.724   4.730   9.179 -0.1717  0.2569  0.2045
   56CHL1   C18 6577   6.856   4.670   9.228 -0.4703  0.0089  0.5665
   56CHL1  H18A 6578   6.859   4.564   9.195 -0.0379  0.3921 -0.6935
   56CHL1  H18B 6579   6.943   4.734   9.203 -0.3091  1.2461  3.8038
   56CHL1  H18C 6580   6.856   4.666   9.339 -1.7355 -0.8893  0.5565
   56CHL1   C12 6581   6.696   4.875   9.234 -0.3370 -0.8066  1.2423
   56CHL1  H12A 6582   6.787   4.934   9.210 -1.6886  0.8101 -0.1881
   56CHL1  H12B 6583   6.608   4.924   9.188 -0.0087  0.5291  1.9586
   56CHL1   C11 6584   6.689   4.871   9.387  0.3357  0.0985 -0.1804
   56CHL1  H11A 6585   6.791   4.840   9.419  1.4687  2.0110 -1.7067
   56CHL1  H11B 6586   6.680   4.971   9.434 -1.5159 -1.2479  2.5288
   56CHL1    C9 6587   6.588   4.771   9.447 -0.1357  0.3146  0.9937
   56CHL1    H9 6588   6.488   4.802   9.412 -0.0383 -0.3465  0.0861
   56CHL1   C10 6589   6.589   4.760   9.605 -0.5310  0.6472 -0.3259
   56CHL1   C19 6590   6.740   4.735   9.656  1.2002  0.3658 -0.1228
   56CHL1  H19A 6591   6.738   4.743   9.767  2.6121 -1.1745  0.0578
   56CHL1  H19B 6592   6.780   4.635   9.629  0.6997 -0.0541  0.6719
   56CHL1  H19C 6593   6.815   4.810   9.621  2.6596 -0.0681  1.8940
   56CHL1    C1 6594   6.530   4.893   9.657  1.0785 -0.0950 -0.3854
   56CHL1   H1A 6595   6.603   4.976   9.642 -0.6449  1.7872  0.9605
   56CHL1   H1B 6596   6.451   4.912   9.582  0.2251 -1.4000  0.1514
   56CHL1    C2 6597   6.491   4.900   9.806  0.0210 -0.1938  0.3198
   56CHL1   H2A 6598   6.428   4.990   9.821  1.1262  0.8955 -1.2736
   56CHL1   H2B 6599   6.589   4.903   9.858  0.7879  1.4340 -1.1259
   56CHL1   C20 6600   6.821   4.752   8.936 -0.1547 -0.0931  0.2480
   56CHL1   H20 6601   6.907   4.692   8.972 -1.6769 -1.4727  1.7497
   56CHL1   C21 6602   6.851   4.900   8.935  0.2184  0.0904 -0.0823
   56CHL1  H21A 6603   6.888   4.937   9.033 -0.8231  0.9459  0.0071
   56CHL1  H21B 6604   6.760   4.959   8.911 -0.2390  0.5805  2.5565
   56CHL1  H21C 6605   6.932   4.932   8.866  0.4684  0.8827  0.5745
   56CHL1   C22 6606   6.809   4.703   8.791 -0.4021  0.3241  0.4288
   56CHL1  H22A 6607   6.891   4.762   8.744 -0.3576  1.7459  2.1721
   56CHL1  H22B 6608   6.828   4.594   8.788  0.0869  0.4151 -1.4474
   56CHL1   C23 6609   6.677   4.736   8.723  0.0874  0.6370  0.4436
   56CHL1  H23A 6610   6.597   4.674   8.769  0.7004 -2.1264 -1.9410
   56CHL1  H23B 6611   6.654   4.842   8.749 -1.6570  0.1039  1.2153
   56CHL1   C24 6612   6.670   4.712   8.571  0.4093  0.3782  0.3915
   56CHL1  H24A 6613   6.715   4.801   8.522  1.4752  0.4844  1.5099
   56CHL1  H24B 6614   6.737   4.624   8.557 -0.3304 -0.3312  1.2394
   56CHL1   C25 6615   6.539   4.672   8.503 -0.2733  0.3142  0.2839
   56CHL1   H25 6616   6.507   4.584   8.563  0.9043 -0.9629 -0.8966
   56CHL1   C26 6617   6.443   4.787   8.498  0.3415  0.2412  0.2716
   56CHL1  H26A 6618   6.352   4.759   8.441 -0.8083 -0.8935  2.5448
   56CHL1  H26B 6619   6.410   4.812   8.601  1.5884 -1.2416  1.0669
   56CHL1  H26C 6620   6.479   4.881   8.452 -0.8767  1.7665  2.2575
   56CHL1   C27 6621   6.582   4.615   8.367  0.2075  0.0613  0.1668
   56CHL1  H27A 6622   6.651   4.529   8.364 -1.1173 -1.0140 -0.6503
   56CHL1  H27B 6623   6.490   4.579   8.316 -0.4569 -1.0989  2.0972
   56CHL1  H27C 6624   6.626   4.695   8.303  1.7285 -1.0574 -0.2246
   57CHL1    C3 6625   2.705   6.222  10.155 -0.3015 -0.8658  1.1802
   57CHL1    H3 6626   2.682   6.313  10.096  2.1614  0.7199  2.4956
   57CHL1    O3 6627   2.718   6.264  10.288  0.3865  0.1149  0.4440
   57CHL1   H3' 6628   2.805   6.304  10.292  0.8070 -0.8137  0.8356
   57CHL1    C4 6629   2.605   6.105  10.147 -0.3673 -0.5275  0.5377
   57CHL1   H4A 6630   2.645   6.020  10.207  1.9467 -0.0893 -0.2703
   57CHL1   H4B 6631   2.505   6.141  10.180 -0.6628 -0.7888 -0.0434
   57CHL1    C5 6632   2.596   6.070   9.994  0.1660  0.0442 -0.3936
   57CHL1    C6 6633   2.479   6.067   9.926  0.2440 -0.1387 -0.1942
   57CHL1    H6 6634   2.390   6.084   9.988 -1.1138 -3.3186 -1.0741
   57CHL1    C7 6635   2.460   6.014   9.786 -0.4248  0.0466 -0.1884
   57CHL1   H7A 6636   2.369   5.950   9.785  0.0018 -0.6472  1.6479
   57CHL1   H7B 6637   2.450   6.099   9.715  1.7682 -0.2852 -0.9687
   57CHL1    C8 6638   2.582   5.937   9.730  0.5677  0.1894 -0.2318
   57CHL1    H8 6639   2.569   5.837   9.776 -0.8724  1.0408  1.3262
   57CHL1   C14 6640   2.574   5.932   9.584  0.2845 -0.1806 -0.1971
   57CHL1   H14 6641   2.580   6.038   9.551 -1.7503  0.2716  0.7116
   57CHL1   C15 6642   2.452   5.883   9.509  0.7880  0.8645  0.0240
   57CHL1  H15A 6643   2.419   5.784   9.546 -1.1297  2.1469  2.0485
   57CHL1  H15B 6644   2.368   5.957   9.507 -0.2851 -0.3171 -1.8688
   57CHL1   C16 6645   2.493   5.868   9.366 -0.0789 -0.6437 -0.3652
   57CHL1  H16A 6646   2.455   5.770   9.329  2.1278 -1.4743 -0.6256
   57CHL1  H16B 6647   2.460   5.957   9.308 -1.8299 -1.6133 -0.9228
   57CHL1   C17 6648   2.648   5.860   9.366 -0.6054 -0.5402  0.8168
   57CHL1   H17 6649   2.684   5.958   9.327 -0.3094 -0.7992  0.4283
   57CHL1   C13 6650   2.688   5.851   9.516  0.3237 -0.0502 -0.2153
   57CHL1   C18 6651   2.679   5.700   9.565  0.2752  0.5635  0.1691
   57CHL1  H18A 6652   2.772   5.642   9.549 -0.8368 -1.0994 -0.5630
   57CHL1  H18B 6653   2.663   5.696   9.675  0.9459 -0.0987  0.2511
   57CHL1  H18C 6654   2.599   5.644   9.511 -0.5687  0.2595  1.6552
   57CHL1   C12 6655   2.817   5.933   9.551 -0.1261 -0.1212  0.1673
   57CHL1  H12A 6656   2.912   5.886   9.519 -0.5116  0.5800 -2.2165
   57CHL1  H12B 6657   2.803   6.034   9.507 -0.5707 -0.8722 -1.4815
   57CHL1   C11 6658   2.836   5.939   9.703  0.7209  0.4479 -0.4040
   57CHL1  H11A 6659   2.845   5.839   9.750 -0.9346  0.8798  0.9643
   57CHL1  H11B 6660   2.937   5.982   9.721  0.7044  1.9648 -3.3905
   57CHL1    C9 6661   2.717   6.008   9.775  0.0765 -0.1118  0.3315
   57CHL1    H9 6662   2.707   6.111   9.736  4.0964 -0.2205 -1.4320
   57CHL1   C10 6663   2.727   6.020   9.934  0.2287 -0.0641 -0.4236
   57CHL1   C19 6664   2.745   5.881  10.003  0.1762 -0.4334  0.0221
   57CHL1  H19A 6665   2.762   5.888  10.113  0.0748 -0.8112  0.0643
   57CHL1  H19B 6666   2.657   5.812  10.000 -0.9435  0.8857  1.1058
   57CHL1  H19C 6667   2.831   5.829   9.956 -0.6026  0.1652 -2.1616
   57CHL1    C1 6668   2.844   6.122   9.971  0.2706 -0.7082 -0.1341
   57CHL1   H1A 6669   2.939   6.067   9.954  0.4863 -0.5879  0.6476
   57CHL1   H1B 6670   2.830   6.214   9.910  1.4213  0.0122  0.6350
   57CHL1    C2 6671   2.841   6.166  10.119  0.1755 -0.3295 -0.2383
   57CHL1   H2A 6672   2.920   6.236  10.151 -1.0027  0.3582  1.2877
   57CHL1   H2B 6673   2.844   6.068  10.172 -0.2155 -0.4072 -0.3550
   57CHL1   C20 6674   2.714   5.765   9.261 -0.0872 -0.6054 -0.0059
   57CHL1   H20 6675   2.668   5.666   9.276 -2.3936  0.0222 -2.2116
   57CHL1   C21 6676   2.866   5.748   9.291 -0.0986  0.4670  0.5118
   57CHL1  H21A 6677   2.880   5.701   9.391 -1.2706  0.8674  0.8748
   57CHL1  H21B 6678   2.915   5.848   9.298  2.9557 -1.0049  3.8956
   57CHL1  H21C 6679   2.916   5.690   9.211  0.9462 -0.1016  1.5340
   57CHL1   C22 6680   2.708   5.813   9.117 -0.2014 -0.3864 -0.7534
   57CHL1  H22A 6681   2.607   5.858   9.107 -0.0045  0.1660 -0.2651
   57CHL1  H22B 6682   2.781   5.897   9.114 -1.1175  0.6371  2.4644
   57CHL1   C23 6683   2.727   5.713   9.002  0.0158  0.0254 -0.4212
   57CHL1  H23A 6684   2.837   5.701   8.997  0.2977  0.6613  2.4716
   57CHL1  H23B 6685   2.684   5.616   9.037  2.5761 -0.7930  0.6871
   57CHL1   C24 6686   2.673   5.774   8.873  0.6454  0.4970  0.4210
   57CHL1  H24A 6687   2.562   5.772   8.869  0.6808 -0.4398 -0.5944
   57CHL1  H24B 6688   2.721   5.874   8.867  0.5430  0.4892 -0.8745
   57CHL1   C25 6689   2.717   5.692   8.751 -0.0088  0.5592  1.4238
   57CHL1   H25 6690   2.826   5.678   8.767  0.1265  0.4323  0.4264
   57CHL1   C26 6691   2.664   5.549   8.731 -0.0792 -0.7738 -0.6349
   57CHL1  H26A 6692   2.679   5.489   8.823 -0.1888  1.3540  0.8573
   57CHL1  H26B 6693   2.560   5.561   8.693  0.6914 -0.6133 -2.8169
   57CHL1  H26C 6694   2.716   5.508   8.642 -0.2946  0.2613 -1.2694
   57CHL1   C27 6695   2.699   5.772   8.621  0.0807  0.0306 -0.1196
   57CHL1  H27A 6696   2.761   5.863   8.607  2.0542 -1.4882 -1.9730
   57CHL1  H27B 6697   2.710   5.711   8.528 -0.1468  0.2130 -0.2687
   57CHL1  H27C 6698   2.593   5.806   8.612 -0.8706 -2.9757 -2.1026
   58CHL1    C3 6699   5.638   6.659  10.237 -0.2836  0.0171  0.6103
   58CHL1    H3 6700   5.624   6.551  10.213 -0.0016  0.1109  0.0108
   58CHL1    O3 6701   5.628   6.678  10.373  0.1009 -0.1596 -0.2152
   58CHL1   H3' 6702   5.627   6.774  10.384 -3.6301 -0.2022  1.3135
   58CHL1    C4 6703   5.772   6.711  10.173 -0.3215  0.1698  1.1022
   58CHL1   H4A 6704   5.794   6.819  10.189 -0.3285  0.2549  0.5613
   58CHL1   H4B 6705   5.860   6.658  10.216  1.2642  0.6277 -1.3661
   58CHL1    C5 6706   5.776   6.683  10.021 -0.2314  0.3535 -0.1381
   58CHL1    C6 6707   5.863   6.605   9.946 -0.0868 -0.0724 -0.5489
   58CHL1    H6 6708   5.955   6.571   9.997  1.5502 -0.3518 -3.4682
   58CHL1    C7 6709   5.853   6.607   9.801  0.4035  0.8672  0.6508
   58CHL1   H7A 6710   5.953   6.608   9.753 -0.4029  0.2490 -1.1236
   58CHL1   H7B 6711   5.814   6.506   9.775  0.8787  0.6288  0.8460
   58CHL1    C8 6712   5.775   6.720   9.734 -0.5836  0.8539 -0.0244
   58CHL1    H8 6713   5.835   6.811   9.755  2.0035 -0.0760 -2.7366
   58CHL1   C14 6714   5.758   6.687   9.587  1.2449 -0.5742  0.3892
   58CHL1   H14 6715   5.703   6.590   9.586  0.0794  0.0645  0.7948
   58CHL1   C15 6716   5.875   6.660   9.486 -0.6382  0.3207 -0.0164
   58CHL1  H15A 6717   5.954   6.738   9.498 -0.9421  0.4557  1.2671
   58CHL1  H15B 6718   5.930   6.566   9.502  0.2456 -0.3402 -5.2176
   58CHL1   C16 6719   5.818   6.675   9.346 -0.2749  0.0401  0.2216
   58CHL1  H16A 6720   5.877   6.743   9.282 -0.1156  0.1564  0.4915
   58CHL1  H16B 6721   5.817   6.574   9.299 -1.7874 -0.0771  0.4313
   58CHL1   C17 6722   5.668   6.723   9.368 -0.1022 -0.3858 -0.0915
   58CHL1   H17 6723   5.604   6.633   9.381 -2.9639  1.5470  0.3854
   58CHL1   C13 6724   5.666   6.785   9.510  0.1309  0.3416  0.7375
   58CHL1   C18 6725   5.732   6.923   9.494 -0.0169 -0.0565  0.0533
   58CHL1  H18A 6726   5.753   6.966   9.594 -1.0444  1.1286 -0.2174
   58CHL1  H18B 6727   5.819   6.910   9.427 -0.7110 -1.1944 -0.6670
   58CHL1  H18C 6728   5.656   6.993   9.453  0.9618  1.5088  0.8163
   58CHL1   C12 6729   5.532   6.799   9.577  0.6384  0.8035 -0.1937
   58CHL1  H12A 6730   5.461   6.870   9.528  0.1552 -0.6987 -1.8142
   58CHL1  H12B 6731   5.484   6.700   9.557 -1.2651  1.5345  0.4910
   58CHL1   C11 6732   5.541   6.819   9.730 -0.8658 -0.5787  0.6648
   58CHL1  H11A 6733   5.560   6.928   9.742 -1.1549 -0.7305  2.9183
   58CHL1  H11B 6734   5.441   6.802   9.774 -1.5590  1.2221 -0.1333
   58CHL1    C9 6735   5.636   6.726   9.806  0.1619 -0.3016  0.2135
   58CHL1    H9 6736   5.592   6.625   9.794 -1.7582  0.7499 -2.6417
   58CHL1   C10 6737   5.655   6.757   9.958  0.0592 -0.0763  0.6483
   58CHL1   C19 6738   5.683   6.915   9.962  0.0865 -0.0789  0.8462
   58CHL1  H19A 6739   5.590   6.970   9.937 -0.2061 -0.8156  0.2708
   58CHL1  H19B 6740   5.694   6.942  10.070 -0.5425 -2.0666  1.4623
   58CHL1  H19C 6741   5.762   6.951   9.893 -0.9933 -1.2914 -1.1020
   58CHL1    C1 6742   5.521   6.715  10.027 -0.2431  0.5620 -0.3879
   58CHL1   H1A 6743   5.433   6.773   9.994 -1.4608 -0.3676  1.1227
   58CHL1   H1B 6744   5.512   6.606  10.004 -0.3878  0.0324  1.9810
   58CHL1    C2 6745   5.521   6.735  10.178 -0.0087 -0.4495  0.1644
   58CHL1   H2A 6746   5.428   6.694  10.225 -0.8239  1.0508 -0.0658
   58CHL1   H2B 6747   5.508   6.842  10.203 -4.2756 -1.2642  2.3187
   58CHL1   C20 6748   5.599   6.792   9.249 -0.2339  0.0120 -0.8096
   58CHL1   H20 6749   5.523   6.865   9.282 -1.1708 -1.1156 -0.3946
   58CHL1   C21 6750   5.509   6.679   9.183 -0.0665  0.4387 -0.2192
   58CHL1  H21A 6751   5.564   6.612   9.112 -1.1192  0.5416 -1.1540
   58CHL1  H21B 6752   5.431   6.724   9.119  0.4961  0.5066 -0.8655
   58CHL1  H21C 6753   5.458   6.615   9.258  0.0911 -1.1355 -1.3888
   58CHL1   C22 6754   5.695   6.861   9.149  0.9259  0.4471 -0.2866
   58CHL1  H22A 6755   5.778   6.911   9.205  0.0051  0.7934  0.8052
   58CHL1  H22B 6756   5.735   6.791   9.072  2.9813  0.2598  0.8671
   58CHL1   C23 6757   5.631   6.985   9.087 -0.3351  0.4489 -0.1663
   58CHL1  H23A 6758   5.536   6.963   9.035  0.1316  0.4476 -1.0318
   58CHL1  H23B 6759   5.599   7.056   9.167  0.5229 -0.4351  0.9935
   58CHL1   C24 6760   5.725   7.064   8.995  0.5715 -0.6102 -0.9294
   58CHL1  H24A 6761   5.781   7.135   9.059 -0.2322 -0.4171 -0.4273
   58CHL1  H24B 6762   5.799   6.995   8.948  0.3807  0.5068 -2.9777
   58CHL1   C25 6763   5.668   7.159   8.883  0.4460  0.7856 -0.6012
   58CHL1   H25 6764   5.581   7.208   8.930  0.9624 -0.0540  1.3221
   58CHL1   C26 6765   5.767   7.271   8.845 -0.0280  0.5661  0.6535
   58CHL1  H26A 6766   5.832   7.287   8.934 -0.1399 -0.0236  0.8395
   58CHL1  H26B 6767   5.825   7.244   8.754 -0.0489  0.2435  0.7340
   58CHL1  H26C 6768   5.711   7.365   8.822 -1.9936 -0.5297  0.7809
   58CHL1   C27 6769   5.621   7.080   8.768 -0.1070  0.2030 -0.0320
   58CHL1  H27A 6770   5.692   6.997   8.745  0.4079  0.2642  1.2549
   58CHL1  H27B 6771   5.528   7.026   8.793  0.9706 -0.9813  1.5929
   58CHL1  H27C 6772   5.597   7.137   8.675  0.7056 -1.2008 -1.1488
   59CHL1    C3 6773   4.913   5.026  10.443  0.0133  0.0771 -0.5144
   59CHL1    H3 6774   4.917   5.122  10.388  1.4371  0.1194 -0.3853
   59CHL1    O3 6775   4.874   5.049  10.580 -0.0469 -0.2512  0.0370
   59CHL1   H3' 6776   4.959   5.072  10.619  1.0847 -2.1349 -1.1499
   59CHL1    C4 6777   4.805   4.923  10.389 -0.3260 -0.2734 -0.0750
   59CHL1   H4A 6778   4.818   4.829  10.448  0.1931 -0.5407 -0.6121
   59CHL1   H4B 6779   4.708   4.975  10.407  0.7027  1.7620 -0.2005
   59CHL1    C5 6780   4.841   4.904  10.244  0.1129  0.4447 -0.3407
   59CHL1    C6 6781   4.756   4.956  10.156  0.3682  0.2402 -0.4802
   59CHL1    H6 6782   4.658   4.995  10.187  0.5973 -1.1848  2.2845
   59CHL1    C7 6783   4.774   4.951  10.008 -0.8456  0.3363 -0.2139
   59CHL1   H7A 6784   4.686   4.917   9.949 -0.9764  0.8490 -0.3119
   59CHL1   H7B 6785   4.804   5.048   9.964 -0.2792  0.3831  0.2696
   59CHL1    C8 6786   4.898   4.852   9.974 -0.9782 -0.3687 -0.4253
   59CHL1    H8 6787   4.859   4.750   9.992 -1.3486 -0.1522  0.0342
   59CHL1   C14 6788   4.939   4.885   9.823  0.0657  0.2345  0.1702
   59CHL1   H14 6789   4.976   4.990   9.822  1.3792 -0.1734  1.7599
   59CHL1   C15 6790   4.824   4.882   9.725 -0.9892 -0.3914 -0.2703
   59CHL1  H15A 6791   4.752   4.801   9.747 -3.1243  1.4475 -0.1190
   59CHL1  H15B 6792   4.770   4.979   9.728  0.8499  0.6947 -0.5526
   59CHL1   C16 6793   4.889   4.848   9.584  0.1074  0.7630 -0.0693
   59CHL1  H16A 6794   4.854   4.753   9.539  0.3498  1.2182 -1.2641
   59CHL1  H16B 6795   4.873   4.933   9.514 -1.9859  1.0324  0.6603
   59CHL1   C17 6796   5.043   4.844   9.616 -0.0944  0.1361  0.0311
   59CHL1   H17 6797   5.067   4.953   9.611 -0.2108  0.2402  1.3634
   59CHL1   C13 6798   5.051   4.805   9.768 -0.3326 -0.0783  0.5291
   59CHL1   C18 6799   5.014   4.660   9.779 -0.3749 -0.1107  0.2802
   59CHL1  H18A 6800   5.009   4.616   9.881  3.1819 -2.9257 -0.5363
   59CHL1  H18B 6801   4.912   4.634   9.746 -0.2366  1.4558 -1.5459
   59CHL1  H18C 6802   5.080   4.595   9.717 -2.7559  0.5910 -3.2657
   59CHL1   C12 6803   5.173   4.843   9.858 -0.8903 -0.3692 -0.0954
   59CHL1  H12A 6804   5.265   4.783   9.840  0.4157  1.1272  1.2740
   59CHL1  H12B 6805   5.191   4.949   9.830 -2.3377 -0.1076 -0.0751
   59CHL1   C11 6806   5.146   4.822  10.018 -0.1471  0.6188  0.5004
   59CHL1  H11A 6807   5.146   4.712  10.028 -3.0534  0.4080 -0.6986
   59CHL1  H11B 6808   5.232   4.864  10.073  2.1579 -2.0870 -0.7878
   59CHL1    C9 6809   5.012   4.879  10.069 -0.4460  0.1748 -0.5405
   59CHL1    H9 6810   5.020   4.989  10.065 -1.3797  0.2515 -0.5109
   59CHL1   C10 6811   4.983   4.850  10.217  0.9387  0.3624  0.6764
   59CHL1   C19 6812   4.978   4.697  10.243 -0.0747  0.2423  0.6602
   59CHL1  H19A 6813   4.950   4.671  10.348  0.7926 -0.3940  0.7415
   59CHL1  H19B 6814   4.907   4.641  10.179  2.5115 -1.6223 -0.7225
   59CHL1  H19C 6815   5.079   4.652  10.245  0.4105  1.2670  0.0596
   59CHL1    C1 6816   5.094   4.919  10.299 -0.7931 -0.6680 -0.0564
   59CHL1   H1A 6817   5.181   4.851  10.310  0.3813  0.9798  1.6564
   59CHL1   H1B 6818   5.129   5.007  10.240  1.0932 -0.8388  0.7368
   59CHL1    C2 6819   5.055   4.955  10.441 -0.1157 -0.2635 -0.5494
   59CHL1   H2A 6820   5.127   5.021  10.494  0.0189 -0.1586 -0.8644
   59CHL1   H2B 6821   5.053   4.857  10.494  0.6200 -0.1920 -0.3770
   59CHL1   C20 6822   5.139   4.770   9.518  0.8954  0.0752 -0.1714
   59CHL1   H20 6823   5.140   4.662   9.545  2.2376  0.0948 -0.0597
   59CHL1   C21 6824   5.285   4.815   9.545 -0.1453 -0.1661 -0.0049
   59CHL1  H21A 6825   5.329   4.763   9.632  0.6338  0.2683 -0.1248
   59CHL1  H21B 6826   5.279   4.924   9.568 -0.7350 -0.4563  1.2760
   59CHL1  H21C 6827   5.362   4.800   9.466  0.5138 -1.0763  0.7957
   59CHL1   C22 6828   5.101   4.785   9.367  0.0872  1.3141 -0.1610
   59CHL1  H22A 6829   4.992   4.767   9.358 -0.0391  0.6525  2.0898
   59CHL1  H22B 6830   5.135   4.885   9.331  1.0684  0.7818 -0.7834
   59CHL1   C23 6831   5.171   4.671   9.282 -0.0186  0.1797 -0.0643
   59CHL1  H23A 6832   5.275   4.678   9.322 -0.1593 -0.0366  0.3460
   59CHL1  H23B 6833   5.125   4.574   9.308  2.8015 -0.9384  1.1392
   59CHL1   C24 6834   5.162   4.692   9.132 -0.7212 -0.8581  0.3109
   59CHL1  H24A 6835   5.056   4.673   9.104 -0.2580 -0.0598 -2.2693
   59CHL1  H24B 6836   5.191   4.795   9.099 -3.3949 -0.3536 -0.7326
   59CHL1   C25 6837   5.249   4.593   9.042  0.7199 -0.7335 -0.3652
   59CHL1   H25 6838   5.348   4.642   9.033 -0.3888  1.4704 -1.3711
   59CHL1   C26 6839   5.276   4.449   9.087 -0.2047  0.2996  0.8550
   59CHL1  H26A 6840   5.308   4.444   9.193 -2.0750 -0.1327  1.4368
   59CHL1  H26B 6841   5.186   4.388   9.062  1.0323 -1.8670  1.4189
   59CHL1  H26C 6842   5.356   4.410   9.019  0.9153  1.4754  1.4625
   59CHL1   C27 6843   5.182   4.589   8.903  0.1249  0.1996 -0.2120
   59CHL1  H27A 6844   5.242   4.521   8.839  0.9898  0.0510  0.7392
   59CHL1  H27B 6845   5.077   4.554   8.913  0.6546 -2.0833 -1.8042
   59CHL1  H27C 6846   5.198   4.689   8.858  3.1505 -0.5914 -1.0859
   60CHL1    C3 6847   3.861   2.803  10.031 -0.0381 -0.3418  0.2881
   60CHL1    H3 6848   3.925   2.712  10.041  0.9751  0.3374  0.1814
   60CHL1    O3 6849   3.861   2.885  10.144 -0.4468 -0.0123 -0.3899
   60CHL1   H3' 6850   3.777   2.878  10.189  0.0129  1.8458  0.8599
   60CHL1    C4 6851   3.910   2.895   9.916 -0.5362  0.4361  0.5710
   60CHL1   H4A 6852   3.871   2.998   9.928  0.1918  0.7269  0.4280
   60CHL1   H4B 6853   4.018   2.897   9.940 -0.6633  0.0904  1.1865
   60CHL1    C5 6854   3.892   2.838   9.775  0.0296  0.2994 -0.8737
   60CHL1    C6 6855   3.994   2.811   9.698 -0.1787 -0.8888  1.3719
   60CHL1    H6 6856   4.093   2.847   9.730 -0.3990  0.6470  0.4279
   60CHL1    C7 6857   3.983   2.764   9.561 -0.3572 -0.0762 -0.1195
   60CHL1   H7A 6858   4.037   2.832   9.491  0.6171 -1.1824 -0.4751
   60CHL1   H7B 6859   4.025   2.662   9.563  1.0576  0.4979  1.2240
   60CHL1    C8 6860   3.840   2.765   9.503 -0.2355 -0.1862 -0.3436
   60CHL1    H8 6861   3.813   2.869   9.473  0.6454  0.4637  1.0063
   60CHL1   C14 6862   3.829   2.669   9.385  0.0958  0.4043 -0.2907
   60CHL1   H14 6863   3.846   2.564   9.416 -2.1996 -0.4142 -1.5569
   60CHL1   C15 6864   3.931   2.673   9.272  0.0078  0.6454 -0.3495
   60CHL1  H15A 6865   3.953   2.779   9.246 -0.0177  0.7177 -0.0782
   60CHL1  H15B 6866   4.028   2.624   9.297  0.3770  1.4499 -0.1621
   60CHL1   C16 6867   3.868   2.601   9.159  0.3874 -0.2005 -0.5081
   60CHL1  H16A 6868   3.880   2.665   9.069 -0.0850  1.4442  0.5564
   60CHL1  H16B 6869   3.914   2.503   9.138  0.1877 -0.3158 -0.4105
   60CHL1   C17 6870   3.720   2.587   9.192  0.7319  0.6494 -0.1804
   60CHL1   H17 6871   3.700   2.482   9.219 -3.0086  1.3400  0.3755
   60CHL1   C13 6872   3.692   2.671   9.319  0.7198  0.2547  0.2658
   60CHL1   C18 6873   3.653   2.811   9.283  0.3887 -0.4654 -0.0786
   60CHL1  H18A 6874   3.645   2.878   9.371 -1.2350  0.6845 -1.0616
   60CHL1  H18B 6875   3.733   2.855   9.220  2.0049  0.3769  2.4114
   60CHL1  H18C 6876   3.550   2.812   9.243  0.1921 -1.1569  0.3758
   60CHL1   C12 6877   3.600   2.614   9.429  0.4468 -0.0724  0.3428
   60CHL1  H12A 6878   3.494   2.611   9.397  0.2367 -1.3177  1.0725
   60CHL1  H12B 6879   3.616   2.508   9.459 -1.7395  0.5449  4.6014
   60CHL1   C11 6880   3.603   2.696   9.558 -0.2720  0.4324 -0.2860
   60CHL1  H11A 6881   3.545   2.790   9.544 -0.7364  0.1880 -0.0565
   60CHL1  H11B 6882   3.537   2.645   9.631 -1.6597  1.4366 -0.7823
   60CHL1    C9 6883   3.741   2.721   9.609 -0.1316 -0.5259  0.4197
   60CHL1    H9 6884   3.778   2.621   9.640  3.3237 -0.2826 -2.3745
   60CHL1   C10 6885   3.751   2.802   9.742 -0.2277 -0.0765 -0.6798
   60CHL1   C19 6886   3.666   2.930   9.747  0.1707  0.2840  0.3802
   60CHL1  H19A 6887   3.699   3.002   9.669 -0.0983  1.7764  1.6034
   60CHL1  H19B 6888   3.559   2.907   9.727  0.1831  0.5778 -0.0624
   60CHL1  H19C 6889   3.675   2.987   9.842 -2.3739 -0.5253  1.1870
   60CHL1    C1 6890   3.706   2.702   9.858  0.9868  0.1695 -0.1187
   60CHL1   H1A 6891   3.601   2.672   9.839  0.5372  2.8024 -2.3451
   60CHL1   H1B 6892   3.772   2.612   9.848  0.3505 -0.1960 -1.2277
   60CHL1    C2 6893   3.721   2.749  10.008 -0.3177 -0.0985  0.5690
   60CHL1   H2A 6894   3.670   2.675  10.073 -0.5273 -1.7988 -1.4451
   60CHL1   H2B 6895   3.651   2.835  10.002  0.8465  0.7672 -1.5977
   60CHL1   C20 6896   3.634   2.601   9.065 -0.0730 -0.3197 -0.4444
   60CHL1   H20 6897   3.629   2.711   9.050 -0.2152 -0.0821  1.1706
   60CHL1   C21 6898   3.488   2.557   9.102 -0.5013 -0.8559  0.7970
   60CHL1  H21A 6899   3.474   2.458   9.150  0.0837 -0.4796  1.7699
   60CHL1  H21B 6900   3.426   2.557   9.010  3.5784 -0.6513 -2.2944
   60CHL1  H21C 6901   3.444   2.631   9.173 -0.5702  0.9007 -0.9752
   60CHL1   C22 6902   3.686   2.537   8.926  0.4391 -0.2557  0.0691
   60CHL1  H22A 6903   3.788   2.577   8.910  0.4153 -0.9001 -1.8363
   60CHL1  H22B 6904   3.688   2.426   8.923  0.0768 -0.2908  0.8276
   60CHL1   C23 6905   3.601   2.580   8.802 -0.7388  0.1888  0.4626
   60CHL1  H23A 6906   3.517   2.508   8.797 -1.9626  1.6700 -1.4934
   60CHL1  H23B 6907   3.564   2.681   8.831 -0.2737  0.6819 -0.5952
   60CHL1   C24 6908   3.680   2.583   8.668  0.3801 -0.1773 -0.0869
   60CHL1  H24A 6909   3.742   2.675   8.671  0.6889 -0.4080  0.5581
   60CHL1  H24B 6910   3.745   2.494   8.657 -0.3221 -0.6527 -0.4714
   60CHL1   C25 6911   3.576   2.578   8.553 -0.3032 -0.1510 -0.8879
   60CHL1   H25 6912   3.502   2.500   8.580 -0.9521  0.3452 -1.1745
   60CHL1   C26 6913   3.499   2.709   8.542 -0.5664 -0.1879 -0.2831
   60CHL1  H26A 6914   3.453   2.737   8.638  0.9852  2.9063 -0.3258
   60CHL1  H26B 6915   3.566   2.794   8.518  0.8149 -1.1461  0.0315
   60CHL1  H26C 6916   3.432   2.694   8.455  0.3851  0.1211 -1.0939
   60CHL1   C27 6917   3.648   2.548   8.424 -0.4269  0.3352 -0.5269
   60CHL1  H27A 6918   3.719   2.464   8.434  0.2101  0.6919 -1.8878
   60CHL1  H27B 6919   3.582   2.519   8.340  1.6443  0.6661 -2.3326
   60CHL1  H27C 6920   3.696   2.643   8.392  0.9438 -0.4091 -0.7312
   61CHL1    C3 6921   3.294   4.228  10.391 -0.2329  0.2164  0.3674
   61CHL1    H3 6922   3.302   4.120  10.369 -1.9218  0.2314 -0.4553
   61CHL1    O3 6923   3.245   4.249  10.522 -0.5790  0.4025  0.6332
   61CHL1   H3' 6924   3.231   4.343  10.540 -3.6011 -0.1032  1.5540
   61CHL1    C4 6925   3.433   4.287  10.360 -0.0303  0.2760 -0.0286
   61CHL1   H4A 6926   3.427   4.396  10.375 -0.2521  0.4195 -1.0676
   61CHL1   H4B 6927   3.502   4.250  10.439 -2.1282 -0.5724  1.4969
   61CHL1    C5 6928   3.480   4.258  10.222  0.0811 -0.5737 -0.1970
   61CHL1    C6 6929   3.596   4.206  10.196 -0.5179 -0.6949  0.4048
   61CHL1    H6 6930   3.669   4.185  10.275 -0.7065 -1.7139  0.3195
   61CHL1    C7 6931   3.652   4.190  10.057 -0.7701 -0.6612  0.2058
   61CHL1   H7A 6932   3.756   4.227  10.068 -0.9579  0.0751 -0.3781
   61CHL1   H7B 6933   3.664   4.083  10.028  1.9453 -0.3710 -0.0094
   61CHL1    C8 6934   3.575   4.263   9.944  0.3663  0.0817  0.1677
   61CHL1    H8 6935   3.609   4.368   9.960  1.7927 -0.7315  3.1692
   61CHL1   C14 6936   3.611   4.206   9.805  0.7018 -0.4307 -0.4095
   61CHL1   H14 6937   3.583   4.099   9.807 -2.3265  0.2563 -0.1928
   61CHL1   C15 6938   3.755   4.189   9.761 -0.3738 -0.2532  0.4287
   61CHL1  H15A 6939   3.810   4.285   9.763 -1.8396  0.6445 -0.6560
   61CHL1  H15B 6940   3.805   4.118   9.831  1.1097  1.6858  1.4388
   61CHL1   C16 6941   3.744   4.156   9.617 -0.1406  0.0333  0.2246
   61CHL1  H16A 6942   3.801   4.232   9.559 -0.6604 -0.4340 -0.9371
   61CHL1  H16B 6943   3.794   4.061   9.587 -0.2453  0.6477 -2.0553
   61CHL1   C17 6944   3.590   4.158   9.576 -0.0629  0.1639 -0.4944
   61CHL1   H17 6945   3.551   4.055   9.592  3.7936 -1.2656  0.6920
   61CHL1   C13 6946   3.532   4.251   9.684  0.2645 -0.3070  0.7334
   61CHL1   C18 6947   3.573   4.402   9.666 -0.0576 -0.0894 -0.0105
   61CHL1  H18A 6948   3.684   4.412   9.663  0.3684 -3.1192  1.4533
   61CHL1  H18B 6949   3.529   4.445   9.574  0.4779  0.0785 -0.1881
   61CHL1  H18C 6950   3.543   4.460   9.756  1.4935 -0.7532  0.9784
   61CHL1   C12 6951   3.382   4.232   9.714 -0.7430  0.2243 -0.0652
   61CHL1  H12A 6952   3.319   4.266   9.629 -2.5882 -1.9381  0.3218
   61CHL1  H12B 6953   3.367   4.123   9.731  2.3231 -0.2390  0.2119
   61CHL1   C11 6954   3.333   4.302   9.848  0.4120 -0.4380  0.7058
   61CHL1  H11A 6955   3.352   4.411   9.834 -1.3457 -0.2744 -0.7062
   61CHL1  H11B 6956   3.225   4.279   9.861 -0.4135  0.3793 -3.3924
   61CHL1    C9 6957   3.425   4.248   9.964  0.3502 -0.1197 -0.2165
   61CHL1    H9 6958   3.404   4.140   9.977 -1.3457  0.3071  0.9214
   61CHL1   C10 6959   3.387   4.306  10.108 -0.1503  0.1343 -0.0305
   61CHL1   C19 6960   3.382   4.465  10.105  0.4180  0.0070  0.7218
   61CHL1  H19A 6961   3.350   4.513  10.010  1.4240  1.7437  1.2195
   61CHL1  H19B 6962   3.317   4.518  10.178  1.7589  3.3451 -0.3032
   61CHL1  H19C 6963   3.481   4.509  10.130  0.7410 -1.0610  1.3753
   61CHL1    C1 6964   3.240   4.263  10.145  0.2027 -0.2192  0.0477
   61CHL1   H1A 6965   3.171   4.324  10.084 -0.5987  0.3294  1.4475
   61CHL1   H1B 6966   3.228   4.155  10.124 -0.0171 -0.3191  0.6556
   61CHL1    C2 6967   3.193   4.288  10.293 -0.0063  0.1921  0.3379
   61CHL1   H2A 6968   3.097   4.235  10.308  0.7267 -0.9182  1.2318
   61CHL1   H2B 6969   3.182   4.396  10.317  0.7279 -0.1777  2.5943
   61CHL1   C20 6970   3.574   4.191   9.425  0.3246  0.4753  0.8372
   61CHL1   H20 6971   3.599   4.296   9.397 -1.6929  1.3600  2.1125
   61CHL1   C21 6972   3.423   4.177   9.391  1.0585  0.0908 -0.6094
   61CHL1  H21A 6973   3.398   4.183   9.283  0.8007 -0.6986 -0.6047
   61CHL1  H21B 6974   3.377   4.267   9.437  2.0006  0.5461 -0.5422
   61CHL1  H21C 6975   3.368   4.089   9.432 -0.5992  0.8116 -1.2118
   61CHL1   C22 6976   3.650   4.080   9.345  0.6713  0.8650 -0.5529
   61CHL1  H22A 6977   3.750   4.066   9.390  0.1332  1.0036  0.7150
   61CHL1  H22B 6978   3.593   3.985   9.353 -1.3298  2.0989  0.7960
   61CHL1   C23 6979   3.677   4.117   9.196  0.2381  0.1210  0.3011
   61CHL1  H23A 6980   3.578   4.137   9.147  0.3008  0.6640  0.3957
   61CHL1  H23B 6981   3.736   4.211   9.189  2.2412 -1.0640  0.5054
   61CHL1   C24 6982   3.756   4.006   9.122  0.1928  0.2784 -0.2312
   61CHL1  H24A 6983   3.843   3.988   9.188 -0.4865  0.2074  0.6572
   61CHL1  H24B 6984   3.688   3.918   9.126 -0.0459  0.4975  0.6818
   61CHL1   C25 6985   3.791   4.052   8.976 -0.5147 -0.0300  0.0662
   61CHL1   H25 6986   3.705   4.029   8.910 -0.4033  1.7505 -0.7658
   61CHL1   C26 6987   3.831   4.200   8.966 -0.2781 -0.2041 -0.1055
   61CHL1  H26A 6988   3.752   4.268   9.004  0.2101 -0.6291  1.8168
   61CHL1  H26B 6989   3.924   4.225   9.021  0.5707 -1.2272 -1.0355
   61CHL1  H26C 6990   3.846   4.217   8.857 -2.7785 -1.6208 -0.7635
   61CHL1   C27 6991   3.903   3.958   8.928  0.4762 -0.2618  0.6674
   61CHL1  H27A 6992   3.991   3.979   8.993  0.8788  4.8551 -1.0537
   61CHL1  H27B 6993   3.865   3.854   8.933  1.6419 -0.7150  0.3235
   61CHL1  H27C 6994   3.929   3.987   8.824 -3.0726 -2.1444 -0.9039
   62CHL1    C3 6995   0.702   1.348  10.097 -0.7506  0.4168 -0.1286
   62CHL1    H3 6996   0.594   1.347  10.074 -0.5062  0.3549 -1.3144
   62CHL1    O3 6997   0.730   1.362  10.234 -0.0796 -0.4294  0.0289
   62CHL1   H3' 6998   0.719   1.271  10.263 -0.1635 -0.2836  0.4560
   62CHL1    C4 6999   0.773   1.220  10.051 -0.0089 -0.3779  0.4105
   62CHL1   H4A 7000   0.871   1.219  10.103  0.4462  0.4672 -0.3966
   62CHL1   H4B 7001   0.714   1.138  10.099 -3.1736  0.7390 -1.2880
   62CHL1    C5 7002   0.784   1.201   9.903 -0.2239  0.5027 -0.6760
   62CHL1    C6 7003   0.742   1.085   9.851  0.3330  0.1326  0.1082
   62CHL1    H6 7004   0.695   1.015   9.921  0.6580 -1.6092 -1.3311
   62CHL1    C7 7005   0.743   1.048   9.707 -0.8059 -0.4390  1.0360
   62CHL1   H7A 7006   0.772   0.946   9.675  1.3290  0.7570 -1.2300
   62CHL1   H7B 7007   0.638   1.046   9.672 -0.5355 -0.9298  0.2214
   62CHL1    C8 7008   0.838   1.148   9.622  0.3089 -0.8528 -0.0406
   62CHL1    H8 7009   0.942   1.113   9.639  0.9203 -0.4409 -2.5636
   62CHL1   C14 7010   0.805   1.138   9.469 -0.1931  0.9338  0.3264
   62CHL1   H14 7011   0.701   1.169   9.445 -0.7365 -0.7463  0.3389
   62CHL1   C15 7012   0.817   1.002   9.398  0.1223  0.3846 -0.0974
   62CHL1  H15A 7013   0.908   0.946   9.427  1.3046  0.9179 -2.4753
   62CHL1  H15B 7014   0.722   0.947   9.412 -0.3384  0.9040 -1.0406
   62CHL1   C16 7015   0.834   1.043   9.249  0.1923  0.1556  0.9286
   62CHL1  H16A 7016   0.924   0.990   9.211 -0.2396 -0.1666  0.3396
   62CHL1  H16B 7017   0.752   0.990   9.197  1.2935 -2.4456  1.6702
   62CHL1   C17 7018   0.847   1.193   9.242 -0.1912  0.1094  0.4610
   62CHL1   H17 7019   0.743   1.230   9.230 -1.1989 -2.0724  1.9099
   62CHL1   C13 7020   0.889   1.232   9.385 -0.1319  0.2740 -0.0483
   62CHL1   C18 7021   1.042   1.209   9.391  0.2818 -0.0690  0.2887
   62CHL1  H18A 7022   1.062   1.209   9.500  0.8586 -1.3648  0.1934
   62CHL1  H18B 7023   1.070   1.110   9.350  1.0689 -0.1306  0.9503
   62CHL1  H18C 7024   1.098   1.288   9.338 -1.5290  0.7885 -0.4369
   62CHL1   C12 7025   0.854   1.374   9.424  0.2249  0.1471  0.0546
   62CHL1  H12A 7026   0.910   1.457   9.376 -0.3576  1.6767  1.8680
   62CHL1  H12B 7027   0.749   1.387   9.392  1.2155 -0.8624 -4.2012
   62CHL1   C11 7028   0.879   1.393   9.576 -0.2077  0.3124 -0.3063
   62CHL1  H11A 7029   0.987   1.377   9.594  0.0130  1.3950 -0.5891
   62CHL1  H11B 7030   0.861   1.495   9.616 -4.5948  0.2093 -1.5252
   62CHL1    C9 7031   0.810   1.291   9.668 -1.0074 -0.0038 -0.5206
   62CHL1    H9 7032   0.701   1.302   9.648 -0.9700 -1.5417 -1.7905
   62CHL1   C10 7033   0.832   1.315   9.825 -0.3521  0.0906 -0.1581
   62CHL1   C19 7034   0.978   1.315   9.858  0.4925 -0.1328  0.0790
   62CHL1  H19A 7035   1.031   1.230   9.811  1.5148  0.7002 -0.3136
   62CHL1  H19B 7036   1.028   1.408   9.823 -0.7334  0.5729  0.1377
   62CHL1  H19C 7037   1.010   1.296   9.963 -0.2801  0.5852  0.4600
   62CHL1    C1 7038   0.769   1.449   9.871  0.2783  0.7428  0.3010
   62CHL1   H1A 7039   0.816   1.536   9.821 -1.6608  1.0933 -1.0332
   62CHL1   H1B 7040   0.663   1.441   9.839  0.6405 -0.7841 -0.6565
   62CHL1    C2 7041   0.770   1.474  10.025  0.8853 -0.3562 -0.0227
   62CHL1   H2A 7042   0.696   1.551  10.055  1.3240 -0.3589  1.0901
   62CHL1   H2B 7043   0.869   1.495  10.071  0.5725 -1.0317  1.0087
   62CHL1   C20 7044   0.931   1.230   9.110 -0.5044  0.0435 -0.1905
   62CHL1   H20 7045   1.034   1.191   9.127 -0.1656  0.4017 -1.2914
   62CHL1   C21 7046   0.922   1.379   9.084  0.6809  0.0507  0.1486
   62CHL1  H21A 7047   0.989   1.443   9.146  0.7179  2.1598 -1.9338
   62CHL1  H21B 7048   0.817   1.407   9.105  0.2678 -0.4388 -1.1432
   62CHL1  H21C 7049   0.956   1.400   8.981 -1.9184  1.2880 -0.5466
   62CHL1   C22 7050   0.889   1.155   8.981 -0.8393  0.1131 -0.1386
   62CHL1  H22A 7051   0.950   1.181   8.892  1.8952 -0.0957  1.5489
   62CHL1  H22B 7052   0.912   1.046   8.981  0.5108  0.3687 -1.3959
   62CHL1   C23 7053   0.747   1.176   8.930  0.3168  0.4533 -0.0445
   62CHL1  H23A 7054   0.670   1.144   9.003  0.1556  0.9373  0.0066
   62CHL1  H23B 7055   0.717   1.283   8.928 -0.7215  0.2731  2.5498
   62CHL1   C24 7056   0.715   1.112   8.798  0.3695  0.5757  0.0669
   62CHL1  H24A 7057   0.783   1.143   8.716  0.8787  2.4229  1.1219
   62CHL1  H24B 7058   0.724   1.002   8.802 -0.4869  0.4538 -0.8573
   62CHL1   C25 7059   0.573   1.135   8.739 -0.4414 -0.2178  0.1464
   62CHL1   H25 7060   0.537   1.239   8.754 -2.7984 -0.6991 -1.4948
   62CHL1   C26 7061   0.549   1.125   8.581 -0.4419 -0.1168  0.4090
   62CHL1  H26A 7062   0.597   1.207   8.523 -0.1325 -0.3710  0.2979
   62CHL1  H26B 7063   0.594   1.032   8.539  1.0125  1.2083 -1.1159
   62CHL1  H26C 7064   0.441   1.137   8.560 -0.3002 -1.6145 -1.4382
   62CHL1   C27 7065   0.477   1.032   8.798  0.1090  0.6358  0.1051
   62CHL1  H27A 7066   0.483   1.026   8.909 -1.6037 -2.3147  0.1298
   62CHL1  H27B 7067   0.371   1.042   8.769 -0.2511 -0.4635  0.9759
   62CHL1  H27C 7068   0.511   0.931   8.765 -0.4276 -0.0987  1.6802
   63CHL1    C3 7069   2.947   0.758  10.206  0.2042 -0.4536 -0.4418
   63CHL1    H3 7070   2.839   0.781  10.191 -0.1081 -0.0029  2.0754
   63CHL1    O3 7071   2.966   0.724  10.341  0.2954 -0.4619  0.0992
   63CHL1   H3' 7072   3.060   0.731  10.354  0.4216 -1.8442  0.0611
   63CHL1    C4 7073   2.994   0.641  10.122  0.0294  0.1965 -0.1994
   63CHL1   H4A 7074   3.104   0.632  10.133  0.4001  2.7034 -1.1074
   63CHL1   H4B 7075   2.946   0.548  10.158  0.5962  0.0887  0.2835
   63CHL1    C5 7076   2.957   0.658   9.979  0.0585 -0.6290 -0.4017
   63CHL1    C6 7077   2.887   0.566   9.911  0.9211  0.3493  0.0017
   63CHL1    H6 7078   2.851   0.481   9.971  1.1965  0.0123 -0.3037
   63CHL1    C7 7079   2.863   0.574   9.762  0.0933  0.1324 -0.1275
   63CHL1   H7A 7080   2.883   0.472   9.723 -0.8777 -1.2164  2.6923
   63CHL1   H7B 7081   2.760   0.613   9.750 -0.7279 -2.1728 -1.0437
   63CHL1    C8 7082   2.962   0.674   9.700  0.4973  0.3210  0.3073
   63CHL1    H8 7083   3.064   0.630   9.696  0.4409  0.2750 -2.0772
   63CHL1   C14 7084   2.907   0.700   9.562 -0.4252  0.3493  0.4257
   63CHL1   H14 7085   2.801   0.733   9.575 -0.6638 -0.9725  2.1849
   63CHL1   C15 7086   2.880   0.580   9.469  0.1245  0.6732  0.5823
   63CHL1  H15A 7087   2.975   0.523   9.465  0.9244  2.0039 -1.6209
   63CHL1  H15B 7088   2.803   0.505   9.495  1.1953  0.0464  2.0673
   63CHL1   C16 7089   2.857   0.646   9.334 -0.2376 -0.3561  0.5971
   63CHL1  H16A 7090   2.931   0.599   9.265  0.4290 -0.0978  1.1245
   63CHL1  H16B 7091   2.756   0.637   9.287  0.0242  0.7896 -0.2316
   63CHL1   C17 7092   2.901   0.799   9.340  0.1687 -0.6009 -0.0228
   63CHL1   H17 7093   2.814   0.861   9.367  1.1411  1.1292 -0.6945
   63CHL1   C13 7094   2.987   0.805   9.475  1.3554  0.2971 -0.6170
   63CHL1   C18 7095   3.129   0.746   9.447  0.3211 -0.6973 -0.8321
   63CHL1  H18A 7096   3.126   0.656   9.383  0.7276 -1.8167  0.6538
   63CHL1  H18B 7097   3.191   0.818   9.390 -0.2654  0.7080  0.2598
   63CHL1  H18C 7098   3.192   0.715   9.533  0.8007 -0.7772 -1.2105
   63CHL1   C12 7099   2.987   0.933   9.551  0.0102 -1.3389 -0.7031
   63CHL1  H12A 7100   3.036   1.014   9.492  2.2980 -1.4942  0.8380
   63CHL1  H12B 7101   2.882   0.963   9.570 -0.4383 -2.7593 -0.8554
   63CHL1   C11 7102   3.051   0.924   9.690  0.7843  0.7456  0.0532
   63CHL1  H11A 7103   3.158   0.900   9.669  0.3208 -0.1200 -1.5125
   63CHL1  H11B 7104   3.044   1.020   9.744  0.6202 -0.8868  3.1664
   63CHL1    C9 7105   2.978   0.810   9.775  0.7631  0.0528  0.7951
   63CHL1    H9 7106   2.871   0.839   9.791  0.6514 -0.5219  1.1133
   63CHL1   C10 7107   3.025   0.784   9.923 -0.7217 -0.3936  0.2535
   63CHL1   C19 7108   3.179   0.779   9.919  0.2255  0.1426  0.2080
   63CHL1  H19A 7109   3.221   0.751  10.018  0.6558  0.0676  0.0089
   63CHL1  H19B 7110   3.218   0.704   9.847  2.9208  2.5774 -1.1186
   63CHL1  H19C 7111   3.228   0.872   9.883  1.5807 -0.5505  0.1753
   63CHL1    C1 7112   2.983   0.912  10.011  0.1548  0.4748  0.1969
   63CHL1   H1A 7113   3.032   1.003   9.971  0.2678  0.1830 -0.3399
   63CHL1   H1B 7114   2.872   0.911  10.000  0.2574  1.2916 -1.1748
   63CHL1    C2 7115   3.018   0.889  10.164 -0.3208  0.2054 -0.2901
   63CHL1   H2A 7116   2.968   0.966  10.227  0.6418 -0.7064  1.6862
   63CHL1   H2B 7117   3.128   0.876  10.167 -0.3286  0.2690  0.3740
   63CHL1   C20 7118   2.972   0.861   9.216  0.5330  0.3964 -0.5264
   63CHL1   H20 7119   3.068   0.808   9.198  0.6756  0.9556 -1.4732
   63CHL1   C21 7120   3.019   1.007   9.227  0.3958  0.6125 -0.2539
   63CHL1  H21A 7121   3.114   1.019   9.283  1.7222 -0.1199 -2.2320
   63CHL1  H21B 7122   2.940   1.076   9.263  0.0357 -0.1830  0.5302
   63CHL1  H21C 7123   3.037   1.043   9.123  0.2162  1.0018 -0.1520
   63CHL1   C22 7124   2.886   0.847   9.091  0.1534  0.1189 -0.2445
   63CHL1  H22A 7125   2.799   0.779   9.105  1.2273 -0.5834  4.4908
   63CHL1  H22B 7126   2.839   0.947   9.074  0.6875  0.7850  1.8606
   63CHL1   C23 7127   2.978   0.807   8.969  0.0347 -0.5728 -0.5195
   63CHL1  H23A 7128   3.064   0.876   8.964 -1.7405  1.6649 -2.4743
   63CHL1  H23B 7129   3.006   0.701   8.988 -1.7708 -0.5384  3.3865
   63CHL1   C24 7130   2.900   0.820   8.842 -0.0632  0.2034  1.0080
   63CHL1  H24A 7131   2.812   0.753   8.840 -0.0063  0.1511  0.1644
   63CHL1  H24B 7132   2.857   0.922   8.831  1.6356  0.8697  0.1272
   63CHL1   C25 7133   2.978   0.789   8.710  0.4338 -0.1984  0.3810
   63CHL1   H25 7134   3.018   0.687   8.723  4.3373  1.0313 -0.7061
   63CHL1   C26 7135   2.880   0.799   8.591  0.3285 -0.4074 -0.0926
   63CHL1  H26A 7136   2.838   0.901   8.600 -0.7391 -0.9714  1.8800
   63CHL1  H26B 7137   2.930   0.796   8.492  2.0496 -2.8444  0.7414
   63CHL1  H26C 7138   2.803   0.721   8.609 -0.4779 -0.3333 -2.7399
   63CHL1   C27 7139   3.094   0.887   8.688 -0.3148 -0.0010 -0.3831
   63CHL1  H27A 7140   3.057   0.992   8.698  1.8160  0.9376 -1.6483
   63CHL1  H27B 7141   3.172   0.862   8.763  0.2573 -0.2692 -1.0591
   63CHL1  H27C 7142   3.127   0.859   8.586 -0.9297 -0.6689 -0.4033
   64CHL1    C3 7143   3.227   0.279   9.969 -0.3201  0.4195 -0.2715
   64CHL1    H3 7144   3.117   0.272   9.977 -0.5939  3.0808 -0.7628
   64CHL1    O3 7145   3.301   0.329  10.078  0.8854 -0.5600 -0.0136
   64CHL1   H3' 7146   3.254   0.291  10.153  0.4630  2.4335  1.4064
   64CHL1    C4 7147   3.294   0.144   9.938 -0.7500 -0.0265  0.1739
   64CHL1   H4A 7148   3.402   0.172   9.938 -0.4951 -0.9163  1.1924
   64CHL1   H4B 7149   3.275   0.079  10.026 -0.5408 -0.8081 -0.3511
   64CHL1    C5 7150   3.256   0.083   9.807 -0.3258 -0.0442  0.2502
   64CHL1    C6 7151   3.203  -0.044   9.798 -0.4312 -0.8937  0.1301
   64CHL1    H6 7152   3.201  -0.104   9.890  2.2280  0.2962  1.0820
   64CHL1    C7 7153   3.146  -0.102   9.669 -0.5833 -0.0491  0.4460
   64CHL1   H7A 7154   3.171  -0.210   9.661 -0.2808  0.1307 -1.4617
   64CHL1   H7B 7155   3.036  -0.091   9.679 -0.8004 -2.1232  0.6736
   64CHL1    C8 7156   3.197  -0.029   9.545  0.1648  0.5237  0.1866
   64CHL1    H8 7157   3.304  -0.056   9.536 -0.1595 -0.2062 -1.9871
   64CHL1   C14 7158   3.123  -0.085   9.424 -0.3989  0.4649 -0.4481
   64CHL1   H14 7159   3.018  -0.053   9.438 -1.3026 -2.3852 -0.0114
   64CHL1   C15 7160   3.113  -0.232   9.402 -0.7749  0.3812 -1.1946
   64CHL1  H15A 7161   3.212  -0.282   9.411 -1.1316 -0.1954 -0.2534
   64CHL1  H15B 7162   3.044  -0.281   9.474  1.0535 -1.6887 -0.7354
   64CHL1   C16 7163   3.072  -0.251   9.258 -0.2027 -0.6030  0.2798
   64CHL1  H16A 7164   3.145  -0.321   9.212  0.3996  0.4989 -0.4868
   64CHL1  H16B 7165   2.968  -0.291   9.249 -0.6631  0.9797 -3.0578
   64CHL1   C17 7166   3.074  -0.104   9.196  0.3259 -0.2592 -0.0129
   64CHL1   H17 7167   2.971  -0.063   9.203  0.7431  1.2607 -1.8063
   64CHL1   C13 7168   3.170  -0.027   9.289  0.8751 -0.1860  0.3699
   64CHL1   C18 7169   3.319  -0.066   9.248  0.2565  0.1989 -0.3936
   64CHL1  H18A 7170   3.386  -0.014   9.320 -0.5509  0.4431  0.1989
   64CHL1  H18B 7171   3.327  -0.177   9.238 -2.8884 -0.0144 -1.6375
   64CHL1  H18C 7172   3.341  -0.025   9.148 -1.4728 -0.6174 -1.1542
   64CHL1   C12 7173   3.147   0.120   9.296 -0.5572 -0.1321  0.3642
   64CHL1  H12A 7174   3.169   0.175   9.202  0.0405 -0.2199  0.4516
   64CHL1  H12B 7175   3.038   0.120   9.315 -0.7252 -0.8794 -0.5262
   64CHL1   C11 7176   3.225   0.180   9.423 -0.2833  0.2319  0.6012
   64CHL1  H11A 7177   3.333   0.165   9.402 -0.3161  1.6080 -0.8073
   64CHL1  H11B 7178   3.192   0.285   9.443 -1.6261 -0.0125 -0.1725
   64CHL1    C9 7179   3.187   0.121   9.557  0.1164 -0.5190  0.2620
   64CHL1    H9 7180   3.079   0.136   9.578 -0.2259 -0.9005 -1.1643
   64CHL1   C10 7181   3.267   0.173   9.677  0.5243  0.4191 -0.7853
   64CHL1   C19 7182   3.420   0.190   9.642  0.1312  0.5606 -0.4893
   64CHL1  H19A 7183   3.465   0.090   9.626  1.3248  0.7027  1.5707
   64CHL1  H19B 7184   3.416   0.252   9.550 -3.9100 -1.1656 -1.6964
   64CHL1  H19C 7185   3.479   0.235   9.725 -1.3458  4.0069 -1.1145
   64CHL1    C1 7186   3.205   0.301   9.719  0.2884  0.6486  0.0986
   64CHL1   H1A 7187   3.223   0.366   9.630  2.3140 -0.9644 -0.7553
   64CHL1   H1B 7188   3.094   0.292   9.723  0.0943  1.9979 -1.2655
   64CHL1    C2 7189   3.241   0.372   9.849 -0.0233 -0.5450 -0.4490
   64CHL1   H2A 7190   3.167   0.454   9.863  2.5743  1.6210  1.9561
   64CHL1   H2B 7191   3.346   0.405   9.830 -0.6500  1.0144 -1.4382
   64CHL1   C20 7192   3.111  -0.115   9.043  0.5780  0.3097  0.3219
   64CHL1   H20 7193   3.210  -0.165   9.035  1.3420  2.0642 -2.8901
   64CHL1   C21 7194   3.120   0.021   8.971  0.3640  0.1878  0.6552
   64CHL1  H21A 7195   3.037   0.088   9.002 -2.6797 -0.2229 -5.1680
   64CHL1  H21B 7196   3.104   0.020   8.861  0.4499  0.9879  0.6309
   64CHL1  H21C 7197   3.223   0.061   8.979  0.0383  0.7234  3.0748
   64CHL1   C22 7198   3.012  -0.196   8.951  0.7145 -0.5031 -0.7871
   64CHL1  H22A 7199   3.051  -0.184   8.848  0.1496  3.3638 -0.6792
   64CHL1  H22B 7200   3.026  -0.303   8.979 -2.0857 -0.7432 -0.0289
   64CHL1   C23 7201   2.857  -0.155   8.963  0.7137 -0.6192 -0.7173
   64CHL1  H23A 7202   2.811  -0.181   9.061  0.2343 -1.6396 -1.1985
   64CHL1  H23B 7203   2.859  -0.047   8.937 -0.0423 -0.7739 -1.4374
   64CHL1   C24 7204   2.775  -0.227   8.862 -0.3967  0.4518 -0.2527
   64CHL1  H24A 7205   2.824  -0.224   8.762  1.3561 -3.6130  0.3093
   64CHL1  H24B 7206   2.782  -0.334   8.892 -0.0070  0.8748  1.2269
   64CHL1   C25 7207   2.635  -0.174   8.855  0.5661 -0.6695  0.3297
   64CHL1   H25 7208   2.645  -0.067   8.830 -1.1658 -0.0794  1.9032
   64CHL1   C26 7209   2.558  -0.250   8.744  1.1927 -0.0016  0.0707
   64CHL1  H26A 7210   2.544  -0.358   8.765  0.1195  0.3560  1.3369
   64CHL1  H26B 7211   2.453  -0.215   8.734  1.1488 -0.6972 -2.3173
   64CHL1  H26C 7212   2.609  -0.234   8.647 -0.3793  1.9295 -0.5114
   64CHL1   C27 7213   2.553  -0.187   8.980 -0.4742  0.4324  0.2474
   64CHL1  H27A 7214   2.445  -0.171   8.960 -0.3394  0.4438 -0.4944
   64CHL1  H27B 7215   2.561  -0.287   9.027  1.4435  1.4559  2.3128
   64CHL1  H27C 7216   2.593  -0.112   9.052 -2.0900  0.4001  1.2356
   65CHL1    C3 7217   4.708   6.299  10.074 -0.4978 -0.9517 -0.2410
   65CHL1    H3 7218   4.597   6.290  10.065 -0.7541 -0.1023  1.6107
   65CHL1    O3 7219   4.748   6.319  10.208 -0.1870 -0.3855 -0.6420
   65CHL1   H3' 7220   4.689   6.276  10.270 -1.4439  3.5551  1.2646
   65CHL1    C4 7221   4.778   6.163  10.028  0.5985 -1.0296 -0.2747
   65CHL1   H4A 7222   4.885   6.177  10.057  0.1251  0.3736  0.9008
   65CHL1   H4B 7223   4.737   6.081  10.090  0.1460 -3.2716 -3.2818
   65CHL1    C5 7224   4.760   6.127   9.885  0.2806 -0.6309  0.3218
   65CHL1    C6 7225   4.704   6.012   9.849  0.2607 -0.1272 -0.1925
   65CHL1    H6 7226   4.688   5.929   9.920  1.8834 -0.7098 -0.4624
   65CHL1    C7 7227   4.670   5.977   9.705  0.7370 -0.1945 -0.1313
   65CHL1   H7A 7228   4.692   5.869   9.687  2.6593 -0.2979  2.2728
   65CHL1   H7B 7229   4.562   6.000   9.694  1.0725  0.4425 -2.9459
   65CHL1    C8 7230   4.748   6.068   9.605  0.1523  0.0804 -0.7832
   65CHL1    H8 7231   4.854   6.036   9.599 -0.1630 -1.8639  1.9866
   65CHL1   C14 7232   4.696   6.062   9.462 -0.0098 -0.6801 -0.4613
   65CHL1   H14 7233   4.599   6.114   9.465  1.3869  2.0337  1.9443
   65CHL1   C15 7234   4.670   5.924   9.410  0.2169  0.2384  0.1194
   65CHL1  H15A 7235   4.750   5.849   9.429 -0.4914 -0.3927  0.6818
   65CHL1  H15B 7236   4.578   5.886   9.460  1.4644 -4.4695 -0.7103
   65CHL1   C16 7237   4.661   5.941   9.254  0.1126  0.0985 -0.0350
   65CHL1  H16A 7238   4.740   5.879   9.207 -1.1614 -1.0732 -0.6941
   65CHL1  H16B 7239   4.564   5.909   9.210 -0.2528  3.2090 -1.8072
   65CHL1   C17 7240   4.686   6.093   9.229  0.3783  0.4679  0.9816
   65CHL1   H17 7241   4.595   6.156   9.231  0.7592  1.1492 -1.0028
   65CHL1   C13 7242   4.772   6.137   9.352  0.3340 -0.1030  0.3723
   65CHL1   C18 7243   4.917   6.086   9.340 -0.1828 -0.0223 -0.4667
   65CHL1  H18A 7244   4.925   5.979   9.314  3.1537 -0.1891  0.6473
   65CHL1  H18B 7245   4.968   6.150   9.264  0.0232  0.8198  0.3463
   65CHL1  H18C 7246   4.971   6.106   9.436 -0.2592 -0.4563 -0.3357
   65CHL1   C12 7247   4.762   6.283   9.392 -0.8203 -0.5700  0.3160
   65CHL1  H12A 7248   4.821   6.347   9.322  0.3187 -1.4529  0.4411
   65CHL1  H12B 7249   4.653   6.297   9.377 -0.7323  0.0526  0.2304
   65CHL1   C11 7250   4.812   6.315   9.535 -0.0691 -0.8026 -0.0712
   65CHL1  H11A 7251   4.922   6.304   9.538 -0.0154 -0.5721 -1.0659
   65CHL1  H11B 7252   4.778   6.420   9.550  0.1829 -0.7401  0.0783
   65CHL1    C9 7253   4.741   6.218   9.639 -0.8435 -0.1300 -0.4009
   65CHL1    H9 7254   4.636   6.252   9.641 -0.1678  2.1169 -0.4276
   65CHL1   C10 7255   4.794   6.241   9.787  0.3330 -0.7494  0.1704
   65CHL1   C19 7256   4.946   6.254   9.782  0.5853 -0.8896  0.5486
   65CHL1  H19A 7257   4.966   6.353   9.736 -0.7728  0.4706  2.6780
   65CHL1  H19B 7258   4.984   6.265   9.886 -1.0194 -0.1838  1.0863
   65CHL1  H19C 7259   4.998   6.170   9.731 -1.0239 -0.2917 -2.2602
   65CHL1    C1 7260   4.729   6.384   9.838 -0.5707  0.3041 -0.5958
   65CHL1   H1A 7261   4.776   6.464   9.776  3.3985 -3.1820 -2.6964
   65CHL1   H1B 7262   4.620   6.373   9.825 -0.9067  2.5585  0.0222
   65CHL1    C2 7263   4.755   6.410   9.988 -0.2608  0.1239  0.2699
   65CHL1   H2A 7264   4.707   6.505  10.018  1.3121  1.7308 -1.9921
   65CHL1   H2B 7265   4.866   6.418   9.996 -0.3585  0.8162  0.9888
   65CHL1   C20 7266   4.751   6.115   9.085  0.8267  0.0893 -0.7011
   65CHL1   H20 7267   4.843   6.052   9.085  2.0127  1.6052 -3.8738
   65CHL1   C21 7268   4.792   6.261   9.060  0.3822 -0.1283 -0.3307
   65CHL1  H21A 7269   4.830   6.281   8.958 -1.5075 -0.4393 -1.1374
   65CHL1  H21B 7270   4.874   6.282   9.131 -1.5946  1.4814  1.6277
   65CHL1  H21C 7271   4.711   6.329   9.093  0.7616  0.6846 -1.0276
   65CHL1   C22 7272   4.667   6.066   8.967  0.5383  0.2889  0.7350
   65CHL1  H22A 7273   4.725   6.072   8.873  1.5869  0.1719  1.3613
   65CHL1  H22B 7274   4.647   5.956   8.969  0.9627  0.1919  0.0015
   65CHL1   C23 7275   4.529   6.140   8.939 -0.7246  0.5199 -0.0010
   65CHL1  H23A 7276   4.558   6.246   8.922 -0.3940  1.0297  3.0748
   65CHL1  H23B 7277   4.492   6.112   8.838 -2.7329  0.5157  0.6896
   65CHL1   C24 7278   4.408   6.117   9.035 -0.9113  0.7178  0.4396
   65CHL1  H24A 7279   4.391   6.007   9.028  1.3995  0.3159  0.2333
   65CHL1  H24B 7280   4.412   6.163   9.136 -1.1314 -0.4781  1.0170
   65CHL1   C25 7281   4.278   6.176   8.972 -0.3830  0.7121  0.8824
   65CHL1   H25 7282   4.261   6.131   8.872 -1.5605  0.6857  1.0834
   65CHL1   C26 7283   4.141   6.140   9.041 -1.0059  0.3703 -0.6492
   65CHL1  H26A 7284   4.125   6.193   9.137 -0.4189 -0.8290  0.1377
   65CHL1  H26B 7285   4.052   6.178   8.987 -0.0111  0.0387 -2.6134
   65CHL1  H26C 7286   4.121   6.031   9.049 -2.1470  0.5905 -0.2750
   65CHL1   C27 7287   4.276   6.322   8.964  0.0318 -0.9586 -0.4311
   65CHL1  H27A 7288   4.372   6.361   8.923  0.9516 -0.7196  1.7847
   65CHL1  H27B 7289   4.200   6.370   8.900  1.4668 -0.6271 -1.9508
   65CHL1  H27C 7290   4.260   6.373   9.061 -0.4742 -2.8516  0.5342
   66CHL1    C3 7291   2.377   3.379  10.480 -0.2403  1.0763  0.7214
   66CHL1    H3 7292   2.468   3.314  10.475 -0.8749  0.2406 -0.4639
   66CHL1    O3 7293   2.331   3.390  10.608  0.1256 -0.6647 -0.3302
   66CHL1   H3' 7294   2.235   3.385  10.607  0.1469 -1.5789  0.6916
   66CHL1    C4 7295   2.414   3.520  10.423  0.1927  0.5437  0.2205
   66CHL1   H4A 7296   2.322   3.580  10.438 -0.4001  0.8604 -3.6251
   66CHL1   H4B 7297   2.486   3.570  10.491 -0.4895  1.9009 -0.0260
   66CHL1    C5 7298   2.441   3.528  10.266  0.2729 -0.3069 -0.6377
   66CHL1    C6 7299   2.549   3.581  10.221 -0.2187 -0.2222 -0.0776
   66CHL1    H6 7300   2.621   3.616  10.297 -0.3290  0.8640 -0.4592
   66CHL1    C7 7301   2.586   3.583  10.078 -0.3310  0.3497  0.0377
   66CHL1   H7A 7302   2.627   3.685  10.058  1.3188 -0.0103  1.3738
   66CHL1   H7B 7303   2.670   3.515  10.052 -1.5084 -0.4588 -1.8560
   66CHL1    C8 7304   2.478   3.542   9.978  0.0812  0.2344  0.1470
   66CHL1    H8 7305   2.415   3.633   9.968 -0.1393  0.1021  0.3380
   66CHL1   C14 7306   2.524   3.516   9.835 -0.5291  0.2985  0.7119
   66CHL1   H14 7307   2.585   3.424   9.848 -0.8897 -0.1977 -0.8509
   66CHL1   C15 7308   2.614   3.612   9.759  0.3253 -0.3754 -0.1099
   66CHL1  H15A 7309   2.559   3.707   9.778 -0.1646 -0.4363 -1.1313
   66CHL1  H15B 7310   2.721   3.612   9.787  0.1772  0.6496  0.4982
   66CHL1   C16 7311   2.595   3.572   9.608  0.2352 -0.1599  0.0244
   66CHL1  H16A 7312   2.568   3.658   9.543  1.5527  0.9263  0.8648
   66CHL1  H16B 7313   2.679   3.527   9.551 -1.3566 -1.5727 -1.3192
   66CHL1   C17 7314   2.489   3.458   9.599  0.5727  0.2051 -0.6295
   66CHL1   H17 7315   2.539   3.359   9.591 -0.1936 -0.2439  0.0233
   66CHL1   C13 7316   2.412   3.475   9.738 -1.0136  0.1439 -0.3748
   66CHL1   C18 7317   2.302   3.589   9.726  0.1602  0.4342  0.3294
   66CHL1  H18A 7318   2.221   3.553   9.660 -1.1790  2.9017  0.5077
   66CHL1  H18B 7319   2.255   3.614   9.823  1.4734  3.6106  0.2761
   66CHL1  H18C 7320   2.342   3.680   9.674 -0.8609 -1.0333 -3.3766
   66CHL1   C12 7321   2.351   3.344   9.792 -0.0920  0.2194 -0.2805
   66CHL1  H12A 7322   2.266   3.307   9.731  1.4903 -1.9243 -1.3234
   66CHL1  H12B 7323   2.427   3.264   9.784 -1.0630 -0.7996  0.4255
   66CHL1   C11 7324   2.295   3.361   9.937 -0.7324  0.0290  0.6364
   66CHL1  H11A 7325   2.203   3.420   9.919 -0.0155  0.7812 -0.7623
   66CHL1  H11B 7326   2.277   3.256   9.968  0.3302 -0.1388  0.7194
   66CHL1    C9 7327   2.395   3.428  10.038 -0.3248 -0.0353 -0.4024
   66CHL1    H9 7328   2.477   3.352  10.042 -0.0525  0.3055  2.1401
   66CHL1   C10 7329   2.336   3.453  10.178 -0.3878  0.1848 -0.2741
   66CHL1   C19 7330   2.213   3.542  10.166  0.2577  0.2054 -0.1446
   66CHL1  H19A 7331   2.239   3.632  10.106 -0.3715  0.1347 -0.5271
   66CHL1  H19B 7332   2.143   3.490  10.098  0.9309  1.4877 -1.8861
   66CHL1  H19C 7333   2.165   3.579  10.260  1.6022 -2.7320  1.8660
   66CHL1    C1 7334   2.295   3.314  10.239  0.3427  0.2221 -0.4291
   66CHL1   H1A 7335   2.210   3.281  10.176  1.0036  0.7545 -1.6290
   66CHL1   H1B 7336   2.377   3.243  10.213 -1.5665 -1.9195 -0.9134
   66CHL1    C2 7337   2.270   3.306  10.392  0.5310 -0.0525  0.4739
   66CHL1   H2A 7338   2.272   3.197  10.412 -2.1991 -0.4483 -0.9743
   66CHL1   H2B 7339   2.171   3.350  10.417  0.5759  1.7449 -2.0848
   66CHL1   C20 7340   2.404   3.458   9.470 -0.3426 -0.5795 -0.4233
   66CHL1   H20 7341   2.344   3.552   9.467 -0.9724 -0.9491  0.2800
   66CHL1   C21 7342   2.305   3.346   9.471  0.3570 -0.9117 -0.1271
   66CHL1  H21A 7343   2.222   3.378   9.539 -0.2056 -2.0943 -0.2201
   66CHL1  H21B 7344   2.342   3.248   9.508 -1.6698 -1.3600  0.8628
   66CHL1  H21C 7345   2.247   3.333   9.378 -1.3191  0.1701  0.7069
   66CHL1   C22 7346   2.494   3.465   9.346  0.4785  0.1604  0.8570
   66CHL1  H22A 7347   2.585   3.527   9.357  1.5023 -1.0058 -0.7328
   66CHL1  H22B 7348   2.516   3.356   9.338 -1.0809 -0.1061 -0.4014
   66CHL1   C23 7349   2.410   3.510   9.218 -0.0195 -0.3181 -0.7225
   66CHL1  H23A 7350   2.307   3.468   9.221  0.3380 -1.6511 -3.4394
   66CHL1  H23B 7351   2.398   3.620   9.218  0.0045 -0.3117 -1.1501
   66CHL1   C24 7352   2.467   3.456   9.087  0.4291 -0.2832  0.0573
   66CHL1  H24A 7353   2.520   3.541   9.038 -1.8333 -0.2776 -2.6183
   66CHL1  H24B 7354   2.543   3.382   9.120  2.2249  1.5846  0.2840
   66CHL1   C25 7355   2.363   3.403   8.991 -0.0281 -0.7633 -0.0184
   66CHL1   H25 7356   2.300   3.327   9.041  0.0591  0.0422  1.3660
   66CHL1   C26 7357   2.277   3.508   8.920 -0.1435  0.4796 -0.0173
   66CHL1  H26A 7358   2.190   3.539   8.981  0.3237  0.7014  0.5382
   66CHL1  H26B 7359   2.336   3.596   8.886 -1.5866  1.1354 -0.9277
   66CHL1  H26C 7360   2.233   3.472   8.825  0.4791 -0.2355 -0.0394
   66CHL1   C27 7361   2.430   3.326   8.874  0.6859 -0.4417  0.4620
   66CHL1  H27A 7362   2.494   3.237   8.896  1.5375 -0.0664 -0.4035
   66CHL1  H27B 7363   2.348   3.291   8.807  0.4575  2.0549 -0.6625
   66CHL1  H27C 7364   2.493   3.398   8.817  0.9806  0.2153  1.5922
   67CHL1    C3 7365   1.106   2.779  10.035 -0.4298  0.0413 -0.5551
   67CHL1    H3 7366   1.197   2.838  10.010 -0.0062  0.1416  1.0912
   67CHL1    O3 7367   1.093   2.760  10.177  0.7333  0.0650  0.1658
   67CHL1   H3' 7368   1.115   2.667  10.192  1.4385  0.0738 -0.7562
   67CHL1    C4 7369   0.988   2.862   9.986 -0.0691  0.1351  0.4068
   67CHL1   H4A 7370   0.889   2.815  10.007 -0.7462  0.9970 -0.6994
   67CHL1   H4B 7371   0.995   2.963  10.034  0.6431 -0.1691  0.9537
   67CHL1    C5 7372   1.007   2.877   9.838  0.6056 -0.3311 -0.1011
   67CHL1    C6 7373   1.018   2.996   9.772 -0.4527 -0.0538 -0.5566
   67CHL1    H6 7374   1.002   3.090   9.826  1.5396  0.8300 -1.3964
   67CHL1    C7 7375   1.035   3.019   9.628  0.3365  0.2059 -0.3067
   67CHL1   H7A 7376   0.962   3.097   9.596 -1.0184 -0.8284  0.1797
   67CHL1   H7B 7377   1.141   3.048   9.613  0.4990  0.0995  0.5760
   67CHL1    C8 7378   1.002   2.891   9.545 -0.0227  0.1829  0.4293
   67CHL1    H8 7379   0.891   2.883   9.549 -0.0965  0.8262 -0.2567
   67CHL1   C14 7380   1.057   2.902   9.404  0.7534 -0.2549 -0.4181
   67CHL1   H14 7381   1.168   2.908   9.406  0.9367 -1.8568  3.4695
   67CHL1   C15 7382   1.013   3.034   9.330 -0.4384  0.3019  0.9588
   67CHL1  H15A 7383   0.907   3.059   9.350 -0.8380 -0.8292  0.3427
   67CHL1  H15B 7384   1.077   3.121   9.356 -0.0294  0.8807 -1.6587
   67CHL1   C16 7385   1.028   2.984   9.186 -0.4735 -0.3046 -0.1031
   67CHL1  H16A 7386   0.930   2.994   9.135 -0.9993 -1.3482  0.6564
   67CHL1  H16B 7387   1.102   3.056   9.146  1.2699  1.0247  4.7916
   67CHL1   C17 7388   1.071   2.836   9.178 -0.0461  0.0626  0.5166
   67CHL1   H17 7389   1.181   2.831   9.165  0.1329 -0.2149  1.9839
   67CHL1   C13 7390   1.032   2.778   9.311  0.0781 -0.1766  0.4107
   67CHL1   C18 7391   0.884   2.752   9.312  0.4065  0.2579 -0.0190
   67CHL1  H18A 7392   0.864   2.661   9.251  3.6605 -0.1821 -0.6541
   67CHL1  H18B 7393   0.847   2.739   9.416  0.8521 -0.6263  0.0409
   67CHL1  H18C 7394   0.830   2.834   9.260  0.8239 -0.1287 -1.1081
   67CHL1   C12 7395   1.121   2.673   9.374 -0.3159  0.1749  0.7908
   67CHL1  H12A 7396   1.104   2.571   9.331 -0.2657  0.1849  0.7473
   67CHL1  H12B 7397   1.231   2.689   9.371 -0.0117 -1.8139 -0.5782
   67CHL1   C11 7398   1.076   2.653   9.519 -0.3615  0.1780  1.0442
   67CHL1  H11A 7399   0.980   2.598   9.514  0.3568 -1.2985  2.5217
   67CHL1  H11B 7400   1.160   2.583   9.540  1.7046  1.7766 -1.2246
   67CHL1    C9 7401   1.076   2.774   9.613  0.2963 -0.2901  0.3565
   67CHL1    H9 7402   1.185   2.794   9.618 -0.2075  3.1430  0.1114
   67CHL1   C10 7403   1.028   2.745   9.763 -0.3437 -0.4506 -0.5541
   67CHL1   C19 7404   0.894   2.677   9.759 -0.5470  0.6505  0.5350
   67CHL1  H19A 7405   0.858   2.638   9.857 -0.9425 -0.1562  0.0737
   67CHL1  H19B 7406   0.807   2.735   9.723 -0.8043 -1.3881 -2.4760
   67CHL1  H19C 7407   0.889   2.581   9.704 -1.4138  0.6216  0.6417
   67CHL1    C1 7408   1.137   2.659   9.830 -0.5764 -0.0046  0.2255
   67CHL1   H1A 7409   1.164   2.564   9.779  5.7942  0.0901  2.5399
   67CHL1   H1B 7410   1.233   2.714   9.820 -0.4638  0.6070  3.7006
   67CHL1    C2 7411   1.120   2.638   9.978  0.3894 -0.2299  0.2620
   67CHL1   H2A 7412   1.188   2.562  10.023 -2.5103 -1.9933  1.9734
   67CHL1   H2B 7413   1.025   2.582   9.993 -1.3438  2.0678 -1.4946
   67CHL1   C20 7414   1.015   2.762   9.053  0.7202 -0.2882  0.4984
   67CHL1   H20 7415   0.904   2.755   9.059  0.4662  2.4996  0.5132
   67CHL1   C21 7416   1.083   2.625   9.036  1.0228 -0.9195 -0.1756
   67CHL1  H21A 7417   1.058   2.580   8.938 -1.9039 -0.2013  0.1527
   67CHL1  H21B 7418   1.069   2.553   9.120  1.2563 -0.3156  0.3919
   67CHL1  H21C 7419   1.192   2.646   9.038  1.0074 -0.8895  0.7195
   67CHL1   C22 7420   1.017   2.845   8.919 -0.2948 -0.1375  0.3151
   67CHL1  H22A 7421   0.986   2.951   8.933  3.2558  0.8398  1.9312
   67CHL1  H22B 7422   1.123   2.864   8.894 -0.4485 -0.1611 -0.3658
   67CHL1   C23 7423   0.932   2.788   8.800  0.7068  0.3670 -0.2630
   67CHL1  H23A 7424   0.982   2.702   8.750  2.3078  1.9304 -1.4536
   67CHL1  H23B 7425   0.840   2.746   8.848 -0.4134  1.2999 -1.5064
   67CHL1   C24 7426   0.884   2.893   8.709  0.4908 -0.1586  0.3405
   67CHL1  H24A 7427   0.819   2.957   8.773  0.0342 -0.0232 -0.2532
   67CHL1  H24B 7428   0.970   2.947   8.664  0.8653 -0.7987  0.2811
   67CHL1   C25 7429   0.791   2.840   8.590 -0.5733  0.1083  0.5364
   67CHL1   H25 7430   0.768   2.930   8.529  0.7685  1.6654  2.2145
   67CHL1   C26 7431   0.858   2.740   8.494  0.0572 -0.5463  0.1875
   67CHL1  H26A 7432   0.789   2.714   8.411  0.6193  1.1572 -0.8550
   67CHL1  H26B 7433   0.953   2.781   8.454 -0.2626 -0.3723 -0.4104
   67CHL1  H26C 7434   0.872   2.645   8.550 -4.0244 -0.3316  1.9051
   67CHL1   C27 7435   0.650   2.800   8.638 -0.2312  0.0747 -0.5999
   67CHL1  H27A 7436   0.656   2.708   8.700  0.4208 -0.2946 -1.2134
   67CHL1  H27B 7437   0.616   2.890   8.695 -0.0240 -1.0422  1.3999
   67CHL1  H27C 7438   0.581   2.769   8.557 -0.1344 -0.6882 -0.3912
   68CHL1    C3 7439   6.257   5.119  10.068 -0.8996 -0.6462  0.2060
   68CHL1    H3 7440   6.291   5.027  10.015  1.5685 -0.0378  0.6420
   68CHL1    O3 7441   6.273   5.103  10.213 -0.8689  0.1657 -0.5079
   68CHL1   H3' 7442   6.231   5.183  10.246  0.9306  1.3877 -1.0596
   68CHL1    C4 7443   6.343   5.239  10.029  0.2961 -0.0946  0.3527
   68CHL1   H4A 7444   6.303   5.333  10.071  0.1809 -0.6383  1.5049
   68CHL1   H4B 7445   6.445   5.216  10.066  0.2762  1.0455  1.1445
   68CHL1    C5 7446   6.325   5.255   9.883  0.4385  0.0843  0.1394
   68CHL1    C6 7447   6.434   5.255   9.805 -0.5484  0.5112  0.3686
   68CHL1    H6 7448   6.533   5.247   9.852 -1.4348  1.9179  2.6360
   68CHL1    C7 7449   6.435   5.276   9.656 -0.3639  0.1130 -0.5904
   68CHL1   H7A 7450   6.525   5.328   9.616  0.0981  0.4561  0.8338
   68CHL1   H7B 7451   6.440   5.179   9.604 -0.9450 -0.3902  0.2682
   68CHL1    C8 7452   6.302   5.322   9.605  0.8333  0.4003 -0.1294
   68CHL1    H8 7453   6.301   5.432   9.624  1.8427  0.7299 -1.7462
   68CHL1   C14 7454   6.290   5.301   9.445  0.0283  0.0859  0.4982
   68CHL1   H14 7455   6.288   5.192   9.425 -1.0774  0.6241 -2.7784
   68CHL1   C15 7456   6.420   5.352   9.372 -0.3392 -0.3248 -0.4190
   68CHL1  H15A 7457   6.450   5.450   9.414  0.1370 -1.0709  1.0541
   68CHL1  H15B 7458   6.507   5.285   9.388  0.9570  1.5783  0.8377
   68CHL1   C16 7459   6.364   5.353   9.226  0.0725 -0.4358  1.1417
   68CHL1  H16A 7460   6.375   5.459   9.196 -0.8119 -0.3918  0.9524
   68CHL1  H16B 7461   6.409   5.282   9.154  0.3069 -0.3820  1.2331
   68CHL1   C17 7462   6.208   5.336   9.231 -0.3387  0.3529  0.2331
   68CHL1   H17 7463   6.191   5.226   9.230 -0.8812  0.3921  1.9444
   68CHL1   C13 7464   6.164   5.360   9.385 -0.5368 -0.1669  0.2915
   68CHL1   C18 7465   6.157   5.510   9.415 -0.3876 -1.4569 -0.0766
   68CHL1  H18A 7466   6.145   5.537   9.522 -0.0668  0.9853 -0.6095
   68CHL1  H18B 7467   6.248   5.552   9.367 -0.4331 -1.4376 -0.1467
   68CHL1  H18C 7468   6.072   5.565   9.370 -0.3075 -1.4468 -0.2174
   68CHL1   C12 7469   6.048   5.282   9.446 -0.5664  0.4781 -0.1205
   68CHL1  H12A 7470   5.947   5.304   9.408 -1.1627  1.7461  2.0111
   68CHL1  H12B 7471   6.059   5.174   9.420 -2.0180  0.6861 -1.7228
   68CHL1   C11 7472   6.051   5.292   9.599  1.1666  0.4192 -0.1722
   68CHL1  H11A 7473   6.037   5.400   9.617  0.4179  0.5791 -1.5346
   68CHL1  H11B 7474   5.966   5.232   9.639  1.4654 -2.0768 -2.8582
   68CHL1    C9 7475   6.179   5.249   9.670 -0.3909 -0.0834  0.6544
   68CHL1    H9 7476   6.194   5.140   9.659 -2.7296 -0.5363  1.4726
   68CHL1   C10 7477   6.184   5.265   9.821 -0.4578 -0.8846  0.1828
   68CHL1   C19 7478   6.134   5.409   9.857 -0.0534 -0.3625 -0.8303
   68CHL1  H19A 7479   6.027   5.420   9.832 -1.0040 -2.6529  1.7120
   68CHL1  H19B 7480   6.147   5.420   9.967  0.8121 -2.5119 -0.6781
   68CHL1  H19C 7481   6.191   5.493   9.811 -1.0482 -0.3817 -2.1701
   68CHL1    C1 7482   6.095   5.158   9.885  0.2466 -0.4202 -0.0609
   68CHL1   H1A 7483   5.990   5.184   9.862  0.4147  1.4996  1.1615
   68CHL1   H1B 7484   6.119   5.064   9.830 -1.3738 -0.9027  0.0323
   68CHL1    C2 7485   6.111   5.147  10.037  0.2225  0.4393  0.3197
   68CHL1   H2A 7486   6.055   5.057  10.071 -1.0434  0.4133 -1.7271
   68CHL1   H2B 7487   6.073   5.241  10.082  2.7268  3.0606 -2.6112
   68CHL1   C20 7488   6.127   5.412   9.125 -0.3078  0.0841 -0.3300
   68CHL1   H20 7489   6.138   5.521   9.142  0.5485 -0.0360 -0.1026
   68CHL1   C21 7490   5.980   5.373   9.139 -0.7005  0.2969  0.1500
   68CHL1  H21A 7491   5.979   5.263   9.127  1.1057  0.5268 -3.3709
   68CHL1  H21B 7492   5.921   5.414   9.055  0.6204  3.7736  0.7407
   68CHL1  H21C 7493   5.928   5.402   9.233  0.0965 -1.2044  1.0890
   68CHL1   C22 7494   6.185   5.385   8.978  0.0066 -0.3344 -0.4563
   68CHL1  H22A 7495   6.294   5.408   8.982  0.3963 -1.8611 -1.4723
   68CHL1  H22B 7496   6.173   5.278   8.951 -1.5710  0.2698 -2.3198
   68CHL1   C23 7497   6.123   5.473   8.875 -0.0733 -0.5565  0.6296
   68CHL1  H23A 7498   6.020   5.441   8.849 -0.5691  0.4129  1.3221
   68CHL1  H23B 7499   6.124   5.577   8.913  1.5641 -0.0853 -0.5764
   68CHL1   C24 7500   6.197   5.473   8.741 -0.0877 -0.2309  1.1352
   68CHL1  H24A 7501   6.304   5.476   8.771  0.8119 -1.5286 -1.5797
   68CHL1  H24B 7502   6.188   5.377   8.687 -1.5153  1.8324 -2.7184
   68CHL1   C25 7503   6.175   5.597   8.650  0.0163  1.2367 -0.5925
   68CHL1   H25 7504   6.168   5.681   8.722  2.1319 -0.2383  1.4794
   68CHL1   C26 7505   6.297   5.617   8.559  0.0649 -0.5280  0.4108
   68CHL1  H26A 7506   6.394   5.613   8.615  0.7522 -1.8894 -0.8086
   68CHL1  H26B 7507   6.305   5.547   8.473 -2.0773  0.0992 -0.3520
   68CHL1  H26C 7508   6.295   5.718   8.513  2.3206 -1.0738 -1.0764
   68CHL1   C27 7509   6.052   5.594   8.565  0.1038  0.3176 -0.5433
   68CHL1  H27A 7510   6.045   5.493   8.519  0.3685  1.2312 -2.6549
   68CHL1  H27B 7511   5.963   5.611   8.629 -0.6667  1.0471 -1.7841
   68CHL1  H27C 7512   6.044   5.672   8.487 -2.7673  1.7313  1.0058
   69CHL1    C3 7513   5.112   0.975   6.699  0.4192 -0.1579  0.5034
   69CHL1    H3 7514   5.220   0.992   6.717  1.1337 -3.6920  0.1601
   69CHL1    O3 7515   5.082   0.990   6.563  0.2272 -0.1150  0.2013
   69CHL1   H3' 7516   5.076   1.085   6.550  1.4851 -0.0704 -0.1319
   69CHL1    C4 7517   5.056   0.850   6.762 -0.3768  0.0623  0.4829
   69CHL1   H4A 7518   4.966   0.821   6.704  1.5888 -2.5668 -1.5429
   69CHL1   H4B 7519   5.128   0.772   6.728 -1.0115  0.7609 -2.7780
   69CHL1    C5 7520   5.053   0.848   6.910  0.8366  0.1274 -0.5564
   69CHL1    C6 7521   5.108   0.745   6.973 -0.4541  0.1312 -0.0655
   69CHL1    H6 7522   5.146   0.662   6.911 -1.3508 -2.1300  2.2778
   69CHL1    C7 7523   5.107   0.727   7.118  0.1499  0.1555 -0.0044
   69CHL1   H7A 7524   5.070   0.626   7.146 -1.3893  1.4055  2.9382
   69CHL1   H7B 7525   5.213   0.737   7.152 -0.2930 -0.3494  1.6099
   69CHL1    C8 7526   5.012   0.819   7.186 -0.5380 -0.0405  0.2234
   69CHL1    H8 7527   4.909   0.779   7.172 -1.3728  1.6190  1.2024
   69CHL1   C14 7528   5.038   0.812   7.333  0.0083  0.1949 -0.0013
   69CHL1   H14 7529   5.140   0.856   7.339 -0.1580  0.5894 -0.0214
   69CHL1   C15 7530   5.062   0.678   7.411  0.7907 -0.6177  0.1664
   69CHL1  H15A 7531   4.991   0.599   7.376  1.2260 -1.7579  1.7212
   69CHL1  H15B 7532   5.165   0.642   7.391  0.4389 -1.3818 -0.3142
   69CHL1   C16 7533   5.034   0.716   7.560  0.3457  0.6012 -0.2324
   69CHL1  H16A 7534   4.950   0.650   7.590  0.7775  0.0227 -0.2847
   69CHL1  H16B 7535   5.116   0.693   7.631 -0.4365  0.1482  0.5465
   69CHL1   C17 7536   4.997   0.870   7.559  0.3707  0.0378 -0.5657
   69CHL1   H17 7537   5.091   0.930   7.564  0.5110 -0.2551  2.2025
   69CHL1   C13 7538   4.942   0.892   7.422  0.2520 -0.3586  0.4449
   69CHL1   C18 7539   4.794   0.838   7.412 -0.1225  0.2065  0.8297
   69CHL1  H18A 7540   4.722   0.909   7.458  0.4824  0.7895  0.8947
   69CHL1  H18B 7541   4.765   0.835   7.305 -2.1767  1.9871  1.2828
   69CHL1  H18C 7542   4.771   0.741   7.462  0.0378 -0.1250  0.2667
   69CHL1   C12 7543   4.949   1.039   7.377 -0.4942  0.0853  0.3420
   69CHL1  H12A 7544   4.877   1.103   7.432 -1.2841 -1.0528  0.6731
   69CHL1  H12B 7545   5.049   1.082   7.397 -1.5956  2.1466  1.7374
   69CHL1   C11 7546   4.921   1.047   7.223 -0.4402  1.0588 -0.2319
   69CHL1  H11A 7547   4.818   1.006   7.221  0.4538 -1.3219 -0.0580
   69CHL1  H11B 7548   4.918   1.149   7.179 -3.1683  1.4056  0.5860
   69CHL1    C9 7549   5.014   0.966   7.136 -1.0269  0.5198  0.0549
   69CHL1    H9 7550   5.122   0.991   7.150 -0.0654 -2.2227 -1.6002
   69CHL1   C10 7551   4.991   0.970   6.984  0.1737 -0.0975 -0.0228
   69CHL1   C19 7552   4.845   0.971   6.960  0.5681  0.5218  0.0425
   69CHL1  H19A 7553   4.793   1.061   6.999 -0.5994  0.0622 -0.4053
   69CHL1  H19B 7554   4.813   0.977   6.854 -2.5215  0.9495  0.9095
   69CHL1  H19C 7555   4.797   0.895   7.025 -2.0204  0.2506 -2.0435
   69CHL1    C1 7556   5.056   1.097   6.917  0.0356 -0.5512  0.2952
   69CHL1   H1A 7557   5.007   1.188   6.958  1.8876  0.2734  0.7801
   69CHL1   H1B 7558   5.164   1.101   6.946 -0.1014 -2.7718  1.3263
   69CHL1    C2 7559   5.050   1.100   6.766 -0.6230  0.1002  0.1532
   69CHL1   H2A 7560   5.117   1.185   6.743  0.3079 -0.1805  1.6879
   69CHL1   H2B 7561   4.951   1.136   6.729 -1.2742 -1.4154  0.3674
   69CHL1   C20 7562   4.924   0.923   7.685 -0.0698 -1.0072 -0.9067
   69CHL1   H20 7563   4.814   0.915   7.680 -0.1087 -0.3519 -1.2496
   69CHL1   C21 7564   4.956   1.076   7.703 -0.0172 -0.1007  0.0032
   69CHL1  H21A 7565   4.906   1.128   7.618 -0.1105  0.0561  0.1562
   69CHL1  H21B 7566   5.065   1.098   7.707 -0.3353  1.8104 -0.6424
   69CHL1  H21C 7567   4.906   1.113   7.794  3.3397  1.8178  1.2665
   69CHL1   C22 7568   4.962   0.847   7.813 -0.0731  0.6988 -0.1086
   69CHL1  H22A 7569   4.934   0.740   7.804  1.1259  0.1462  1.9490
   69CHL1  H22B 7570   5.072   0.851   7.823 -0.1181  0.7732  0.3785
   69CHL1   C23 7571   4.911   0.902   7.945  0.8414  0.7683 -0.1994
   69CHL1  H23A 7572   4.942   1.008   7.958  0.7748  0.8309 -0.5200
   69CHL1  H23B 7573   4.800   0.897   7.949  0.8374 -0.2422 -1.2250
   69CHL1   C24 7574   4.953   0.824   8.069 -0.2154 -0.2926 -0.4019
   69CHL1  H24A 7575   4.914   0.720   8.063 -1.8343  0.2749 -0.0005
   69CHL1  H24B 7576   5.063   0.827   8.085 -0.4786  1.9530  1.4587
   69CHL1   C25 7577   4.877   0.865   8.204 -0.3867  0.0911 -0.1401
   69CHL1   H25 7578   4.897   0.973   8.215  1.6995 -0.4887  2.6518
   69CHL1   C26 7579   4.722   0.849   8.199  0.7520  0.4329  0.9025
   69CHL1  H26A 7580   4.658   0.918   8.141 -1.9364 -2.9605 -0.5095
   69CHL1  H26B 7581   4.696   0.746   8.169  2.2440  0.6123 -1.2523
   69CHL1  H26C 7582   4.680   0.864   8.301 -1.4292 -0.0161  0.1154
   69CHL1   C27 7583   4.936   0.789   8.320 -0.7305  0.4751  0.4796
   69CHL1  H27A 7584   5.047   0.793   8.325 -0.2476 -2.7131 -2.7940
   69CHL1  H27B 7585   4.897   0.839   8.411  0.3687 -1.2348  1.9552
   69CHL1  H27C 7586   4.907   0.682   8.318 -0.2475  0.2567  2.9565
   70CHL1    C3 7587   3.528   6.383   6.898 -0.2869  0.1652  0.3629
   70CHL1    H3 7588   3.636   6.411   6.897  0.4412 -2.3512  1.6314
   70CHL1    O3 7589   3.496   6.360   6.763  0.0727  1.0007  0.2199
   70CHL1   H3' 7590   3.481   6.265   6.755 -0.7305  1.0079  1.3045
   70CHL1    C4 7591   3.501   6.262   6.990 -0.3012  0.7357 -0.4934
   70CHL1   H4A 7592   3.395   6.229   6.992  0.0014 -0.3209  1.5408
   70CHL1   H4B 7593   3.565   6.178   6.956  1.6481  1.5807  0.9216
   70CHL1    C5 7594   3.536   6.301   7.133 -0.4403 -0.2942 -0.1409
   70CHL1    C6 7595   3.624   6.232   7.203 -0.6304 -0.3436  0.0726
   70CHL1    H6 7596   3.688   6.148   7.174 -0.1662 -0.4229  1.2791
   70CHL1    C7 7597   3.648   6.259   7.351  0.4808 -0.0894  0.1290
   70CHL1   H7A 7598   3.649   6.160   7.402 -2.0670  0.8626  2.2955
   70CHL1   H7B 7599   3.749   6.306   7.349  1.0930 -1.0070 -5.4003
   70CHL1    C8 7600   3.535   6.341   7.423 -0.3343 -1.0690 -0.1380
   70CHL1    H8 7601   3.458   6.261   7.425 -0.8937 -0.5638 -0.9613
   70CHL1   C14 7602   3.570   6.379   7.562  0.8028 -0.0520 -0.3131
   70CHL1   H14 7603   3.652   6.452   7.550 -0.3606  1.7887  2.2103
   70CHL1   C15 7604   3.636   6.276   7.655  0.0838 -0.8519  0.1331
   70CHL1  H15A 7605   3.565   6.190   7.653  1.4334 -2.0311  1.0927
   70CHL1  H15B 7606   3.737   6.243   7.624 -0.7226 -1.9867 -1.3785
   70CHL1   C16 7607   3.627   6.343   7.797 -0.3659 -0.1830  0.0717
   70CHL1  H16A 7608   3.581   6.269   7.867  0.7103 -1.7945 -0.8529
   70CHL1  H16B 7609   3.726   6.372   7.839 -0.1906  0.7336 -0.9443
   70CHL1   C17 7610   3.542   6.471   7.775 -0.4346  0.0342 -0.0172
   70CHL1   H17 7611   3.618   6.552   7.769  0.3140 -0.5605  1.0867
   70CHL1   C13 7612   3.461   6.459   7.637 -0.0395  0.3044 -0.4438
   70CHL1   C18 7613   3.336   6.370   7.664  0.3785  0.4735 -0.4086
   70CHL1  H18A 7614   3.303   6.316   7.573  0.2932  1.1018 -0.7545
   70CHL1  H18B 7615   3.364   6.287   7.731  1.2120  0.8860 -0.2234
   70CHL1  H18C 7616   3.254   6.426   7.713  0.2551  0.2985 -0.4155
   70CHL1   C12 7617   3.434   6.588   7.558 -0.0581  0.1761 -0.0606
   70CHL1  H12A 7618   3.344   6.643   7.592 -1.2076 -1.2981 -0.5719
   70CHL1  H12B 7619   3.523   6.653   7.543  1.1292 -1.5319 -0.7551
   70CHL1   C11 7620   3.399   6.552   7.407 -0.1859 -0.7767 -0.4137
   70CHL1  H11A 7621   3.301   6.500   7.415 -1.0280  0.9413  1.4251
   70CHL1  H11B 7622   3.383   6.654   7.367  0.1684 -0.4805  0.1882
   70CHL1    C9 7623   3.498   6.459   7.339 -0.5220  0.0153  0.8003
   70CHL1    H9 7624   3.589   6.519   7.317  0.0567 -1.1313 -0.0214
   70CHL1   C10 7625   3.455   6.419   7.193 -0.0488  0.0508 -1.3282
   70CHL1   C19 7626   3.306   6.378   7.194 -0.0718  0.5473  0.2280
   70CHL1  H19A 7627   3.274   6.342   7.094 -0.4482 -0.0640  0.5606
   70CHL1  H19B 7628   3.272   6.309   7.274 -1.3306 -0.1450 -0.8654
   70CHL1  H19C 7629   3.259   6.478   7.209 -1.4085 -0.4387  3.5053
   70CHL1    C1 7630   3.473   6.547   7.094 -0.2541  0.9085  0.1993
   70CHL1   H1A 7631   3.403   6.629   7.120 -2.0036 -0.7766  1.1230
   70CHL1   H1B 7632   3.579   6.577   7.102 -0.8374  2.4844  3.5726
   70CHL1    C2 7633   3.450   6.508   6.949 -0.2486  0.1439  0.5515
   70CHL1   H2A 7634   3.483   6.585   6.876 -1.3698  0.3357  0.2279
   70CHL1   H2B 7635   3.342   6.488   6.931 -0.2558  0.5925  0.0674
   70CHL1   C20 7636   3.459   6.515   7.899 -0.5118 -0.2945 -0.4603
   70CHL1   H20 7637   3.382   6.436   7.914  1.9714 -2.5822  0.9904
   70CHL1   C21 7638   3.397   6.661   7.877 -0.3616  0.3015  0.2855
   70CHL1  H21A 7639   3.474   6.730   7.838 -0.2782 -0.5687 -1.1440
   70CHL1  H21B 7640   3.361   6.700   7.974  0.6852 -0.7279  1.1228
   70CHL1  H21C 7641   3.311   6.653   7.807  0.9344 -2.0408 -1.1574
   70CHL1   C22 7642   3.540   6.524   8.030 -0.0984 -0.0533  0.1369
   70CHL1  H22A 7643   3.576   6.420   8.046 -0.3023 -0.2584 -0.6869
   70CHL1  H22B 7644   3.625   6.593   8.014 -0.8384  1.2215  1.4444
   70CHL1   C23 7645   3.475   6.557   8.163 -0.4103  0.7246 -1.1735
   70CHL1  H23A 7646   3.478   6.668   8.170  0.1247  0.6946 -0.9603
   70CHL1  H23B 7647   3.369   6.523   8.160 -0.4625  0.9092 -1.4620
   70CHL1   C24 7648   3.543   6.495   8.282  1.0631 -0.6599  0.1321
   70CHL1  H24A 7649   3.521   6.387   8.269 -2.8452 -0.2191  1.5180
   70CHL1  H24B 7650   3.651   6.518   8.275  0.5853  1.6815 -0.6090
   70CHL1   C25 7651   3.497   6.526   8.425 -0.5274  0.8902 -0.2990
   70CHL1   H25 7652   3.573   6.464   8.479 -0.0395  0.1011 -1.8163
   70CHL1   C26 7653   3.525   6.677   8.471 -0.0416  0.1355  0.5609
   70CHL1  H26A 7654   3.632   6.695   8.448 -0.4439 -0.6072 -2.3233
   70CHL1  H26B 7655   3.461   6.738   8.404  1.2049 -0.2074 -1.0353
   70CHL1  H26C 7656   3.511   6.695   8.579  1.5362  1.4863  0.5761
   70CHL1   C27 7657   3.359   6.471   8.462  0.0120  0.5820  0.2954
   70CHL1  H27A 7658   3.274   6.507   8.401 -0.2358 -0.9415 -0.2892
   70CHL1  H27B 7659   3.359   6.361   8.453  2.4293  0.5771 -0.4637
   70CHL1  H27C 7660   3.339   6.493   8.569 -1.8285 -1.0917  0.3474
   71CHL1    C3 7661   2.361   1.895   6.969  0.7404 -0.3212  0.4038
   71CHL1    H3 7662   2.267   1.862   7.019  0.8697 -1.0044  0.2007
   71CHL1    O3 7663   2.343   1.866   6.835 -0.0922  0.3780 -0.1034
   71CHL1   H3' 7664   2.311   1.775   6.839  0.7180  0.0881  0.0761
   71CHL1    C4 7665   2.389   2.041   7.002 -0.0444  0.1389  0.5527
   71CHL1   H4A 7666   2.487   2.069   6.959  0.7340  0.4289  2.3871
   71CHL1   H4B 7667   2.314   2.090   6.937 -0.3151  2.4240  2.4285
   71CHL1    C5 7668   2.386   2.060   7.150 -0.0849 -0.0552 -0.4322
   71CHL1    C6 7669   2.296   2.134   7.215  0.5473 -0.6771  0.6123
   71CHL1    H6 7670   2.218   2.191   7.163  0.4546 -0.7081  0.7173
   71CHL1    C7 7671   2.289   2.157   7.368  0.3955  0.6985  0.2455
   71CHL1   H7A 7672   2.285   2.266   7.388 -0.3158  0.8257 -0.5540
   71CHL1   H7B 7673   2.192   2.116   7.403 -0.6215  1.6194 -1.3883
   71CHL1    C8 7674   2.416   2.104   7.436 -0.3149  0.0515 -0.3309
   71CHL1    H8 7675   2.493   2.181   7.416 -1.3620  0.7962 -1.6259
   71CHL1   C14 7676   2.395   2.078   7.586 -0.2235  0.6335 -0.2537
   71CHL1   H14 7677   2.327   1.991   7.601  2.0261 -1.1972  0.0634
   71CHL1   C15 7678   2.353   2.190   7.669  0.8466 -0.4405 -0.2066
   71CHL1  H15A 7679   2.404   2.279   7.626  0.0467 -0.1204 -0.5162
   71CHL1  H15B 7680   2.246   2.215   7.655  0.7992 -1.6794 -2.6590
   71CHL1   C16 7681   2.393   2.159   7.816  0.3521  0.1196 -0.0805
   71CHL1  H16A 7682   2.462   2.238   7.852  0.3702 -0.1685  0.5290
   71CHL1  H16B 7683   2.297   2.153   7.872  0.7786 -1.1200  0.5545
   71CHL1   C17 7684   2.474   2.028   7.811 -0.3806 -0.1278  0.1092
   71CHL1   H17 7685   2.404   1.942   7.810 -0.1347 -0.3364 -1.9466
   71CHL1   C13 7686   2.520   2.031   7.666  0.3853 -0.4445 -0.3984
   71CHL1   C18 7687   2.635   2.138   7.657 -0.1727 -0.5157  0.6711
   71CHL1  H18A 7688   2.725   2.124   7.720  1.8407 -1.0621 -2.1464
   71CHL1  H18B 7689   2.671   2.146   7.552  0.7362  1.0409  1.0743
   71CHL1  H18C 7690   2.599   2.241   7.681  0.1957 -0.2109 -0.0453
   71CHL1   C12 7691   2.560   1.888   7.612  0.4010  0.5476 -0.1064
   71CHL1  H12A 7692   2.657   1.862   7.660  0.1756 -1.3181 -0.5908
   71CHL1  H12B 7693   2.470   1.831   7.644 -1.1923  3.1326  0.3650
   71CHL1   C11 7694   2.578   1.900   7.457  0.6766  0.2998 -0.1548
   71CHL1  H11A 7695   2.677   1.945   7.435  0.3793  1.0009 -0.0831
   71CHL1  H11B 7696   2.571   1.794   7.424  0.1178 -0.2797  1.7113
   71CHL1    C9 7697   2.466   1.971   7.379  0.0918 -0.1429  0.6750
   71CHL1    H9 7698   2.379   1.907   7.407  1.9804 -1.9741  2.7854
   71CHL1   C10 7699   2.488   1.975   7.223  0.6029 -0.1197  0.6469
   71CHL1   C19 7700   2.636   2.027   7.193  0.0301  0.0563  0.2325
   71CHL1  H19A 7701   2.710   1.961   7.243 -1.1086 -0.7784  0.8591
   71CHL1  H19B 7702   2.661   2.033   7.085  0.9760  3.2461  0.5281
   71CHL1  H19C 7703   2.659   2.133   7.215  0.8992 -0.0251 -0.2449
   71CHL1    C1 7704   2.483   1.831   7.174 -0.0093  0.1580  0.3452
   71CHL1   H1A 7705   2.576   1.781   7.209 -0.6692 -0.4890  1.2466
   71CHL1   H1B 7706   2.404   1.775   7.229  0.2825 -1.6922 -0.9998
   71CHL1    C2 7707   2.472   1.809   7.017 -0.5605  0.4139  0.3057
   71CHL1   H2A 7708   2.448   1.705   6.987 -1.5466  0.7460 -0.0995
   71CHL1   H2B 7709   2.562   1.849   6.965  1.2998  0.7555  3.5593
   71CHL1   C20 7710   2.568   2.019   7.932  0.4003 -0.7839 -0.4306
   71CHL1   H20 7711   2.627   2.111   7.952 -0.4007 -0.7821  2.4525
   71CHL1   C21 7712   2.670   1.906   7.929 -0.7270  0.3933 -0.0840
   71CHL1  H21A 7713   2.740   1.920   7.844 -1.0368  0.1862 -0.3720
   71CHL1  H21B 7714   2.624   1.806   7.926 -0.2798  0.1194  1.2962
   71CHL1  H21C 7715   2.722   1.915   8.027  0.5341 -3.3403 -0.2611
   71CHL1   C22 7716   2.477   2.008   8.062  0.3900 -0.2762 -0.2561
   71CHL1  H22A 7717   2.386   2.071   8.059  0.2089 -0.5546 -0.5422
   71CHL1  H22B 7718   2.435   1.906   8.048 -0.1121  0.1328 -1.9734
   71CHL1   C23 7719   2.544   2.023   8.198 -0.1067  0.9122 -0.0723
   71CHL1  H23A 7720   2.461   2.018   8.272 -2.0487 -4.8119 -2.0874
   71CHL1  H23B 7721   2.609   1.935   8.219 -1.8361 -0.9277 -1.9892
   71CHL1   C24 7722   2.636   2.147   8.222 -0.3577  0.1653  0.2838
   71CHL1  H24A 7723   2.725   2.133   8.157 -1.5717  1.9002 -1.8918
   71CHL1  H24B 7724   2.576   2.235   8.191 -2.3667 -1.0149  0.6430
   71CHL1   C25 7725   2.686   2.181   8.361  0.3293 -0.3507  0.2830
   71CHL1   H25 7726   2.749   2.095   8.394  1.3378 -0.0910 -0.9072
   71CHL1   C26 7727   2.761   2.318   8.356  0.6335  0.2724 -0.0015
   71CHL1  H26A 7728   2.782   2.343   8.462  1.7038 -0.9390  0.1000
   71CHL1  H26B 7729   2.852   2.318   8.292  1.1614 -1.1671  0.6832
   71CHL1  H26C 7730   2.694   2.397   8.317  1.0553  2.1709  2.7967
   71CHL1   C27 7731   2.568   2.205   8.460 -0.4258 -0.1353 -0.4465
   71CHL1  H27A 7732   2.496   2.283   8.428 -1.5786 -1.6256 -1.6419
   71CHL1  H27B 7733   2.517   2.107   8.469  1.8181 -1.5982 -2.4887
   71CHL1  H27C 7734   2.613   2.225   8.559  2.7836 -0.3864 -1.7501
   72CHL1    C3 7735   1.808   0.040   6.884 -0.4368  0.5030 -0.0195
   72CHL1    H3 7736   1.905   0.090   6.906 -0.4043  1.1256 -1.4532
   72CHL1    O3 7737   1.807   0.033   6.739 -0.4609 -0.1120 -0.0653
   72CHL1   H3' 7738   1.810   0.127   6.719  0.0759  0.0841  0.8634
   72CHL1    C4 7739   1.805  -0.095   6.951  0.4800 -0.3298 -0.0896
   72CHL1   H4A 7740   1.721  -0.151   6.906  0.2597 -1.1734  1.3134
   72CHL1   H4B 7741   1.891  -0.156   6.915 -1.8075 -2.3979 -2.4967
   72CHL1    C5 7742   1.798  -0.095   7.098  0.5254  0.4422 -0.0316
   72CHL1    C6 7743   1.875  -0.173   7.179  0.4649  0.0924  0.1031
   72CHL1    H6 7744   1.954  -0.238   7.139  0.2979  0.7264 -1.3305
   72CHL1    C7 7745   1.873  -0.169   7.328 -0.1036 -0.0739 -0.3343
   72CHL1   H7A 7746   1.888  -0.270   7.373 -1.1165  0.9057  2.4149
   72CHL1   H7B 7747   1.952  -0.108   7.375 -1.1387 -0.1361  1.5725
   72CHL1    C8 7748   1.741  -0.107   7.384  0.7214  0.4099 -0.5780
   72CHL1    H8 7749   1.659  -0.178   7.358  0.2917  0.6686  0.0566
   72CHL1   C14 7750   1.756  -0.085   7.535 -0.0787  0.1771 -0.0023
   72CHL1   H14 7751   1.834  -0.007   7.552 -1.3272  1.2211  1.1264
   72CHL1   C15 7752   1.819  -0.192   7.625  0.2792  0.3037  0.0051
   72CHL1  H15A 7753   1.785  -0.291   7.591  1.7694  0.7305 -3.1196
   72CHL1  H15B 7754   1.930  -0.192   7.630  0.2458 -0.9942  1.6043
   72CHL1   C16 7755   1.754  -0.157   7.762  0.0416  0.1216  0.2089
   72CHL1  H16A 7756   1.683  -0.239   7.786  0.2422  0.0117  0.4267
   72CHL1  H16B 7757   1.832  -0.164   7.840 -0.4041 -2.6605  0.5151
   72CHL1   C17 7758   1.680  -0.020   7.746 -0.1270  0.0280  0.3271
   72CHL1   H17 7759   1.762   0.053   7.763  0.2320 -0.3947  0.4472
   72CHL1   C13 7760   1.637  -0.023   7.601 -0.9378 -0.5154 -0.8507
   72CHL1   C18 7761   1.518  -0.115   7.573  0.0856  0.8431 -0.0366
   72CHL1  H18A 7762   1.480  -0.089   7.472  2.1201  1.0782 -0.7774
   72CHL1  H18B 7763   1.534  -0.224   7.581 -1.3160  0.5237 -1.1025
   72CHL1  H18C 7764   1.428  -0.083   7.630  0.1437  3.1946 -1.1284
   72CHL1   C12 7765   1.616   0.116   7.534  0.3556  0.1197  0.1634
   72CHL1  H12A 7766   1.529   0.179   7.562 -0.8697  0.8328 -4.3529
   72CHL1  H12B 7767   1.703   0.182   7.558  0.5860  0.4420 -1.4387
   72CHL1   C11 7768   1.605   0.104   7.385  0.0867  0.0608 -0.2404
   72CHL1  H11A 7769   1.503   0.061   7.372 -0.2824  0.4351  1.1809
   72CHL1  H11B 7770   1.596   0.208   7.346 -1.0206 -0.9883 -3.0359
   72CHL1    C9 7771   1.712   0.031   7.304 -0.2404 -0.0575 -0.0600
   72CHL1    H9 7772   1.802   0.095   7.320 -0.3222 -0.0234  0.2649
   72CHL1   C10 7773   1.692   0.010   7.153 -0.8547 -0.2373 -0.2492
   72CHL1   C19 7774   1.550  -0.044   7.127 -0.4150 -0.7191  0.3688
   72CHL1  H19A 7775   1.468   0.029   7.138 -0.9940 -1.3703  0.4830
   72CHL1  H19B 7776   1.529  -0.097   7.031  0.3624 -1.5283  0.6282
   72CHL1  H19C 7777   1.522  -0.117   7.205 -1.8037  0.9960  1.5352
   72CHL1    C1 7778   1.715   0.153   7.085 -0.1851 -0.3945 -0.4539
   72CHL1   H1A 7779   1.643   0.229   7.122  0.7381  0.0099  0.5649
   72CHL1   H1B 7780   1.824   0.165   7.102  0.3725 -1.7670 -2.6381
   72CHL1    C2 7781   1.705   0.136   6.932 -1.0713 -0.2439  0.3816
   72CHL1   H2A 7782   1.713   0.237   6.887  0.2573 -0.3693  0.2894
   72CHL1   H2B 7783   1.601   0.102   6.915 -0.6847 -1.6744  0.7716
   72CHL1   C20 7784   1.567   0.002   7.850 -0.3065 -0.7684  0.3388
   72CHL1   H20 7785   1.478   0.057   7.812 -0.5816  0.4711  2.6144
   72CHL1   C21 7786   1.605   0.113   7.957  0.4355  0.7209  0.1614
   72CHL1  H21A 7787   1.644   0.203   7.904 -1.9522  3.1219  2.2115
   72CHL1  H21B 7788   1.686   0.062   8.013  0.2453 -1.3375 -1.2937
   72CHL1  H21C 7789   1.520   0.150   8.018 -0.5110 -1.9721  0.6170
   72CHL1   C22 7790   1.502  -0.126   7.908  0.0468  0.0655  0.0296
   72CHL1  H22A 7791   1.466  -0.183   7.819 -0.8767  0.8475 -0.1066
   72CHL1  H22B 7792   1.573  -0.180   7.974  0.3864 -0.3965 -0.6959
   72CHL1   C23 7793   1.373  -0.094   7.992  1.5503  0.2940 -0.0309
   72CHL1  H23A 7794   1.386  -0.012   8.065  0.9294  1.4664 -1.1813
   72CHL1  H23B 7795   1.305  -0.039   7.922 -0.2232  0.5573  1.8063
   72CHL1   C24 7796   1.322  -0.217   8.070  0.1010 -0.2725 -0.7784
   72CHL1  H24A 7797   1.403  -0.231   8.144  1.5267  4.7381 -0.9760
   72CHL1  H24B 7798   1.239  -0.186   8.137  2.0412  0.3380  1.4994
   72CHL1   C25 7799   1.288  -0.345   7.993 -0.0147 -0.7020  0.5554
   72CHL1   H25 7800   1.365  -0.376   7.920  0.0982 -2.1681  1.2699
   72CHL1   C26 7801   1.257  -0.465   8.081  0.1927  0.5761 -0.1699
   72CHL1  H26A 7802   1.354  -0.496   8.126  0.2791  0.6937 -0.2737
   72CHL1  H26B 7803   1.177  -0.443   8.155 -0.1848 -2.1066  0.3450
   72CHL1  H26C 7804   1.216  -0.551   8.025 -0.1693  1.0849 -0.6920
   72CHL1   C27 7805   1.155  -0.316   7.915  0.2382  0.5160  0.2032
   72CHL1  H27A 7806   1.166  -0.232   7.842 -1.4475  0.3629 -0.2734
   72CHL1  H27B 7807   1.127  -0.400   7.848  0.2569 -1.1638  2.2104
   72CHL1  H27C 7808   1.077  -0.293   7.992 -1.8145  2.0018 -2.1384
   73CHL1    C3 7809   3.780   1.634   6.914  0.5220  0.1544  0.0925
   73CHL1    H3 7810   3.858   1.703   6.953 -0.8046  1.1972  1.0102
   73CHL1    O3 7811   3.755   1.659   6.770 -0.0030 -0.2456 -0.3840
   73CHL1   H3' 7812   3.667   1.628   6.747 -0.7770 -0.3211  2.3377
   73CHL1    C4 7813   3.811   1.479   6.922 -0.0043  0.5381 -0.3131
   73CHL1   H4A 7814   3.723   1.427   6.877  0.2188  1.9501 -2.5385
   73CHL1   H4B 7815   3.879   1.453   6.838  0.3010 -3.2232  0.9004
   73CHL1    C5 7816   3.852   1.427   7.062 -0.1761 -0.0787 -0.4695
   73CHL1    C6 7817   3.967   1.366   7.090  0.2920 -0.1143  0.4692
   73CHL1    H6 7818   4.031   1.340   7.004  1.4350 -3.1082  2.1084
   73CHL1    C7 7819   4.004   1.323   7.228  0.0024 -0.4656  0.9495
   73CHL1   H7A 7820   4.033   1.217   7.212 -0.7117 -0.3277 -1.7123
   73CHL1   H7B 7821   4.084   1.389   7.267 -1.1293  2.6561 -1.5415
   73CHL1    C8 7822   3.885   1.332   7.328  0.5864 -0.2443  0.3156
   73CHL1    H8 7823   3.822   1.242   7.310 -1.1369  0.3631  2.7013
   73CHL1   C14 7824   3.939   1.319   7.472  0.4927 -0.1119 -0.1398
   73CHL1   H14 7825   4.004   1.408   7.492 -0.0373  0.3678 -0.5161
   73CHL1   C15 7826   4.032   1.199   7.510  0.0835 -0.3235  0.5728
   73CHL1  H15A 7827   4.002   1.097   7.478  0.6956 -0.0928 -0.8355
   73CHL1  H15B 7828   4.135   1.214   7.469 -0.2758  0.3018 -0.1321
   73CHL1   C16 7829   4.032   1.197   7.663  0.1169 -0.5094 -0.4348
   73CHL1  H16A 7830   3.991   1.097   7.688 -4.5548  1.0838 -0.7099
   73CHL1  H16B 7831   4.135   1.225   7.692 -0.4984  0.9061  0.5065
   73CHL1   C17 7832   3.939   1.316   7.701  0.6638 -0.6480 -0.4119
   73CHL1   H17 7833   3.991   1.413   7.693 -0.0587 -0.1337  0.8306
   73CHL1   C13 7834   3.833   1.332   7.582 -0.7963 -0.0211 -0.0826
   73CHL1   C18 7835   3.746   1.207   7.593 -0.2287  0.4742  0.3225
   73CHL1  H18A 7836   3.685   1.201   7.501  0.6964  0.7074 -0.3204
   73CHL1  H18B 7837   3.804   1.115   7.613 -3.1260 -0.9831  2.8718
   73CHL1  H18C 7838   3.673   1.218   7.677 -1.3510  0.1796 -0.5869
   73CHL1   C12 7839   3.751   1.465   7.562  0.0030  0.4111 -0.0428
   73CHL1  H12A 7840   3.667   1.478   7.634  0.6451  2.2310  0.4204
   73CHL1  H12B 7841   3.818   1.552   7.572  0.9283 -0.0555 -1.8023
   73CHL1   C11 7842   3.690   1.462   7.424 -0.4443  0.1178  0.3668
   73CHL1  H11A 7843   3.614   1.381   7.411  0.2982 -0.3491 -1.4295
   73CHL1  H11B 7844   3.637   1.559   7.409  0.9567  0.9770  0.8393
   73CHL1    C9 7845   3.795   1.453   7.307 -0.9649  0.3717 -1.0107
   73CHL1    H9 7846   3.870   1.534   7.317  0.9472 -1.4693  0.7915
   73CHL1   C10 7847   3.740   1.464   7.169  0.0371  0.9823  0.5364
   73CHL1   C19 7848   3.634   1.359   7.137  0.1395 -0.0743 -0.0449
   73CHL1  H19A 7849   3.585   1.377   7.039 -2.4308 -0.3735  1.1030
   73CHL1  H19B 7850   3.674   1.255   7.139 -1.3016 -0.6417  1.0574
   73CHL1  H19C 7851   3.556   1.368   7.215  1.1751 -1.4234  1.2144
   73CHL1    C1 7852   3.688   1.611   7.151  0.5816  0.1988 -0.0654
   73CHL1   H1A 7853   3.590   1.615   7.204  0.1550  0.9020 -0.8717
   73CHL1   H1B 7854   3.762   1.676   7.203 -0.1159 -0.4944  1.8965
   73CHL1    C2 7855   3.654   1.657   7.004  0.0828  0.2649 -0.1579
   73CHL1   H2A 7856   3.625   1.764   7.011 -0.2609  0.2154 -0.7363
   73CHL1   H2B 7857   3.563   1.610   6.961  0.1459  0.5686 -0.6336
   73CHL1   C20 7858   3.895   1.315   7.853  0.3807 -0.0835  0.9241
   73CHL1   H20 7859   3.805   1.250   7.862  0.4336  0.1511  4.0269
   73CHL1   C21 7860   3.867   1.465   7.888 -0.0383  0.5418 -0.2866
   73CHL1  H21A 7861   3.825   1.481   7.990  0.2748  1.3592 -0.2841
   73CHL1  H21B 7862   3.792   1.498   7.813 -2.4293 -0.7173  1.3823
   73CHL1  H21C 7863   3.960   1.525   7.889  1.0775 -1.1058 -1.1483
   73CHL1   C22 7864   4.014   1.264   7.933 -0.1431  0.3100 -0.4367
   73CHL1  H22A 7865   4.021   1.157   7.903 -1.2223  0.4588 -1.2795
   73CHL1  H22B 7866   4.113   1.310   7.913  1.0953 -1.3168  1.4934
   73CHL1   C23 7867   4.007   1.275   8.090  0.2530  0.1481  0.4998
   73CHL1  H23A 7868   4.104   1.233   8.124  0.6742  0.1945 -0.6297
   73CHL1  H23B 7869   3.996   1.375   8.136 -0.7595  0.1076  0.3626
   73CHL1   C24 7870   3.893   1.191   8.131 -0.5023 -0.3911 -0.0534
   73CHL1  H24A 7871   3.798   1.242   8.108 -2.6946 -4.1570 -0.2535
   73CHL1  H24B 7872   3.880   1.098   8.071 -2.8393  1.0251 -1.8952
   73CHL1   C25 7873   3.891   1.153   8.283 -0.0120  0.3861 -0.2470
   73CHL1   H25 7874   3.885   1.251   8.337 -2.6483 -0.7654  1.7545
   73CHL1   C26 7875   3.763   1.079   8.328  0.2284  0.2192  0.1191
   73CHL1  H26A 7876   3.680   1.153   8.328 -0.2284 -0.2556  1.6342
   73CHL1  H26B 7877   3.731   0.986   8.275 -0.6184  0.7784 -0.3575
   73CHL1  H26C 7878   3.784   1.056   8.435  2.8263  0.7229 -0.2054
   73CHL1   C27 7879   4.011   1.065   8.326  0.1916  0.8031  0.2867
   73CHL1  H27A 7880   4.009   0.973   8.264  1.2420  1.9411 -1.5629
   73CHL1  H27B 7881   4.111   1.110   8.307  0.7020 -1.0195 -1.8603
   73CHL1  H27C 7882   4.001   1.041   8.433  0.1507 -2.7714 -0.4177
   74CHL1    C3 7883   3.007   6.837   6.908  0.2245  0.1587 -0.6187
   74CHL1    H3 7884   2.984   6.730   6.930 -2.9065  0.7236 -0.6679
   74CHL1    O3 7885   3.015   6.851   6.766 -0.0858 -0.8017 -0.1947
   74CHL1   H3' 7886   3.097   6.817   6.730  0.0445  2.0377 -3.0679
   74CHL1    C4 7887   2.883   6.915   6.956 -0.0654 -0.0243 -0.7018
   74CHL1   H4A 7888   2.891   7.020   6.918  0.8143 -0.1536 -0.9025
   74CHL1   H4B 7889   2.797   6.875   6.899 -0.9423  1.2843 -0.3409
   74CHL1    C5 7890   2.879   6.895   7.106  0.2784  0.1782  0.1465
   74CHL1    C6 7891   2.771   6.836   7.167 -0.2500 -0.7761 -0.3668
   74CHL1    H6 7892   2.680   6.833   7.105  0.6267 -0.2467 -1.7309
   74CHL1    C7 7893   2.766   6.801   7.317 -0.1788 -0.0675  0.3352
   74CHL1   H7A 7894   2.671   6.836   7.363 -0.7610  0.7016 -1.3594
   74CHL1   H7B 7895   2.778   6.692   7.333  0.3073 -0.1507 -0.5536
   74CHL1    C8 7896   2.880   6.872   7.398  0.1216 -0.6535 -0.5237
   74CHL1    H8 7897   2.840   6.976   7.399 -0.6336 -0.7831  3.4974
   74CHL1   C14 7898   2.889   6.801   7.535 -0.5421 -0.1044  0.3891
   74CHL1   H14 7899   2.921   6.697   7.515  1.0748  0.7703 -2.0057
   74CHL1   C15 7900   2.752   6.795   7.618 -0.1807  0.3995 -0.0460
   74CHL1  H15A 7901   2.695   6.889   7.603 -0.0961  0.5778  0.7147
   74CHL1  H15B 7902   2.694   6.707   7.582 -2.6882  2.2994 -0.9214
   74CHL1   C16 7903   2.803   6.791   7.763  0.2677 -1.0164  0.2847
   74CHL1  H16A 7904   2.761   6.884   7.808  0.8863 -0.5192 -0.1483
   74CHL1  H16B 7905   2.772   6.705   7.825 -0.2494 -1.4134 -0.5129
   74CHL1   C17 7906   2.961   6.795   7.755 -0.1030 -0.2969  0.9207
   74CHL1   H17 7907   2.981   6.688   7.734  1.0242  0.2513 -1.1083
   74CHL1   C13 7908   2.990   6.863   7.623  0.6794 -0.3229  0.8535
   74CHL1   C18 7909   2.968   7.019   7.628  0.1879  0.7470  0.0487
   74CHL1  H18A 7910   2.867   7.044   7.667  0.7046 -0.4505  2.3563
   74CHL1  H18B 7911   3.037   7.060   7.704  0.8388  2.1969 -1.2746
   74CHL1  H18C 7912   2.981   7.066   7.529 -0.0417  0.0158 -0.3349
   74CHL1   C12 7913   3.128   6.845   7.569  0.5076  0.1897  0.1299
   74CHL1  H12A 7914   3.215   6.888   7.623  1.7015 -0.4047 -1.2327
   74CHL1  H12B 7915   3.136   6.734   7.566 -2.0632 -0.0493  0.0398
   74CHL1   C11 7916   3.142   6.901   7.422 -0.7105 -0.1199  0.0076
   74CHL1  H11A 7917   3.177   7.006   7.430  1.3151 -0.8827  4.2690
   74CHL1  H11B 7918   3.224   6.845   7.371  0.7015  1.0347  0.9375
   74CHL1    C9 7919   3.015   6.866   7.325  0.3392 -0.3792  0.6703
   74CHL1    H9 7920   3.024   6.759   7.296  0.4545 -0.1310 -0.2331
   74CHL1   C10 7921   3.014   6.930   7.186  0.2600  0.4151  0.1891
   74CHL1   C19 7922   3.016   7.079   7.183  0.2781  0.6490  0.2419
   74CHL1  H19A 7923   3.101   7.120   7.243  0.0373  0.9987  0.3526
   74CHL1  H19B 7924   3.028   7.117   7.079 -2.5083  1.7059  0.2168
   74CHL1  H19C 7925   2.919   7.107   7.229 -0.2547 -0.9001  0.1127
   74CHL1    C1 7926   3.137   6.869   7.112  0.1128 -0.3583 -0.1488
   74CHL1   H1A 7927   3.224   6.921   7.158 -1.0449 -0.2497  2.0299
   74CHL1   H1B 7928   3.142   6.761   7.137 -0.3257  0.1426  2.4043
   74CHL1    C2 7929   3.136   6.893   6.961  0.1489  0.3029  0.3462
   74CHL1   H2A 7930   3.219   6.843   6.908 -0.2482  0.5697 -0.5418
   74CHL1   H2B 7931   3.142   7.002   6.941 -0.8997  0.2136 -0.5395
   74CHL1   C20 7932   3.042   6.827   7.882 -0.6440 -0.5048 -0.0778
   74CHL1   H20 7933   3.141   6.861   7.845  0.0570  0.5194  2.5407
   74CHL1   C21 7934   3.044   6.696   7.968 -0.3436  0.1893  0.2050
   74CHL1  H21A 7935   3.072   6.600   7.921 -0.1421  0.6341 -0.6051
   74CHL1  H21B 7936   2.935   6.681   7.982 -0.6242  0.5452 -1.3951
   74CHL1  H21C 7937   3.109   6.712   8.057 -0.8372  4.0472  0.0403
   74CHL1   C22 7938   2.978   6.939   7.968  0.3205  0.6558 -0.4681
   74CHL1  H22A 7939   2.955   7.026   7.903  0.2055  0.1748 -1.0867
   74CHL1  H22B 7940   2.885   6.912   8.023  0.4757 -0.2026 -0.6072
   74CHL1   C23 7941   3.069   6.970   8.087 -0.8781 -0.6352 -0.5613
   74CHL1  H23A 7942   3.081   6.889   8.162 -1.8439  0.3119  0.6768
   74CHL1  H23B 7943   3.171   6.992   8.050  0.1474 -0.1148  2.3089
   74CHL1   C24 7944   3.038   7.102   8.176 -0.3598 -0.1240 -0.1098
   74CHL1  H24A 7945   3.023   7.185   8.103  0.4336 -0.7993 -1.0674
   74CHL1  H24B 7946   2.944   7.079   8.231 -0.6566 -0.1874 -0.6358
   74CHL1   C25 7947   3.145   7.149   8.275  0.3305  0.2683  0.2914
   74CHL1   H25 7948   3.153   7.062   8.343  0.9094  2.0032  2.5837
   74CHL1   C26 7949   3.269   7.186   8.204  0.3448 -0.2561  0.4383
   74CHL1  H26A 7950   3.234   7.245   8.117  0.2242  0.3040  0.8673
   74CHL1  H26B 7951   3.326   7.253   8.271 -2.2233  1.4692  1.0415
   74CHL1  H26C 7952   3.321   7.100   8.156 -1.7717 -0.4896 -1.6492
   74CHL1   C27 7953   3.098   7.267   8.357  0.6917 -0.4395 -0.4837
   74CHL1  H27A 7954   3.098   7.363   8.301  0.9193 -1.0274 -1.5200
   74CHL1  H27B 7955   2.996   7.260   8.400  0.1491 -2.6381 -2.0017
   74CHL1  H27C 7956   3.160   7.295   8.445 -1.1978 -1.1189  1.1475
   75CHL1    C3 7957   0.679   4.651   6.802  0.2747  0.2182 -0.2138
   75CHL1    H3 7958   0.780   4.614   6.777  1.4178  2.7072  0.4328
   75CHL1    O3 7959   0.603   4.640   6.686  0.7584 -0.2187 -0.3002
   75CHL1   H3' 7960   0.600   4.547   6.662  0.5644 -0.7052  1.4867
   75CHL1    C4 7961   0.605   4.577   6.918 -0.4726 -0.0323  0.4659
   75CHL1   H4A 7962   0.498   4.603   6.933 -1.5395 -3.9565  0.8567
   75CHL1   H4B 7963   0.588   4.478   6.869 -2.0842  0.2341  0.4278
   75CHL1    C5 7964   0.676   4.577   7.050  0.0253 -0.3405 -0.1716
   75CHL1    C6 7965   0.714   4.463   7.111 -0.0612  0.2955 -0.0755
   75CHL1    H6 7966   0.677   4.370   7.067 -1.7290  1.6995 -1.7915
   75CHL1    C7 7967   0.767   4.470   7.253  0.2636  0.1881  0.7425
   75CHL1   H7A 7968   0.717   4.390   7.312 -2.1903  1.8767  1.0640
   75CHL1   H7B 7969   0.875   4.443   7.256  0.1616 -0.2160  0.8982
   75CHL1    C8 7970   0.749   4.605   7.327  0.5556  0.7957 -0.5927
   75CHL1    H8 7971   0.643   4.625   7.356  0.8814  1.8486 -0.0824
   75CHL1   C14 7972   0.847   4.616   7.446  0.2140  0.3575 -0.9700
   75CHL1   H14 7973   0.951   4.616   7.405  0.5552  0.7828 -0.1372
   75CHL1   C15 7974   0.840   4.513   7.564  0.1097  0.4854  0.1690
   75CHL1  H15A 7975   0.735   4.482   7.585  1.0431 -2.1400  1.4883
   75CHL1  H15B 7976   0.905   4.424   7.547 -0.6243  0.0553 -0.4531
   75CHL1   C16 7977   0.891   4.579   7.692  0.5024 -0.5409 -0.2609
   75CHL1  H16A 7978   0.804   4.588   7.759  1.9593  0.0727  1.6427
   75CHL1  H16B 7979   0.965   4.511   7.740  0.0519 -0.5701  0.3979
   75CHL1   C17 7980   0.937   4.725   7.648  0.2864 -0.3771  0.5521
   75CHL1   H17 7981   1.042   4.723   7.613 -0.5245  1.2857 -2.3136
   75CHL1   C13 7982   0.853   4.747   7.522 -0.3995 -0.3314  0.2355
   75CHL1   C18 7983   0.711   4.787   7.567 -0.2042  0.0824 -0.4192
   75CHL1  H18A 7984   0.668   4.722   7.646  1.4204 -1.2845 -0.6023
   75CHL1  H18B 7985   0.710   4.888   7.614 -1.8071  0.5154 -1.2982
   75CHL1  H18C 7986   0.634   4.801   7.488 -0.2426 -2.6864 -0.9761
   75CHL1   C12 7987   0.907   4.847   7.426  0.2959  0.2640 -0.2913
   75CHL1  H12A 7988   0.906   4.954   7.458 -1.3175 -0.5899  2.9640
   75CHL1  H12B 7989   1.012   4.824   7.398  0.5874  0.8966  0.2441
   75CHL1   C11 7990   0.830   4.848   7.287 -0.1063  0.7128 -0.0138
   75CHL1  H11A 7991   0.735   4.895   7.319  0.8945  2.2733  0.8019
   75CHL1  H11B 7992   0.887   4.914   7.218 -1.6628  1.1822 -0.8941
   75CHL1    C9 7993   0.806   4.709   7.222  0.4485  0.0552 -0.0989
   75CHL1    H9 7994   0.909   4.680   7.190  0.2969  0.3899 -0.9195
   75CHL1   C10 7995   0.707   4.722   7.093 -0.0222  0.4401 -0.0006
   75CHL1   C19 7996   0.579   4.792   7.126 -0.0833 -0.2860 -0.6716
   75CHL1  H19A 7997   0.581   4.896   7.164 -0.2083 -1.1724  1.9410
   75CHL1  H19B 7998   0.504   4.794   7.044  0.7056  2.0180 -1.4005
   75CHL1  H19C 7999   0.526   4.735   7.205 -0.3668  1.4796  0.4581
   75CHL1    C1 8000   0.773   4.795   6.977  0.2287  0.1616  0.2835
   75CHL1   H1A 8001   0.789   4.898   7.015  0.0171 -0.1879  1.3458
   75CHL1   H1B 8002   0.872   4.756   6.947  0.8832  2.2897 -0.5185
   75CHL1    C2 8003   0.692   4.798   6.842 -0.4647 -0.2415 -0.9801
   75CHL1   H2A 8004   0.743   4.850   6.757 -0.9314  0.3444 -0.9138
   75CHL1   H2B 8005   0.589   4.839   6.849  0.4416  2.3087 -1.2502
   75CHL1   C20 8006   0.921   4.824   7.769  0.0553 -0.1248  0.2594
   75CHL1   H20 8007   0.818   4.836   7.807 -0.3753  0.9610 -1.1650
   75CHL1   C21 8008   0.974   4.962   7.720  0.4200 -0.1016 -0.2083
   75CHL1  H21A 8009   1.076   4.947   7.681  0.9197  1.7567  0.2657
   75CHL1  H21B 8010   0.967   5.026   7.811 -2.6128  1.4947 -1.4063
   75CHL1  H21C 8011   0.899   5.000   7.647  0.4174  2.8569  1.1486
   75CHL1   C22 8012   1.009   4.779   7.885  0.5910 -0.0924  0.8243
   75CHL1  H22A 8013   0.990   4.671   7.903  1.3353 -0.6010 -1.1581
   75CHL1  H22B 8014   1.117   4.763   7.864  0.7961 -0.1382  1.8666
   75CHL1   C23 8015   0.990   4.862   8.013 -0.3088 -0.0895  0.1820
   75CHL1  H23A 8016   1.039   4.959   7.989  0.2004 -0.7766 -1.7215
   75CHL1  H23B 8017   0.884   4.879   8.042  0.0633  1.0592  0.9633
   75CHL1   C24 8018   1.056   4.798   8.136 -0.7264  0.7408  1.1684
   75CHL1  H24A 8019   1.009   4.698   8.140  0.0629  0.2637 -0.5534
   75CHL1  H24B 8020   1.162   4.783   8.107 -1.2702  0.0977 -0.6137
   75CHL1   C25 8021   1.032   4.870   8.273  0.2273 -0.9387  0.3499
   75CHL1   H25 8022   0.926   4.902   8.286  0.6182  1.0680 -0.9256
   75CHL1   C26 8023   1.082   4.780   8.385  0.6219 -0.2762 -0.0430
   75CHL1  H26A 8024   1.189   4.755   8.372  0.1689 -0.9397 -3.3052
   75CHL1  H26B 8025   1.072   4.830   8.484  1.4087  0.8302 -0.4928
   75CHL1  H26C 8026   1.021   4.689   8.404 -0.3944  0.5759  0.9661
   75CHL1   C27 8027   1.120   5.003   8.268 -0.3136  0.0957  0.1061
   75CHL1  H27A 8028   1.118   5.047   8.369  1.4860  1.5445 -0.4441
   75CHL1  H27B 8029   1.223   4.971   8.241 -0.6995 -1.8692  0.7608
   75CHL1  H27C 8030   1.075   5.078   8.199 -0.8928 -0.7831 -0.4996
   76CHL1    C3 8031   1.257   5.927   7.142  0.2206  0.3364  0.6568
   76CHL1    H3 8032   1.341   5.863   7.106  1.1179  0.5805  2.2372
   76CHL1    O3 8033   1.241   6.022   7.037  0.0437 -0.2423 -0.5568
   76CHL1   H3' 8034   1.254   5.970   6.957 -4.1737 -0.6342 -1.2004
   76CHL1    C4 8035   1.126   5.847   7.158 -0.6764  0.1082 -0.6495
   76CHL1   H4A 8036   1.045   5.921   7.178 -0.8379  0.4953 -2.5310
   76CHL1   H4B 8037   1.087   5.794   7.068 -2.2405  0.8719 -0.4621
   76CHL1    C5 8038   1.143   5.743   7.272  0.6438  0.5003 -0.3978
   76CHL1    C6 8039   1.126   5.610   7.252  0.6749 -0.6109  0.2473
   76CHL1    H6 8040   1.084   5.586   7.153 -0.5125  2.9578 -0.2788
   76CHL1    C7 8041   1.135   5.509   7.362  0.0898  0.3113  0.0093
   76CHL1   H7A 8042   1.049   5.438   7.357  1.1249 -0.8890 -1.8650
   76CHL1   H7B 8043   1.222   5.440   7.353 -0.2430 -0.3358  1.5034
   76CHL1    C8 8044   1.146   5.565   7.509 -0.4480  0.5215 -0.0195
   76CHL1    H8 8045   1.045   5.606   7.532 -0.7903 -0.6875  0.7434
   76CHL1   C14 8046   1.205   5.454   7.601 -0.5179  0.1945 -0.6620
   76CHL1   H14 8047   1.313   5.446   7.577  0.0395  0.6729  1.4689
   76CHL1   C15 8048   1.138   5.313   7.604 -0.4128  0.3581  0.1865
   76CHL1  H15A 8049   1.028   5.329   7.602 -0.7293 -1.4596  0.7148
   76CHL1  H15B 8050   1.162   5.254   7.513  1.0795  0.9093  0.2008
   76CHL1   C16 8051   1.173   5.257   7.747 -0.3271 -0.0689  0.5337
   76CHL1  H16A 8052   1.081   5.247   7.809 -1.6484  0.1212 -1.2934
   76CHL1  H16B 8053   1.236   5.166   7.738  1.3344  1.1536 -0.7032
   76CHL1   C17 8054   1.248   5.365   7.821  0.2224 -0.3192  0.3223
   76CHL1   H17 8055   1.357   5.350   7.805  0.1745  0.4963 -1.0175
   76CHL1   C13 8056   1.209   5.499   7.749 -0.6098 -0.0611  0.1508
   76CHL1   C18 8057   1.067   5.540   7.788 -0.3767 -0.2769 -0.1001
   76CHL1  H18A 8058   1.033   5.641   7.755 -1.5263 -0.2007  1.2028
   76CHL1  H18B 8059   0.982   5.483   7.744 -1.3975  1.2694 -0.2209
   76CHL1  H18C 8060   1.044   5.531   7.897 -1.1651  0.7364 -0.1638
   76CHL1   C12 8061   1.308   5.623   7.761  0.0008  0.2922 -0.0521
   76CHL1  H12A 8062   1.293   5.673   7.859 -0.2854 -0.1057  0.1064
   76CHL1  H12B 8063   1.406   5.570   7.754 -0.1177  0.2128 -1.3292
   76CHL1   C11 8064   1.284   5.728   7.652  0.2463  0.1524  0.0263
   76CHL1  H11A 8065   1.192   5.780   7.685  0.9416  0.5669  1.4057
   76CHL1  H11B 8066   1.361   5.808   7.649  0.6934 -0.2761 -0.1580
   76CHL1    C9 8067   1.250   5.677   7.501  0.0384  0.3580 -0.6594
   76CHL1    H9 8068   1.349   5.642   7.463 -0.3146 -1.6856  0.1843
   76CHL1   C10 8069   1.209   5.792   7.402  0.0587 -0.4788  0.0973
   76CHL1   C19 8070   1.097   5.882   7.473 -0.0948  0.2618 -0.6504
   76CHL1  H19A 8071   1.043   5.936   7.392  0.0340  1.6665  0.1746
   76CHL1  H19B 8072   1.026   5.820   7.531  0.5752  0.1508  0.0601
   76CHL1  H19C 8073   1.138   5.957   7.544  1.2596  0.6837 -1.8235
   76CHL1    C1 8074   1.334   5.883   7.372  1.0899 -0.5274  0.1164
   76CHL1   H1A 8075   1.367   5.928   7.468  0.6773  1.3179 -0.5643
   76CHL1   H1B 8076   1.400   5.807   7.325  0.3032 -1.1544  0.0114
   76CHL1    C2 8077   1.310   6.000   7.265  0.2290  0.3016 -0.3241
   76CHL1   H2A 8078   1.403   6.056   7.244 -0.3950  2.2353  1.7441
   76CHL1   H2B 8079   1.228   6.067   7.297  1.4772  1.6118  0.2359
   76CHL1   C20 8080   1.218   5.347   7.969 -0.0318 -1.1093 -0.1963
   76CHL1   H20 8081   1.108   5.356   7.980 -0.1793 -1.6629 -1.1019
   76CHL1   C21 8082   1.274   5.471   8.056  1.0403 -0.5846  0.1505
   76CHL1  H21A 8083   1.196   5.549   8.060  1.1129 -0.3971 -1.5671
   76CHL1  H21B 8084   1.359   5.525   8.009  0.9109 -0.6781 -0.1886
   76CHL1  H21C 8085   1.277   5.438   8.162 -1.6651  0.7010  0.7108
   76CHL1   C22 8086   1.278   5.213   8.032  0.1729  0.1982 -0.1056
   76CHL1  H22A 8087   1.285   5.225   8.142  2.0901 -1.4517  0.0326
   76CHL1  H22B 8088   1.209   5.127   8.019  0.6447 -0.3819  1.0519
   76CHL1   C23 8089   1.422   5.177   7.998 -0.4431  0.4311  0.3554
   76CHL1  H23A 8090   1.418   5.145   7.891 -0.9892  0.9857  0.2056
   76CHL1  H23B 8091   1.497   5.258   8.016  1.6252 -1.3847  0.3757
   76CHL1   C24 8092   1.469   5.065   8.101 -0.5147 -0.3150  0.1427
   76CHL1  H24A 8093   1.469   5.113   8.201  0.5094  1.2789 -0.5998
   76CHL1  H24B 8094   1.396   4.980   8.097 -1.6136  0.6517 -1.3969
   76CHL1   C25 8095   1.612   5.015   8.064 -0.1414  0.4444  0.4923
   76CHL1   H25 8096   1.672   5.105   8.037 -0.1719  0.5151  0.6569
   76CHL1   C26 8097   1.688   4.949   8.183 -0.4543  0.5034  0.9564
   76CHL1  H26A 8098   1.681   5.006   8.278 -2.5045  2.0172 -0.0220
   76CHL1  H26B 8099   1.648   4.847   8.200 -3.6487  1.1051 -1.9410
   76CHL1  H26C 8100   1.797   4.948   8.162 -0.5665  2.2658  0.1507
   76CHL1   C27 8101   1.612   4.924   7.942 -0.9182 -0.4472  0.2547
   76CHL1  H27A 8102   1.577   4.978   7.851  2.6492 -0.1296 -1.0777
   76CHL1  H27B 8103   1.716   4.892   7.924 -0.2476  0.8647  1.5400
   76CHL1  H27C 8104   1.551   4.835   7.968  1.3905 -2.4891 -0.9349
   77CHL1    C3 8105   4.503   3.935   6.955 -0.6734  0.0481  0.2221
   77CHL1    H3 8106   4.562   3.845   6.925 -1.6498 -0.9283  1.1697
   77CHL1    O3 8107   4.495   4.029   6.852  0.6845  0.4891  0.2036
   77CHL1   H3' 8108   4.437   4.098   6.884  0.4775 -0.8783  3.0516
   77CHL1    C4 8109   4.362   3.896   7.000  0.0041  0.1484  0.1220
   77CHL1   H4A 8110   4.311   3.989   7.032 -0.2312  0.4443 -1.0587
   77CHL1   H4B 8111   4.299   3.860   6.916 -1.7164 -0.2283  1.5256
   77CHL1    C5 8112   4.351   3.794   7.121 -0.4132  0.0438  0.1937
   77CHL1    C6 8113   4.283   3.681   7.104 -0.0605 -0.0051 -0.1785
   77CHL1    H6 8114   4.226   3.660   7.013  0.7912  1.5459 -1.1051
   77CHL1    C7 8115   4.286   3.575   7.213 -0.5086 -0.3840 -0.4502
   77CHL1   H7A 8116   4.185   3.531   7.231  0.4397 -1.6705  2.2969
   77CHL1   H7B 8117   4.334   3.491   7.159  0.9643  1.8755 -2.8725
   77CHL1    C8 8118   4.338   3.630   7.346 -0.4327  0.7389 -0.0331
   77CHL1    H8 8119   4.252   3.689   7.383 -0.4151  0.2858  0.7721
   77CHL1   C14 8120   4.358   3.520   7.453 -0.0588 -0.1962  0.0189
   77CHL1   H14 8121   4.434   3.448   7.416  0.8379  0.0769  1.2777
   77CHL1   C15 8122   4.245   3.428   7.482  0.4276 -0.0437  0.1324
   77CHL1  H15A 8123   4.151   3.481   7.505  0.4239  0.3258 -0.6863
   77CHL1  H15B 8124   4.218   3.356   7.401 -1.1418  1.6942 -0.9562
   77CHL1   C16 8125   4.292   3.355   7.612  0.0795 -0.0036  0.3841
   77CHL1  H16A 8126   4.212   3.360   7.690 -0.5357  0.6097 -0.2706
   77CHL1  H16B 8127   4.319   3.249   7.593  1.0092  0.2460  0.2837
   77CHL1   C17 8128   4.415   3.424   7.667  0.1215  0.0786  0.1301
   77CHL1   H17 8129   4.495   3.361   7.623  0.6658 -0.2755  1.5763
   77CHL1   C13 8130   4.409   3.562   7.592  0.1354  0.8378 -0.7631
   77CHL1   C18 8131   4.296   3.647   7.660  0.5630  0.0327 -0.3193
   77CHL1  H18A 8132   4.236   3.706   7.587  0.5098 -1.2257 -1.3320
   77CHL1  H18B 8133   4.212   3.588   7.705  0.9031 -0.2199 -0.0102
   77CHL1  H18C 8134   4.338   3.719   7.733  1.1174  0.9624 -1.5387
   77CHL1   C12 8135   4.548   3.635   7.580  0.0546 -0.1386  0.4976
   77CHL1  H12A 8136   4.585   3.679   7.674  0.0151 -1.3482  1.0992
   77CHL1  H12B 8137   4.631   3.566   7.554 -0.1339 -0.5398  0.9309
   77CHL1   C11 8138   4.535   3.750   7.471 -0.4711  0.0804  0.1316
   77CHL1  H11A 8139   4.470   3.819   7.529 -0.7200 -2.3701  3.0367
   77CHL1  H11B 8140   4.633   3.800   7.459 -0.5740  0.6292  1.3814
   77CHL1    C9 8141   4.470   3.708   7.333  0.0597  0.1368 -0.2039
   77CHL1    H9 8142   4.543   3.637   7.288  0.3450 -0.9498  1.8720
   77CHL1   C10 8143   4.450   3.827   7.231 -0.1465 -0.1164 -0.2451
   77CHL1   C19 8144   4.369   3.944   7.304 -0.7745  0.3304  0.4342
   77CHL1  H19A 8145   4.268   3.909   7.334 -0.2075 -0.0030  2.0471
   77CHL1  H19B 8146   4.427   3.977   7.393  0.3435 -0.4067 -0.0033
   77CHL1  H19C 8147   4.371   4.033   7.237  0.0848 -0.2680 -0.3662
   77CHL1    C1 8148   4.593   3.885   7.190  0.0102  0.2807  0.0398
   77CHL1   H1A 8149   4.646   3.926   7.278  0.2037  0.7347 -0.2833
   77CHL1   H1B 8150   4.658   3.808   7.142  1.3029  1.6067 -0.3992
   77CHL1    C2 8151   4.587   3.991   7.071  0.1125  0.7311 -0.4656
   77CHL1   H2A 8152   4.690   4.016   7.037  0.1094 -0.9307 -1.8008
   77CHL1   H2B 8153   4.536   4.079   7.117 -0.2910  0.1590  0.1957
   77CHL1   C20 8154   4.415   3.417   7.826  0.2166  0.7821  0.6040
   77CHL1   H20 8155   4.324   3.467   7.865 -1.0768 -0.4672 -0.6517
   77CHL1   C21 8156   4.536   3.497   7.891 -0.4531  0.8508  0.9165
   77CHL1  H21A 8157   4.536   3.604   7.860  1.6542  0.5628 -0.2702
   77CHL1  H21B 8158   4.626   3.447   7.848 -0.9137  0.9630 -0.2156
   77CHL1  H21C 8159   4.525   3.498   8.002 -2.4898  1.8351  0.7617
   77CHL1   C22 8160   4.422   3.273   7.870  0.4779 -0.0979 -0.1821
   77CHL1  H22A 8161   4.391   3.198   7.794  0.3965 -0.0283 -0.2183
   77CHL1  H22B 8162   4.526   3.248   7.901  0.7096 -2.1773 -2.3488
   77CHL1   C23 8163   4.347   3.234   8.002 -0.4348 -0.7703 -0.0791
   77CHL1  H23A 8164   4.380   3.305   8.081 -1.8467 -1.8303  1.5276
   77CHL1  H23B 8165   4.238   3.255   7.999 -0.5293 -1.1490  0.6142
   77CHL1   C24 8166   4.364   3.085   8.039  0.1197 -0.2984  0.4600
   77CHL1  H24A 8167   4.328   3.029   7.950  1.8124  0.9213 -1.0454
   77CHL1  H24B 8168   4.470   3.066   8.063 -0.3126 -0.3174  2.6026
   77CHL1   C25 8169   4.280   3.036   8.163 -0.1005  0.6008  0.2382
   77CHL1   H25 8170   4.173   3.055   8.142  0.0396 -0.5834 -1.8246
   77CHL1   C26 8171   4.301   2.884   8.184  0.3742  0.2739 -0.2963
   77CHL1  H26A 8172   4.410   2.863   8.195 -0.1757 -1.2251  3.5005
   77CHL1  H26B 8173   4.256   2.836   8.273  1.5545  1.2472  0.8806
   77CHL1  H26C 8174   4.261   2.826   8.098  0.9352  1.4679 -1.4036
   77CHL1   C27 8175   4.324   3.121   8.293  0.3463  0.2165  0.2044
   77CHL1  H27A 8176   4.317   3.229   8.272 -0.4568  0.0765 -0.2922
   77CHL1  H27B 8177   4.246   3.091   8.366 -0.8398 -1.4309 -1.6326
   77CHL1  H27C 8178   4.427   3.097   8.328  0.2895 -0.0019  0.2234
   78CHL1    C3 8179   5.124   3.379   6.777 -0.5340 -0.1374  0.3654
   78CHL1    H3 8180   5.017   3.350   6.782 -0.0652 -3.0909 -2.9144
   78CHL1    O3 8181   5.160   3.357   6.637  0.4365 -0.5166  0.4057
   78CHL1   H3' 8182   5.237   3.414   6.629 -1.5986  2.5471  0.8091
   78CHL1    C4 8183   5.153   3.521   6.819  0.0856 -0.2152  0.3650
   78CHL1   H4A 8184   5.257   3.545   6.789 -0.3111 -0.0835 -0.9902
   78CHL1   H4B 8185   5.089   3.582   6.751  1.5074 -0.1772 -0.9888
   78CHL1    C5 8186   5.117   3.539   6.964 -0.2443  0.5330  0.5809
   78CHL1    C6 8187   5.027   3.640   7.002 -0.4765 -0.3387  0.2374
   78CHL1    H6 8188   4.976   3.705   6.929  0.7734 -0.1483 -0.4786
   78CHL1    C7 8189   4.984   3.663   7.143  0.6849 -0.4202 -0.0827
   78CHL1   H7A 8190   4.989   3.770   7.172  4.1296 -0.7006  0.7922
   78CHL1   H7B 8191   4.879   3.629   7.155  0.5656 -0.1647 -0.3860
   78CHL1    C8 8192   5.066   3.591   7.247 -0.2904 -0.3633  1.1173
   78CHL1    H8 8193   5.167   3.636   7.260 -0.6055  0.1068  2.0411
   78CHL1   C14 8194   4.999   3.594   7.377  0.5795  0.3046  0.2609
   78CHL1   H14 8195   4.902   3.540   7.369  0.8426 -0.5715  2.3681
   78CHL1   C15 8196   4.947   3.732   7.434 -0.7809  0.5579 -0.6514
   78CHL1  H15A 8197   5.030   3.805   7.427 -0.4214  0.0352 -2.4455
   78CHL1  H15B 8198   4.858   3.773   7.383  0.3255  1.0502 -2.2542
   78CHL1   C16 8199   4.924   3.696   7.582 -0.0561 -0.3347 -0.6552
   78CHL1  H16A 8200   4.966   3.774   7.649 -2.1547  2.2772 -2.1801
   78CHL1  H16B 8201   4.817   3.714   7.605  0.1040  2.0106 -1.4554
   78CHL1   C17 8202   4.970   3.550   7.608  0.4029 -0.1878  0.2665
   78CHL1   H17 8203   4.880   3.485   7.602  1.4353 -1.5847 -1.0093
   78CHL1   C13 8204   5.065   3.519   7.489  0.3332  0.0391 -0.2211
   78CHL1   C18 8205   5.202   3.582   7.508 -0.7150 -0.0203  0.7520
   78CHL1  H18A 8206   5.278   3.551   7.433 -4.3154 -0.5076 -3.0443
   78CHL1  H18B 8207   5.196   3.693   7.496  2.0122 -0.1097 -3.1232
   78CHL1  H18C 8208   5.246   3.562   7.608  1.2030 -0.8194 -0.2120
   78CHL1   C12 8209   5.080   3.371   7.446  0.0891 -0.0718  0.3505
   78CHL1  H12A 8210   5.135   3.315   7.525 -0.7650 -2.8432 -0.9226
   78CHL1  H12B 8211   4.980   3.325   7.440  1.2869 -2.6572 -1.3751
   78CHL1   C11 8212   5.148   3.349   7.312  0.3266  0.1711  0.0781
   78CHL1  H11A 8213   5.257   3.361   7.328  0.4030  0.8261 -0.8585
   78CHL1  H11B 8214   5.134   3.244   7.278  0.6769 -0.3299  1.4319
   78CHL1    C9 8215   5.092   3.442   7.198  0.1882  0.3082  0.0535
   78CHL1    H9 8216   4.989   3.406   7.178 -0.0129  0.0694  1.4497
   78CHL1   C10 8217   5.172   3.435   7.062  0.8660 -0.3665 -0.1767
   78CHL1   C19 8218   5.319   3.457   7.089  0.6498 -0.0355  0.3410
   78CHL1  H19A 8219   5.334   3.558   7.133 -0.3950  0.9805 -1.5232
   78CHL1  H19B 8220   5.364   3.379   7.155  1.5853 -0.8899 -1.2483
   78CHL1  H19C 8221   5.382   3.459   6.998  1.0124 -1.1861  0.5421
   78CHL1    C1 8222   5.150   3.292   7.009 -0.0704  0.2356 -0.4067
   78CHL1   H1A 8223   5.217   3.228   7.071  1.5393 -0.2422 -2.5337
   78CHL1   H1B 8224   5.043   3.264   7.016 -0.0033  0.3176  1.3602
   78CHL1    C2 8225   5.195   3.279   6.863 -0.3695  0.7866 -0.6135
   78CHL1   H2A 8226   5.173   3.176   6.828  1.9092 -0.3861  1.1551
   78CHL1   H2B 8227   5.305   3.293   6.859 -0.5240  2.4632 -0.0541
   78CHL1   C20 8228   5.027   3.536   7.756  0.1537 -0.7300 -0.0539
   78CHL1   H20 8229   5.120   3.596   7.766 -0.0177 -0.8857  4.9220
   78CHL1   C21 8230   5.061   3.392   7.774  0.5539 -0.2562  0.4310
   78CHL1  H21A 8231   5.155   3.356   7.728 -1.4676 -2.6539 -2.1917
   78CHL1  H21B 8232   4.982   3.322   7.739  0.6927 -0.6086  0.8139
   78CHL1  H21C 8233   5.075   3.374   7.883  1.9220 -0.1559  0.2879
   78CHL1   C22 8234   4.926   3.584   7.858  0.3125 -0.1229  0.7508
   78CHL1  H22A 8235   4.840   3.643   7.820  1.8081  1.9955  0.5167
   78CHL1  H22B 8236   4.889   3.485   7.895  1.2056 -1.1795 -1.0415
   78CHL1   C23 8237   4.987   3.654   7.973 -0.8571  0.4537 -0.4004
   78CHL1  H23A 8238   5.068   3.592   8.016  0.4851  2.8998  0.8237
   78CHL1  H23B 8239   5.028   3.752   7.941  0.2527 -0.1818 -0.9691
   78CHL1   C24 8240   4.884   3.685   8.087 -0.5307 -0.1552  0.6838
   78CHL1  H24A 8241   4.834   3.776   8.048  1.0476  0.9608  1.2096
   78CHL1  H24B 8242   4.823   3.592   8.098  0.4359 -0.7061  1.6080
   78CHL1   C25 8243   4.941   3.696   8.221  0.3052  0.0648 -0.4178
   78CHL1   H25 8244   5.013   3.612   8.234  3.0544  2.3506  0.3685
   78CHL1   C26 8245   5.026   3.818   8.244 -0.0345  0.2053 -0.2325
   78CHL1  H26A 8246   5.108   3.828   8.170 -1.4067 -0.9181 -2.0050
   78CHL1  H26B 8247   4.970   3.914   8.239 -1.6049 -0.6860 -0.4615
   78CHL1  H26C 8248   5.076   3.807   8.342  0.1593 -0.5390 -0.4042
   78CHL1   C27 8249   4.824   3.689   8.318 -0.2150  0.4896  0.6156
   78CHL1  H27A 8250   4.863   3.706   8.421 -1.0675 -0.8877  1.1918
   78CHL1  H27B 8251   4.756   3.776   8.307 -0.2720  0.3798  0.0919
   78CHL1  H27C 8252   4.764   3.596   8.314 -0.8983  0.9373  0.3269
   79CHL1    C3 8253   4.123   5.425   7.225  0.1421 -0.2060  0.7471
   79CHL1    H3 8254   4.212   5.492   7.232  1.0690 -1.3347  0.1051
   79CHL1    O3 8255   4.111   5.371   7.092 -0.2861  0.0972 -0.1070
   79CHL1   H3' 8256   4.024   5.400   7.065 -0.0498  0.7875 -0.1366
   79CHL1    C4 8257   4.136   5.301   7.312 -0.1530  0.2394  0.0466
   79CHL1   H4A 8258   4.053   5.228   7.301 -1.7242  1.7928  0.9640
   79CHL1   H4B 8259   4.221   5.240   7.275 -0.4276  0.7294 -1.4754
   79CHL1    C5 8260   4.150   5.337   7.457 -0.5673  0.6342  0.2160
   79CHL1    C6 8261   4.251   5.291   7.537  0.2869  0.4178  0.3483
   79CHL1    H6 8262   4.329   5.222   7.499  0.4849 -0.1527  1.7487
   79CHL1    C7 8263   4.266   5.328   7.678 -0.0772  0.1290 -0.9908
   79CHL1   H7A 8264   4.273   5.231   7.730  0.9073  0.6868 -0.0456
   79CHL1   H7B 8265   4.364   5.377   7.696  0.7012 -1.7245  0.0488
   79CHL1    C8 8266   4.158   5.412   7.747  0.4266  0.2324 -0.0914
   79CHL1    H8 8267   4.081   5.343   7.786  0.7534  0.6266  1.3054
   79CHL1   C14 8268   4.216   5.486   7.866 -0.0890 -0.1428 -0.6206
   79CHL1   H14 8269   4.298   5.553   7.834  0.2363 -1.3376 -2.4398
   79CHL1   C15 8270   4.288   5.401   7.977  0.1141  0.1058  0.4839
   79CHL1  H15A 8271   4.225   5.311   7.993  0.3893 -0.2136 -0.2008
   79CHL1  H15B 8272   4.393   5.381   7.945 -0.0983  1.2275 -1.0229
   79CHL1   C16 8273   4.268   5.476   8.113  0.0890 -1.0243  0.1410
   79CHL1  H16A 8274   4.210   5.416   8.186 -0.2425 -0.8158  0.0538
   79CHL1  H16B 8275   4.366   5.500   8.158 -0.7812  0.8389  1.1883
   79CHL1   C17 8276   4.192   5.610   8.070 -0.0338  0.0545 -0.4039
   79CHL1   H17 8277   4.275   5.672   8.030 -0.8553  0.1871 -2.0090
   79CHL1   C13 8278   4.112   5.573   7.942  1.0188  0.3116  0.3112
   79CHL1   C18 8279   3.984   5.484   7.984 -0.3537 -0.7651 -0.8327
   79CHL1  H18A 8280   3.941   5.427   7.899  0.0460  0.4680 -1.8965
   79CHL1  H18B 8281   4.015   5.419   8.069 -2.4000 -1.6911 -0.7590
   79CHL1  H18C 8282   3.902   5.540   8.033  0.6114  0.3412 -0.4130
   79CHL1   C12 8283   4.074   5.683   7.842  0.4028 -0.1276  0.2478
   79CHL1  H12A 8284   4.000   5.754   7.883  0.0714 -1.4252  1.9928
   79CHL1  H12B 8285   4.166   5.743   7.825 -0.1252  1.3556  2.3176
   79CHL1   C11 8286   4.013   5.621   7.712 -0.2332 -0.0346 -0.0058
   79CHL1  H11A 8287   3.913   5.580   7.737 -0.9647  1.2146 -0.8177
   79CHL1  H11B 8288   3.999   5.708   7.645  0.5698  0.4573  0.4504
   79CHL1    C9 8289   4.103   5.507   7.641  0.4947 -0.8966 -0.1158
   79CHL1    H9 8290   4.194   5.562   7.612  0.5899 -0.2968  1.2856
   79CHL1   C10 8291   4.048   5.444   7.517 -0.0036  0.1533 -0.5264
   79CHL1   C19 8292   3.921   5.360   7.566 -0.4881  0.6948  0.0066
   79CHL1  H19A 8293   3.884   5.307   7.475 -0.1477 -2.6473  1.6791
   79CHL1  H19B 8294   3.939   5.281   7.642 -0.5515  0.1097 -0.5741
   79CHL1  H19C 8295   3.853   5.432   7.616 -1.3095 -0.5752  0.7577
   79CHL1    C1 8296   4.006   5.548   7.407  0.1913  0.4154 -0.0991
   79CHL1   H1A 8297   3.918   5.600   7.449  0.4446  0.9461 -0.2069
   79CHL1   H1B 8298   4.085   5.627   7.410  0.0592  0.6525 -1.7726
   79CHL1    C2 8299   3.999   5.501   7.260 -0.4161 -0.5668  0.1297
   79CHL1   H2A 8300   3.972   5.575   7.182  1.0590  0.6606  0.7248
   79CHL1   H2B 8301   3.921   5.422   7.256 -1.5815  0.5620  0.1281
   79CHL1   C20 8302   4.133   5.686   8.185  0.1311  0.6171  0.0664
   79CHL1   H20 8303   4.045   5.630   8.225  1.9666 -1.4796  1.3574
   79CHL1   C21 8304   4.090   5.830   8.149  0.1129  0.8911 -1.0157
   79CHL1  H21A 8305   4.177   5.876   8.098  2.2324 -1.5164  0.1982
   79CHL1  H21B 8306   4.061   5.890   8.238 -0.3453 -2.4204  1.2992
   79CHL1  H21C 8307   4.005   5.824   8.077 -0.9449  1.7894  0.1137
   79CHL1   C22 8308   4.225   5.696   8.311  0.5147  0.0916  0.7381
   79CHL1  H22A 8309   4.226   5.591   8.347 -1.0968 -0.1932  0.0523
   79CHL1  H22B 8310   4.328   5.732   8.287 -0.6170  2.6558 -0.7140
   79CHL1   C23 8311   4.172   5.777   8.428  0.4944  0.6827 -0.6309
   79CHL1  H23A 8312   4.151   5.883   8.402 -1.9011  0.4994  0.2995
   79CHL1  H23B 8313   4.070   5.736   8.443  0.7885 -0.5202 -1.6633
   79CHL1   C24 8314   4.256   5.744   8.551 -0.3361 -0.1825 -0.3497
   79CHL1  H24A 8315   4.268   5.635   8.564  0.0259 -0.0982  0.0290
   79CHL1  H24B 8316   4.358   5.780   8.526 -1.5646  1.9821 -2.7663
   79CHL1   C25 8317   4.227   5.821   8.684 -0.1008  0.3318  0.7639
   79CHL1   H25 8318   4.212   5.926   8.649 -0.5439 -0.0543 -0.2443
   79CHL1   C26 8319   4.103   5.779   8.756 -0.1716  1.0214 -0.1241
   79CHL1  H26A 8320   4.115   5.820   8.859  0.6394  0.4605  0.0152
   79CHL1  H26B 8321   4.014   5.821   8.705  0.4861  1.5938 -0.8390
   79CHL1  H26C 8322   4.084   5.670   8.753 -4.4704  1.4836  2.2572
   79CHL1   C27 8323   4.348   5.817   8.780 -0.3562 -0.3203  0.1752
   79CHL1  H27A 8324   4.370   5.711   8.804 -1.4926 -0.6006  0.0340
   79CHL1  H27B 8325   4.443   5.848   8.731 -1.3007  0.2705 -1.3651
   79CHL1  H27C 8326   4.336   5.881   8.871  2.4719 -0.1707  0.5379
   80CHL1    C3 8327   0.854   1.482   6.880 -0.4956 -0.1055  0.9100
   80CHL1    H3 8328   0.763   1.425   6.853  0.4117 -1.2152  0.1526
   80CHL1    O3 8329   0.953   1.462   6.769  0.3121  0.0605 -0.0371
   80CHL1   H3' 8330   1.038   1.482   6.809 -0.6246  2.0853  1.0835
   80CHL1    C4 8331   0.824   1.630   6.901  0.6389 -0.2589 -0.5630
   80CHL1   H4A 8332   0.908   1.701   6.917 -0.7676  1.1535  0.9176
   80CHL1   H4B 8333   0.781   1.664   6.805 -0.5988 -0.4801 -0.1111
   80CHL1    C5 8334   0.730   1.665   7.017 -0.2682  0.4878  0.3065
   80CHL1    C6 8335   0.628   1.742   7.000 -0.5953 -0.2578 -0.2703
   80CHL1    H6 8336   0.601   1.790   6.904 -0.2887  3.5916  1.3840
   80CHL1    C7 8337   0.527   1.771   7.109  0.5152 -0.4840  0.6629
   80CHL1   H7A 8338   0.483   1.872   7.094 -2.1741 -1.8046 -1.2166
   80CHL1   H7B 8339   0.439   1.703   7.096  0.3970 -0.7253  2.4179
   80CHL1    C8 8340   0.588   1.752   7.252  0.4024  0.2219  0.5912
   80CHL1    H8 8341   0.666   1.831   7.262 -0.3127  0.9941  0.1480
   80CHL1   C14 8342   0.485   1.767   7.355 -0.0485 -0.0960 -0.1550
   80CHL1   H14 8343   0.415   1.691   7.315  0.4530 -0.0135 -1.2036
   80CHL1   C15 8344   0.408   1.898   7.369 -0.2851  0.4513 -0.3020
   80CHL1  H15A 8345   0.475   1.986   7.365  0.9643 -0.5189 -2.1478
   80CHL1  H15B 8346   0.339   1.914   7.284 -0.2732  2.4316  0.0287
   80CHL1   C16 8347   0.335   1.888   7.502 -0.7396 -0.0013 -0.9194
   80CHL1  H16A 8348   0.361   1.979   7.560  2.7987 -1.4870  0.1096
   80CHL1  H16B 8349   0.225   1.882   7.487 -1.3012  0.6813  2.1627
   80CHL1   C17 8350   0.393   1.759   7.572  0.0578 -0.1376  0.6036
   80CHL1   H17 8351   0.323   1.680   7.539  0.3146  1.2188 -3.8091
   80CHL1   C13 8352   0.527   1.728   7.494  0.0794  0.0128 -0.1861
   80CHL1   C18 8353   0.638   1.824   7.544 -0.6364 -0.1381  0.4530
   80CHL1  H18A 8354   0.682   1.772   7.632  0.0400 -2.0165 -0.9297
   80CHL1  H18B 8355   0.716   1.829   7.465 -0.6132  1.4305  0.5534
   80CHL1  H18C 8356   0.616   1.930   7.567  0.6253 -0.0932  1.5795
   80CHL1   C12 8357   0.581   1.582   7.501 -0.3432 -0.5537  0.1464
   80CHL1  H12A 8358   0.625   1.566   7.602  1.1618 -0.4633 -0.4638
   80CHL1  H12B 8359   0.494   1.515   7.483 -0.8862 -0.4521  2.1677
   80CHL1   C11 8360   0.691   1.568   7.396  0.2394  0.6233  0.1894
   80CHL1  H11A 8361   0.782   1.620   7.432  0.6691  0.1580 -0.2071
   80CHL1  H11B 8362   0.711   1.459   7.399  2.1648  0.9617  1.9956
   80CHL1    C9 8363   0.656   1.615   7.258 -0.4406 -0.0103  0.8183
   80CHL1    H9 8364   0.579   1.540   7.229 -0.2517 -0.1332  0.6286
   80CHL1   C10 8365   0.772   1.603   7.154  0.7002 -0.4435  0.8592
   80CHL1   C19 8366   0.896   1.672   7.210 -0.1116 -0.8137 -0.1588
   80CHL1  H19A 8367   0.937   1.628   7.304 -1.6485  0.5396  1.2029
   80CHL1  H19B 8368   0.984   1.657   7.143  1.5132 -0.6609  1.8230
   80CHL1  H19C 8369   0.876   1.781   7.217 -2.4357 -1.2830  2.1518
   80CHL1    C1 8370   0.796   1.450   7.127  0.3774 -0.4369  0.6190
   80CHL1   H1A 8371   0.831   1.391   7.214  0.3796 -1.0260  0.2269
   80CHL1   H1B 8372   0.698   1.406   7.098  0.7963 -1.4997  0.7669
   80CHL1    C2 8373   0.900   1.426   7.012  0.3472 -0.3397 -0.0433
   80CHL1   H2A 8374   0.905   1.317   6.991 -1.1438 -0.0686 -2.1280
   80CHL1   H2B 8375   0.997   1.464   7.051  0.6043  0.7711 -1.6817
   80CHL1   C20 8376   0.394   1.751   7.727 -0.1239  0.2433  0.3755
   80CHL1   H20 8377   0.461   1.670   7.764 -2.0303 -1.7212 -0.3208
   80CHL1   C21 8378   0.256   1.703   7.773  0.2930  0.1336 -0.1874
   80CHL1  H21A 8379   0.178   1.779   7.751 -1.1812 -1.9809 -2.9445
   80CHL1  H21B 8380   0.258   1.685   7.882  2.4043 -2.7304 -0.5843
   80CHL1  H21C 8381   0.230   1.607   7.723  1.6975 -0.4263  0.1206
   80CHL1   C22 8382   0.432   1.885   7.797  0.0760  0.1037 -0.2245
   80CHL1  H22A 8383   0.511   1.937   7.739 -0.5584  0.0639 -1.1368
   80CHL1  H22B 8384   0.352   1.962   7.796  0.0437  0.0702 -0.2466
   80CHL1   C23 8385   0.471   1.880   7.951  0.3122 -0.1354  0.7926
   80CHL1  H23A 8386   0.380   1.830   7.992 -1.3638  0.7246 -1.6455
   80CHL1  H23B 8387   0.559   1.813   7.963  0.5476  0.0920  0.3552
   80CHL1   C24 8388   0.488   2.020   8.008 -0.1653  0.4591  0.0061
   80CHL1  H24A 8389   0.588   2.047   7.969 -0.0609 -1.4205 -1.1334
   80CHL1  H24B 8390   0.418   2.099   7.972 -1.1868 -0.7963 -0.8506
   80CHL1   C25 8391   0.498   2.018   8.162  0.4061  0.2429  0.0225
   80CHL1   H25 8392   0.541   2.112   8.203  1.7513 -1.0309  1.6604
   80CHL1   C26 8393   0.352   1.999   8.228  0.0921  0.5620  0.0826
   80CHL1  H26A 8394   0.306   2.099   8.212  1.7326  1.3153 -0.1265
   80CHL1  H26B 8395   0.302   1.913   8.178  0.4710 -0.1792  0.9663
   80CHL1  H26C 8396   0.365   1.987   8.337 -0.5771  1.7010  0.3009
   80CHL1   C27 8397   0.599   1.912   8.203  0.0481  0.4929  0.5930
   80CHL1  H27A 8398   0.689   1.930   8.141 -0.1729  1.9595  0.6530
   80CHL1  H27B 8399   0.620   1.928   8.311  3.3287  1.6029 -0.1034
   80CHL1  H27C 8400   0.554   1.813   8.184 -1.0375  1.1990 -0.6597
   81CHL1    C3 8401   6.812   2.735   6.611  0.0661 -0.0075 -0.2817
   81CHL1    H3 8402   6.732   2.676   6.562  0.0327 -0.1888 -0.0110
   81CHL1    O3 8403   6.900   2.782   6.515 -0.3145 -0.8535  0.1899
   81CHL1   H3' 8404   6.970   2.717   6.507 -0.8241 -1.1755 -4.2005
   81CHL1    C4 8405   6.735   2.852   6.678 -0.6634 -0.6289  0.7960
   81CHL1   H4A 8406   6.803   2.939   6.688 -0.2123 -0.6982 -1.2177
   81CHL1   H4B 8407   6.669   2.896   6.600  0.6577 -1.8146 -1.0564
   81CHL1    C5 8408   6.658   2.833   6.807 -0.0297 -0.1704 -0.3749
   81CHL1    C6 8409   6.525   2.867   6.818 -0.3487  0.5904 -0.4695
   81CHL1    H6 8410   6.462   2.917   6.743  0.7642  2.3209 -0.3035
   81CHL1    C7 8411   6.456   2.840   6.956 -0.3257 -0.1735 -0.7274
   81CHL1   H7A 8412   6.398   2.924   6.998  2.1079  1.2758 -0.0639
   81CHL1   H7B 8413   6.383   2.756   6.949  0.8201 -1.3385  0.6393
   81CHL1    C8 8414   6.551   2.796   7.073  0.1773 -0.2217  0.2395
   81CHL1    H8 8415   6.615   2.883   7.100  1.8082 -0.6935 -1.8736
   81CHL1   C14 8416   6.468   2.748   7.193 -1.1133 -0.2616  0.8916
   81CHL1   H14 8417   6.412   2.656   7.162 -0.8246 -0.7877  1.8895
   81CHL1   C15 8418   6.350   2.839   7.242 -0.2540 -0.0520  0.3842
   81CHL1  H15A 8419   6.373   2.947   7.250  0.9350 -0.2914  0.3096
   81CHL1  H15B 8420   6.265   2.823   7.172  0.5432 -0.3607 -0.5278
   81CHL1   C16 8421   6.322   2.774   7.379  0.4080  0.2631 -0.3154
   81CHL1  H16A 8422   6.309   2.857   7.452  0.3131  0.3272 -0.4046
   81CHL1  H16B 8423   6.233   2.707   7.377  0.0375  0.7609 -0.8482
   81CHL1   C17 8424   6.442   2.674   7.410 -0.4215 -0.3629  0.8355
   81CHL1   H17 8425   6.413   2.577   7.366 -0.2210  0.8564 -2.2052
   81CHL1   C13 8426   6.560   2.712   7.316 -0.7371  0.5470 -0.2046
   81CHL1   C18 8427   6.637   2.837   7.373  0.2346  0.4394 -0.0233
   81CHL1  H18A 8428   6.711   2.890   7.310  0.5112  0.9098  0.6761
   81CHL1  H18B 8429   6.578   2.925   7.407  1.2995  1.0931  0.1959
   81CHL1  H18C 8430   6.692   2.801   7.463 -1.0725 -1.9540 -0.0937
   81CHL1   C12 8431   6.653   2.597   7.275 -0.6624 -0.8357  0.3572
   81CHL1  H12A 8432   6.714   2.567   7.363  0.6884  1.3745  0.2332
   81CHL1  H12B 8433   6.592   2.506   7.255 -0.6933 -0.8133  0.3495
   81CHL1   C11 8434   6.729   2.627   7.143 -0.2579  1.2343 -1.2194
   81CHL1  H11A 8435   6.812   2.692   7.180  1.2397  0.0376 -2.3757
   81CHL1  H11B 8436   6.773   2.532   7.106  0.2435  1.0013 -0.0827
   81CHL1    C9 8437   6.646   2.686   7.024 -0.5492  0.3758  0.1262
   81CHL1    H9 8438   6.583   2.600   6.994  0.3280  0.3961 -1.9438
   81CHL1   C10 8439   6.736   2.740   6.908 -0.5884  0.1224  0.0177
   81CHL1   C19 8440   6.846   2.834   6.964  0.3834 -0.5197  0.4810
   81CHL1  H19A 8441   6.796   2.928   6.996  0.7869  1.0213 -2.9060
   81CHL1  H19B 8442   6.901   2.791   7.051  0.4552  4.0304  3.0127
   81CHL1  H19C 8443   6.921   2.866   6.889 -0.3075  2.4035  0.9200
   81CHL1    C1 8444   6.794   2.622   6.825  0.1389  0.4245  0.2001
   81CHL1   H1A 8445   6.851   2.552   6.890  0.7582  0.8491  0.1184
   81CHL1   H1B 8446   6.708   2.560   6.790  0.4072 -2.3183  3.7092
   81CHL1    C2 8447   6.887   2.662   6.712 -0.0897  0.1658 -0.6783
   81CHL1   H2A 8448   6.928   2.566   6.673 -0.0362  0.0742 -0.4003
   81CHL1   H2B 8449   6.975   2.718   6.749  0.0486 -0.5059  0.0424
   81CHL1   C20 8450   6.469   2.650   7.565  0.0076  0.2030 -0.7161
   81CHL1   H20 8451   6.512   2.743   7.609 -0.9090 -0.3083  1.3762
   81CHL1   C21 8452   6.561   2.528   7.578  0.0833 -0.0041 -0.0881
   81CHL1  H21A 8453   6.525   2.438   7.525  2.4204 -0.8893 -0.3085
   81CHL1  H21B 8454   6.577   2.505   7.686 -3.0023  1.7685  0.8595
   81CHL1  H21C 8455   6.667   2.546   7.548  0.3045  0.7518  1.0813
   81CHL1   C22 8456   6.337   2.618   7.637  0.2632  0.0391  0.6197
   81CHL1  H22A 8457   6.270   2.707   7.635  1.5344  1.0171 -0.6973
   81CHL1  H22B 8458   6.281   2.542   7.578 -1.8475  1.7458  0.2968
   81CHL1   C23 8459   6.345   2.584   7.786 -0.3605 -0.1323 -0.6688
   81CHL1  H23A 8460   6.411   2.496   7.805 -0.0649  0.2396  0.0517
   81CHL1  H23B 8461   6.401   2.665   7.837  1.2431 -2.0964  0.9112
   81CHL1   C24 8462   6.204   2.557   7.857 -0.3029  0.3139 -0.4736
   81CHL1  H24A 8463   6.137   2.645   7.870 -1.5974 -0.9168  1.6742
   81CHL1  H24B 8464   6.160   2.486   7.784  1.5943  1.1138 -2.5238
   81CHL1   C25 8465   6.215   2.500   7.995 -0.1523  0.5299  0.2323
   81CHL1   H25 8466   6.280   2.409   7.993 -1.5832 -0.5292 -1.2351
   81CHL1   C26 8467   6.283   2.595   8.097 -0.2157  0.6380 -0.0914
   81CHL1  H26A 8468   6.367   2.652   8.055  1.2619 -1.3001  0.0950
   81CHL1  H26B 8469   6.215   2.674   8.136  1.0275  0.8847  1.7220
   81CHL1  H26C 8470   6.324   2.532   8.179 -0.9090  0.1297 -0.1178
   81CHL1   C27 8471   6.077   2.449   8.057  0.8119 -0.1929 -0.2714
   81CHL1  H27A 8472   6.010   2.537   8.048 -2.2227 -2.4518 -1.0607
   81CHL1  H27B 8473   6.030   2.363   8.006 -1.2703 -0.9348  2.6535
   81CHL1  H27C 8474   6.087   2.412   8.161  0.8622 -0.0592 -0.2289
   82CHL1    C3 8475   0.693   3.650   6.890  1.0310  0.1597  0.1617
   82CHL1    H3 8476   0.776   3.723   6.901  0.2075  0.9878  1.0890
   82CHL1    O3 8477   0.669   3.623   6.753 -0.2258  0.5260 -0.2034
   82CHL1   H3' 8478   0.706   3.696   6.704 -0.3689 -0.3921 -1.7509
   82CHL1    C4 8479   0.731   3.517   6.957  0.5350  0.2543  0.1924
   82CHL1   H4A 8480   0.643   3.451   6.942 -0.2172  1.3859 -0.5652
   82CHL1   H4B 8481   0.813   3.468   6.900 -0.5984  0.8721 -2.1073
   82CHL1    C5 8482   0.762   3.529   7.106 -0.7414 -0.4133 -0.0136
   82CHL1    C6 8483   0.880   3.509   7.164  0.2563  0.5458  0.3467
   82CHL1    H6 8484   0.961   3.472   7.100 -1.2572 -0.8349 -0.8744
   82CHL1    C7 8485   0.910   3.534   7.308 -0.1792  0.6007  0.2880
   82CHL1   H7A 8486   0.960   3.441   7.343 -1.2202 -0.1368 -0.1188
   82CHL1   H7B 8487   0.974   3.625   7.306 -1.2121  1.3517  0.2197
   82CHL1    C8 8488   0.786   3.550   7.392 -0.4750  0.3524 -0.1436
   82CHL1    H8 8489   0.730   3.454   7.397 -0.7420  0.4356 -1.2641
   82CHL1   C14 8490   0.832   3.601   7.525 -0.3803 -0.0754  0.0807
   82CHL1   H14 8491   0.886   3.693   7.496 -0.2771 -0.2717 -0.3648
   82CHL1   C15 8492   0.932   3.523   7.606 -0.9943  0.1733 -0.1151
   82CHL1  H15A 8493   0.902   3.416   7.612 -1.3868  0.1689 -1.6963
   82CHL1  H15B 8494   1.033   3.528   7.560 -0.4502 -0.2367  1.0033
   82CHL1   C16 8495   0.926   3.581   7.741 -0.4350 -0.0672  0.1007
   82CHL1  H16A 8496   0.917   3.501   7.818  0.2465  0.1036  0.3598
   82CHL1  H16B 8497   1.020   3.634   7.769 -0.4418 -0.7315  1.4513
   82CHL1   C17 8498   0.809   3.680   7.741 -0.6048  0.2657 -0.5699
   82CHL1   H17 8499   0.842   3.781   7.706 -1.9033  0.4136 -1.4063
   82CHL1   C13 8500   0.719   3.640   7.618 -1.0034  0.4476  0.3396
   82CHL1   C18 8501   0.639   3.511   7.649 -0.1676  0.0702 -0.2888
   82CHL1  H18A 8502   0.585   3.463   7.565 -1.1400 -1.6426  1.2235
   82CHL1  H18B 8503   0.696   3.428   7.696 -1.1547 -0.7640 -0.5209
   82CHL1  H18C 8504   0.566   3.527   7.732 -0.9372  1.0270 -1.1282
   82CHL1   C12 8505   0.628   3.746   7.550 -0.1850  0.7121  0.1108
   82CHL1  H12A 8506   0.547   3.772   7.622  0.1880  1.2471  0.3507
   82CHL1  H12B 8507   0.693   3.836   7.540  0.3991  0.5546  1.9977
   82CHL1   C11 8508   0.575   3.693   7.416  0.2282 -0.2128 -0.0047
   82CHL1  H11A 8509   0.503   3.609   7.429 -0.9221  1.0416  2.3631
   82CHL1  H11B 8510   0.515   3.778   7.376  0.6404 -0.1852 -0.5824
   82CHL1    C9 8511   0.692   3.651   7.326 -0.3777 -0.1271 -0.2272
   82CHL1    H9 8512   0.760   3.738   7.315  0.8384 -1.1171 -0.8953
   82CHL1   C10 8513   0.647   3.606   7.177  0.5790 -0.0718  0.3434
   82CHL1   C19 8514   0.528   3.508   7.187  0.6246  0.6100 -0.0755
   82CHL1  H19A 8515   0.435   3.568   7.201 -0.4014 -0.8250 -0.4975
   82CHL1  H19B 8516   0.504   3.444   7.099  0.3541 -2.2747  1.9525
   82CHL1  H19C 8517   0.544   3.433   7.267 -2.4534 -0.2337 -0.1065
   82CHL1    C1 8518   0.583   3.730   7.100 -0.3775  0.1452  0.4085
   82CHL1   H1A 8519   0.477   3.752   7.127 -0.8863  0.1713 -1.4704
   82CHL1   H1B 8520   0.637   3.826   7.115 -1.2371  0.8530 -0.8587
   82CHL1    C2 8521   0.569   3.710   6.944  0.1916 -0.3832 -0.2814
   82CHL1   H2A 8522   0.552   3.806   6.890  1.0653  0.3583  0.7150
   82CHL1   H2B 8523   0.487   3.636   6.930  0.1222 -0.5536  0.9578
   82CHL1   C20 8524   0.746   3.673   7.881  0.2167 -0.1000 -0.9181
   82CHL1   H20 8525   0.708   3.570   7.897 -0.4807  0.4626  1.3284
   82CHL1   C21 8526   0.628   3.773   7.894 -0.2987 -0.6938 -0.8975
   82CHL1  H21A 8527   0.571   3.758   7.988 -2.1856  0.7297 -1.7541
   82CHL1  H21B 8528   0.551   3.757   7.815 -0.2484 -0.2704 -1.0343
   82CHL1  H21C 8529   0.672   3.875   7.892 -2.2862  0.3360  1.8212
   82CHL1   C22 8530   0.843   3.698   8.006 -0.1306 -0.1021  0.6063
   82CHL1  H22A 8531   0.946   3.708   7.964 -0.2341  1.1718  0.6352
   82CHL1  H22B 8532   0.825   3.801   8.041  0.8464 -0.1480  1.3019
   82CHL1   C23 8533   0.826   3.596   8.118 -0.0018  0.0402  0.2371
   82CHL1  H23A 8534   0.729   3.551   8.148 -1.9988  2.8878 -1.3969
   82CHL1  H23B 8535   0.884   3.507   8.084 -0.8891  0.0296 -1.3567
   82CHL1   C24 8536   0.919   3.632   8.245 -0.3708 -0.4188  0.6475
   82CHL1  H24A 8537   1.012   3.672   8.201 -0.2425  1.3477  2.3875
   82CHL1  H24B 8538   0.871   3.711   8.308  1.7411  2.2298 -0.8602
   82CHL1   C25 8539   0.951   3.513   8.342 -0.3588 -0.4731 -0.1835
   82CHL1   H25 8540   1.010   3.437   8.285  0.4442  0.5487 -0.7395
   82CHL1   C26 8541   1.038   3.568   8.459 -0.3858 -0.1164 -0.2766
   82CHL1  H26A 8542   1.142   3.596   8.433  0.0423 -0.0148  1.4038
   82CHL1  H26B 8543   1.001   3.662   8.505  0.8631  0.8347 -1.1823
   82CHL1  H26C 8544   1.055   3.490   8.537  0.3310 -1.1402 -1.4216
   82CHL1   C27 8545   0.830   3.441   8.404 -0.9652  0.6262  0.9523
   82CHL1  H27A 8546   0.757   3.410   8.325  0.4939 -0.7694  0.1013
   82CHL1  H27B 8547   0.870   3.345   8.442  0.7979  0.1374 -1.8667
   82CHL1  H27C 8548   0.781   3.505   8.480 -4.0764  0.7303 -0.9653
   83CHL1    C3 8549   3.439   2.352   6.781  0.0226  0.2053 -0.0924
   83CHL1    H3 8550   3.388   2.435   6.835 -0.0241  0.2690 -0.2367
   83CHL1    O3 8551   3.425   2.386   6.640  0.4414 -0.3642  0.0608
   83CHL1   H3' 8552   3.473   2.468   6.626 -1.0128  0.1932 -2.1435
   83CHL1    C4 8553   3.589   2.359   6.830 -0.3260 -0.2178  0.3386
   83CHL1   H4A 8554   3.664   2.300   6.774  0.9945  1.7583 -0.0649
   83CHL1   H4B 8555   3.614   2.466   6.817  1.8388 -0.4647  2.0366
   83CHL1    C5 8556   3.597   2.315   6.975  0.7482 -0.1751 -0.0712
   83CHL1    C6 8557   3.650   2.386   7.074  0.8772 -0.2204  0.1450
   83CHL1    H6 8558   3.689   2.484   7.041 -0.7197  1.0472  1.8181
   83CHL1    C7 8559   3.677   2.346   7.217  0.5499  0.2200 -0.1478
   83CHL1   H7A 8560   3.784   2.371   7.235  0.7432  0.0036 -0.9354
   83CHL1   H7B 8561   3.612   2.418   7.270  1.1976  0.5740  0.1692
   83CHL1    C8 8562   3.647   2.191   7.240  0.3725  0.5051  1.0289
   83CHL1    H8 8563   3.734   2.137   7.196 -0.6849 -0.6277  0.2631
   83CHL1   C14 8564   3.632   2.174   7.393 -0.7116 -0.1255 -0.0591
   83CHL1   H14 8565   3.538   2.228   7.414 -1.5464 -2.2550  2.1454
   83CHL1   C15 8566   3.734   2.236   7.479  0.5383 -0.0220  0.4685
   83CHL1  H15A 8567   3.832   2.227   7.427  0.1849  0.1302 -0.2286
   83CHL1  H15B 8568   3.700   2.338   7.508 -0.4844 -0.1100 -0.4066
   83CHL1   C16 8569   3.738   2.153   7.606 -0.1384 -0.6407  0.2000
   83CHL1  H16A 8570   3.839   2.110   7.624 -1.0247 -1.5715  3.6034
   83CHL1  H16B 8571   3.723   2.213   7.698 -2.5506  0.7036 -0.9937
   83CHL1   C17 8572   3.630   2.044   7.585  0.0638  0.7129 -0.9746
   83CHL1   H17 8573   3.536   2.089   7.623 -0.5880 -1.2440 -0.1796
   83CHL1   C13 8574   3.621   2.029   7.428  0.0409  0.0668  0.2757
   83CHL1   C18 8575   3.736   1.940   7.383 -0.0861  0.3540  0.3525
   83CHL1  H18A 8576   3.728   1.925   7.273 -1.9768 -3.2135  0.8440
   83CHL1  H18B 8577   3.834   1.988   7.402 -0.9983  1.4452  2.7350
   83CHL1  H18C 8578   3.740   1.846   7.442  2.3144 -0.0779 -0.3963
   83CHL1   C12 8579   3.484   1.980   7.364 -0.5333 -1.0403 -0.5716
   83CHL1  H12A 8580   3.461   1.873   7.382 -0.5557 -1.0713 -0.7904
   83CHL1  H12B 8581   3.395   2.028   7.410  0.5557  0.7513 -0.2560
   83CHL1   C11 8582   3.487   1.997   7.207 -0.1966 -0.3188  0.1613
   83CHL1  H11A 8583   3.559   1.925   7.163  0.7578  0.2250  0.8182
   83CHL1  H11B 8584   3.384   1.977   7.169 -0.3256  0.0528  0.3156
   83CHL1    C9 8585   3.525   2.144   7.161 -1.0197  0.7278  0.0303
   83CHL1    H9 8586   3.441   2.206   7.200  0.0944  1.0319  2.1104
   83CHL1   C10 8587   3.539   2.174   7.007  0.7535  0.4962 -0.0453
   83CHL1   C19 8588   3.641   2.065   6.946  0.2071  0.4298 -0.0419
   83CHL1  H19A 8589   3.730   2.046   7.009  1.0469  1.0980 -0.9960
   83CHL1  H19B 8590   3.589   1.968   6.932 -0.9976  0.8123  1.4943
   83CHL1  H19C 8591   3.680   2.104   6.849  0.2403 -0.3814 -0.3612
   83CHL1    C1 8592   3.395   2.164   6.951 -0.0817  0.5356 -0.0708
   83CHL1   H1A 8593   3.356   2.060   6.961 -1.2045  0.9774  0.2361
   83CHL1   H1B 8594   3.324   2.239   6.990 -0.1095  0.2865  0.3641
   83CHL1    C2 8595   3.388   2.209   6.803 -0.4056  0.0169 -0.0020
   83CHL1   H2A 8596   3.284   2.199   6.766 -0.2620  0.9016 -0.6938
   83CHL1   H2B 8597   3.450   2.142   6.739  0.8511 -1.0619  2.2340
   83CHL1   C20 8598   3.631   1.918   7.676 -0.0410 -0.2326  0.8996
   83CHL1   H20 8599   3.730   1.868   7.675  0.6419  1.0618 -0.5478
   83CHL1   C21 8600   3.541   1.807   7.629 -0.1057 -0.9691 -0.2790
   83CHL1  H21A 8601   3.559   1.719   7.694 -1.1793 -0.8561  0.1884
   83CHL1  H21B 8602   3.566   1.788   7.523 -3.1651  3.2766 -2.0201
   83CHL1  H21C 8603   3.434   1.836   7.622  0.1523  0.5117  1.3527
   83CHL1   C22 8604   3.602   1.957   7.824  0.5619 -0.8176  0.9610
   83CHL1  H22A 8605   3.678   2.033   7.853 -3.0089  3.2334  0.7280
   83CHL1  H22B 8606   3.501   2.003   7.833 -0.8102 -2.9812 -1.7661
   83CHL1   C23 8607   3.588   1.828   7.920 -0.0361 -0.6638 -0.6219
   83CHL1  H23A 8608   3.499   1.766   7.895  0.0520 -1.0228 -0.0808
   83CHL1  H23B 8609   3.672   1.760   7.896 -1.3818 -2.1184 -1.3997
   83CHL1   C24 8610   3.593   1.869   8.070 -0.0176  0.5493 -0.0910
   83CHL1  H24A 8611   3.675   1.940   8.094  1.1108 -0.9061  0.5318
   83CHL1  H24B 8612   3.497   1.915   8.102 -1.2099 -1.2564 -0.9118
   83CHL1   C25 8613   3.601   1.746   8.157  0.5279  0.4033  0.2468
   83CHL1   H25 8614   3.531   1.666   8.125 -1.0895  0.6106  2.9119
   83CHL1   C26 8615   3.744   1.699   8.173 -0.0559  0.1330  0.1509
   83CHL1  H26A 8616   3.786   1.702   8.070 -0.6376  3.0709 -0.0952
   83CHL1  H26B 8617   3.792   1.772   8.241  0.4294 -0.2206  0.1995
   83CHL1  H26C 8618   3.747   1.593   8.207 -0.0317  0.1915  0.3310
   83CHL1   C27 8619   3.552   1.775   8.302 -1.2205  0.0156  0.1157
   83CHL1  H27A 8620   3.446   1.809   8.299 -0.8316  1.2447 -1.7239
   83CHL1  H27B 8621   3.572   1.686   8.365 -1.7743  0.3520  0.7929
   83CHL1  H27C 8622   3.606   1.867   8.335  0.7459 -0.9195 -0.3708
   84CHL1    C3 8623   5.358   1.666   6.647  0.1836 -0.5278  0.8910
   84CHL1    H3 8624   5.411   1.746   6.703  1.3069 -0.4484 -0.2519
   84CHL1    O3 8625   5.380   1.667   6.505 -0.4171  0.1683 -0.0406
   84CHL1   H3' 8626   5.475   1.667   6.494 -0.2554  0.0447  1.2529
   84CHL1    C4 8627   5.412   1.536   6.705  0.3293 -1.2393  0.0384
   84CHL1   H4A 8628   5.356   1.451   6.659 -0.3455 -1.2166  0.7870
   84CHL1   H4B 8629   5.519   1.528   6.678 -0.0280  0.9196 -2.3895
   84CHL1    C5 8630   5.380   1.523   6.853  0.1774  0.7391 -1.0067
   84CHL1    C6 8631   5.478   1.503   6.939 -0.5568  0.7890 -0.3446
   84CHL1    H6 8632   5.580   1.486   6.903 -1.5568  0.6019 -3.3263
   84CHL1    C7 8633   5.451   1.506   7.083 -0.9719  0.3825  0.0928
   84CHL1   H7A 8634   5.507   1.420   7.126  0.8189  0.3916 -2.0525
   84CHL1   H7B 8635   5.488   1.599   7.131  2.9040 -1.1778  0.5164
   84CHL1    C8 8636   5.304   1.480   7.127  0.1062  0.7431 -0.4490
   84CHL1    H8 8637   5.281   1.374   7.102 -0.2106  0.7831 -0.3237
   84CHL1   C14 8638   5.294   1.496   7.279 -0.1249 -1.1862 -0.0345
   84CHL1   H14 8639   5.315   1.603   7.296 -0.4964 -1.1116 -0.0406
   84CHL1   C15 8640   5.383   1.419   7.382 -0.2381  0.2325  0.8668
   84CHL1  H15A 8641   5.376   1.315   7.345 -1.8939  1.2525 -1.9909
   84CHL1  H15B 8642   5.490   1.449   7.378 -0.2381  0.1088 -2.3574
   84CHL1   C16 8643   5.314   1.429   7.519  0.0818  0.5467 -0.2760
   84CHL1  H16A 8644   5.307   1.325   7.556 -2.0942  0.9083  0.4242
   84CHL1  H16B 8645   5.379   1.491   7.586 -0.1777 -0.7077  1.1817
   84CHL1   C17 8646   5.178   1.490   7.482 -0.1040 -0.3618 -0.0546
   84CHL1   H17 8647   5.193   1.597   7.506  1.3582 -0.3833 -0.7417
   84CHL1   C13 8648   5.155   1.479   7.331  0.2146  0.0708  0.6193
   84CHL1   C18 8649   5.109   1.334   7.300  0.6194 -0.2218 -0.4994
   84CHL1  H18A 8650   5.164   1.254   7.354  2.1844 -0.4386 -2.2912
   84CHL1  H18B 8651   5.005   1.320   7.335  1.1128  1.4448  1.8347
   84CHL1  H18C 8652   5.112   1.303   7.193 -0.2330 -2.7075  0.1161
   84CHL1   C12 8653   5.058   1.583   7.258 -0.3502 -0.1152  0.3303
   84CHL1  H12A 8654   4.952   1.557   7.283 -1.7684  2.6487 -2.1339
   84CHL1  H12B 8655   5.089   1.685   7.287 -0.3938  0.7838 -2.4967
   84CHL1   C11 8656   5.071   1.578   7.096  0.0730  0.0836 -0.0989
   84CHL1  H11A 8657   5.033   1.480   7.060  2.3241 -1.0077  0.3500
   84CHL1  H11B 8658   5.015   1.661   7.048 -1.2851 -1.0194 -0.5136
   84CHL1    C9 8659   5.216   1.574   7.047 -0.3398  0.1587 -0.2661
   84CHL1    H9 8660   5.255   1.677   7.064 -0.2636  0.0813  0.0285
   84CHL1   C10 8661   5.235   1.552   6.893  0.4939  0.7288  0.0322
   84CHL1   C19 8662   5.145   1.432   6.845  0.7827 -0.4790  0.3997
   84CHL1  H19A 8663   5.037   1.456   6.853  0.6706  0.7319 -2.9305
   84CHL1  H19B 8664   5.164   1.409   6.738  0.3784  4.2343 -0.9123
   84CHL1  H19C 8665   5.166   1.340   6.904  3.2569  0.2200  0.7152
   84CHL1    C1 8666   5.170   1.678   6.822  0.0055  0.4075 -0.2155
   84CHL1   H1A 8667   5.060   1.679   6.837  0.0345  1.7005 -0.0157
   84CHL1   H1B 8668   5.208   1.761   6.885  1.5986 -0.6760  0.3365
   84CHL1    C2 8669   5.207   1.688   6.674  0.1603  0.1998  0.5480
   84CHL1   H2A 8670   5.177   1.787   6.633 -1.6944  0.0580  1.4635
   84CHL1   H2B 8671   5.159   1.611   6.611 -1.5498  2.9164 -1.7506
   84CHL1   C20 8672   5.060   1.452   7.578  0.2692  0.2693 -0.6319
   84CHL1   H20 8673   5.005   1.360   7.550 -0.6453  0.2819  0.9680
   84CHL1   C21 8674   4.959   1.564   7.570  0.2130  0.2515 -0.0651
   84CHL1  H21A 8675   4.998   1.647   7.631 -2.1090  1.3489  0.0494
   84CHL1  H21B 8676   4.862   1.533   7.614  1.6466 -1.9848  1.7795
   84CHL1  H21C 8677   4.942   1.597   7.465  0.1765 -0.5580 -0.3218
   84CHL1   C22 8678   5.100   1.428   7.727  0.6917 -0.2509  0.2150
   84CHL1  H22A 8679   5.164   1.337   7.733 -0.0187 -0.8673 -1.0829
   84CHL1  H22B 8680   5.169   1.513   7.748 -0.1942  1.0627 -1.7486
   84CHL1   C23 8681   4.989   1.423   7.840  0.4884 -0.0901 -0.0669
   84CHL1  H23A 8682   4.933   1.519   7.848  1.4144  0.3753  1.2054
   84CHL1  H23B 8683   4.924   1.338   7.812  1.5042 -0.1868 -2.3949
   84CHL1   C24 8684   5.047   1.409   7.977 -0.2272  0.0952  0.0985
   84CHL1  H24A 8685   5.083   1.304   7.977 -3.7282 -1.2654 -1.6236
   84CHL1  H24B 8686   5.130   1.483   7.985 -2.7584  3.3225 -1.0933
   84CHL1   C25 8687   4.957   1.420   8.107 -0.2392  0.0263 -0.0460
   84CHL1   H25 8688   4.888   1.506   8.116  0.4428  0.6567 -0.6923
   84CHL1   C26 8689   4.862   1.303   8.093  0.2962  0.3287  0.3067
   84CHL1  H26A 8690   4.784   1.326   8.018  1.9014  2.6629 -0.7737
   84CHL1  H26B 8691   4.904   1.206   8.057 -1.2159 -0.7757  1.3680
   84CHL1  H26C 8692   4.819   1.284   8.194 -0.6198  0.3463 -0.0701
   84CHL1   C27 8693   5.041   1.412   8.237 -0.4910 -0.1847 -0.2363
   84CHL1  H27A 8694   5.093   1.505   8.266  0.7053 -0.9994  0.3164
   84CHL1  H27B 8695   4.985   1.393   8.331 -0.1544 -1.4375 -0.2641
   84CHL1  H27C 8696   5.128   1.343   8.225  1.6878  2.3577 -0.0013
   85CHL1    C3 8697   5.824   5.314   6.644 -0.1804  0.0138  0.5334
   85CHL1    H3 8698   5.915   5.259   6.615 -1.4193 -0.8802 -1.9043
   85CHL1    O3 8699   5.756   5.332   6.522 -0.5154  0.1518 -0.0759
   85CHL1   H3' 8700   5.703   5.412   6.524 -0.2420  0.5219 -2.8836
   85CHL1    C4 8701   5.743   5.223   6.735  0.0324 -0.3696  0.1961
   85CHL1   H4A 8702   5.638   5.258   6.741 -0.6813 -2.1016 -1.4487
   85CHL1   H4B 8703   5.736   5.124   6.687 -0.9301  0.1489 -0.7620
   85CHL1    C5 8704   5.802   5.219   6.869 -0.3098  0.1151 -0.3010
   85CHL1    C6 8705   5.839   5.103   6.930  0.7884 -0.1728 -0.4517
   85CHL1    H6 8706   5.804   5.003   6.902 -0.5024 -0.1217  0.8160
   85CHL1    C7 8707   5.897   5.096   7.064 -0.5057  0.6688  0.6927
   85CHL1   H7A 8708   5.840   5.022   7.125  0.6291  0.4623  1.5377
   85CHL1   H7B 8709   6.000   5.057   7.064 -0.9829 -0.6750 -0.6531
   85CHL1    C8 8710   5.877   5.225   7.151  0.7600 -0.3800  0.6038
   85CHL1    H8 8711   5.772   5.232   7.185  1.2612  0.5935  2.0146
   85CHL1   C14 8712   5.974   5.214   7.275 -0.4696 -0.0127 -0.4566
   85CHL1   H14 8713   6.078   5.204   7.237  0.3044  1.1264  1.2275
   85CHL1   C15 8714   5.947   5.090   7.361 -0.1625 -0.1934 -0.2825
   85CHL1  H15A 8715   5.839   5.086   7.387 -0.4851 -0.5191 -1.6033
   85CHL1  H15B 8716   5.975   4.993   7.313 -0.6605  0.3488 -1.7254
   85CHL1   C16 8717   6.027   5.129   7.486  0.1320  0.0538  0.4903
   85CHL1  H16A 8718   5.960   5.113   7.573 -2.8746  1.8794 -1.3382
   85CHL1  H16B 8719   6.122   5.071   7.492  0.7144  1.0623  1.6668
   85CHL1   C17 8720   6.079   5.278   7.472 -0.2598  0.1086 -0.0531
   85CHL1   H17 8721   6.172   5.270   7.411 -1.2295 -0.4191 -1.5315
   85CHL1   C13 8722   5.984   5.341   7.365  0.2543 -0.4263  0.1801
   85CHL1   C18 8723   5.848   5.381   7.435  0.4051  0.6908  0.3133
   85CHL1  H18A 8724   5.866   5.456   7.514  0.3802  2.8706 -1.6453
   85CHL1  H18B 8725   5.772   5.421   7.365 -0.0947 -0.5127  0.1478
   85CHL1  H18C 8726   5.810   5.290   7.486  0.1942  1.5315  1.6949
   85CHL1   C12 8727   6.032   5.455   7.273 -0.2550 -0.0427 -0.7373
   85CHL1  H12A 8728   6.035   5.550   7.330 -1.6537 -0.2448 -0.2782
   85CHL1  H12B 8729   6.133   5.422   7.241  0.0887 -0.4538  0.6913
   85CHL1   C11 8730   5.938   5.468   7.150 -0.3119  0.0279 -0.4464
   85CHL1  H11A 8731   5.838   5.503   7.182 -0.4005 -1.0008  0.4828
   85CHL1  H11B 8732   5.983   5.548   7.088  0.4149  0.4342  0.5853
   85CHL1    C9 8733   5.925   5.338   7.066  0.1412 -0.0844 -0.3687
   85CHL1    H9 8734   6.027   5.306   7.037 -0.5078 -2.0396 -0.5979
   85CHL1   C10 8735   5.836   5.362   6.933  0.3126  0.5687  0.1998
   85CHL1   C19 8736   5.706   5.428   6.971  0.9340 -0.5072 -0.3228
   85CHL1  H19A 8737   5.628   5.429   6.892 -0.8250 -1.1799  1.3374
   85CHL1  H19B 8738   5.662   5.384   7.063 -2.8225 -0.5745 -1.9710
   85CHL1  H19C 8739   5.716   5.537   6.990 -2.7015 -0.2755  0.9672
   85CHL1    C1 8740   5.915   5.444   6.830  0.0119 -0.9186 -0.2775
   85CHL1   H1A 8741   5.941   5.545   6.868 -2.4050  0.0372 -0.9965
   85CHL1   H1B 8742   6.015   5.394   6.827  0.0975 -0.6806 -2.2626
   85CHL1    C2 8743   5.855   5.455   6.692  0.3149  1.1789 -0.2703
   85CHL1   H2A 8744   5.912   5.515   6.617 -1.3676  0.1143 -2.5184
   85CHL1   H2B 8745   5.762   5.514   6.705 -0.2854  0.3875 -0.8479
   85CHL1   C20 8746   6.099   5.353   7.602  0.1165 -0.1757 -0.2628
   85CHL1   H20 8747   6.001   5.380   7.646  0.9775 -0.1076  1.7233
   85CHL1   C21 8748   6.179   5.486   7.568  0.1783 -0.2210 -0.4476
   85CHL1  H21A 8749   6.212   5.534   7.663 -2.6672  1.1665 -0.0506
   85CHL1  H21B 8750   6.113   5.553   7.510 -0.1406  1.4121  1.6644
   85CHL1  H21C 8751   6.268   5.444   7.516  0.6712 -2.8271  2.1746
   85CHL1   C22 8752   6.177   5.271   7.704  0.1257 -0.3359 -0.5715
   85CHL1  H22A 8753   6.129   5.176   7.735 -0.7389  0.2289 -0.1664
   85CHL1  H22B 8754   6.274   5.238   7.661  1.2948 -0.1256  1.7490
   85CHL1   C23 8755   6.221   5.339   7.837 -0.0067 -0.2712 -0.0899
   85CHL1  H23A 8756   6.289   5.270   7.891 -0.7199  0.0510  1.2602
   85CHL1  H23B 8757   6.287   5.426   7.815 -4.1233  2.8998 -1.0677
   85CHL1   C24 8758   6.112   5.379   7.933 -0.4371 -0.5860 -0.1298
   85CHL1  H24A 8759   6.034   5.439   7.882  1.8659  0.9437 -2.0530
   85CHL1  H24B 8760   6.080   5.278   7.965 -2.4151 -0.7762 -2.4068
   85CHL1   C25 8761   6.161   5.450   8.063  0.3358  0.2806  0.0914
   85CHL1   H25 8762   6.242   5.387   8.105  0.0044  0.5286  1.1327
   85CHL1   C26 8763   6.223   5.579   8.027 -0.0478 -1.0566 -0.2336
   85CHL1  H26A 8764   6.303   5.570   7.951  0.9046  0.6854  0.5182
   85CHL1  H26B 8765   6.151   5.654   7.988  0.8296 -1.1946 -2.2286
   85CHL1  H26C 8766   6.268   5.627   8.117  2.6742  0.3469 -2.2013
   85CHL1   C27 8767   6.048   5.469   8.158 -0.7777 -0.4150  0.1250
   85CHL1  H27A 8768   6.080   5.490   8.263  0.2456  2.4402 -0.6513
   85CHL1  H27B 8769   5.976   5.543   8.117 -3.2671 -2.5040  0.4991
   85CHL1  H27C 8770   5.984   5.379   8.156 -0.4518 -0.6437 -0.1634
   86CHL1    C3 8771   1.804   1.538   6.850 -0.4833  0.2406  0.0045
   86CHL1    H3 8772   1.760   1.637   6.872  0.0591  0.2798  0.9567
   86CHL1    O3 8773   1.792   1.527   6.711 -1.0146  0.4101  0.2133
   86CHL1   H3' 8774   1.852   1.456   6.689 -0.6836  0.8817 -0.4360
   86CHL1    C4 8775   1.954   1.536   6.890 -0.4040 -0.1573  0.3385
   86CHL1   H4A 8776   1.997   1.441   6.850 -3.2332 -1.9537  1.2345
   86CHL1   H4B 8777   2.000   1.612   6.824 -0.9798  0.6163  0.8083
   86CHL1    C5 8778   1.966   1.570   7.032  0.1161  0.0904  0.1709
   86CHL1    C6 8779   2.035   1.671   7.072  0.4221 -0.1481  0.1257
   86CHL1    H6 8780   2.097   1.731   7.003  1.3548 -0.6717  0.4889
   86CHL1    C7 8781   2.059   1.707   7.215  0.1477 -0.5693  0.2229
   86CHL1   H7A 8782   2.165   1.727   7.240 -0.1105  2.7857 -0.8448
   86CHL1   H7B 8783   2.013   1.805   7.243  0.9133  0.0898 -0.7622
   86CHL1    C8 8784   2.019   1.599   7.310  0.3743 -0.4331  0.5681
   86CHL1    H8 8785   2.093   1.517   7.304 -2.4322 -3.3433  2.1830
   86CHL1   C14 8786   2.017   1.647   7.456 -0.5638 -0.1827  0.2714
   86CHL1   H14 8787   1.932   1.718   7.463  0.0324  0.7556 -1.3242
   86CHL1   C15 8788   2.149   1.714   7.508  0.5568 -0.7052  0.7234
   86CHL1  H15A 8789   2.234   1.658   7.464 -0.2443 -2.0008  0.7975
   86CHL1  H15B 8790   2.151   1.822   7.480  1.5497 -1.3397 -1.9044
   86CHL1   C16 8791   2.148   1.694   7.660 -0.4780 -0.2287 -0.6973
   86CHL1  H16A 8792   2.240   1.644   7.698 -0.5622  0.8771  1.0553
   86CHL1  H16B 8793   2.143   1.794   7.708 -0.5343 -0.5946  0.0776
   86CHL1   C17 8794   2.012   1.618   7.691 -0.1618 -0.5226 -0.8043
   86CHL1   H17 8795   1.948   1.709   7.691  0.4120 -0.0990  0.3214
   86CHL1   C13 8796   1.978   1.545   7.559 -0.5111  0.3999 -0.7044
   86CHL1   C18 8797   2.070   1.420   7.562 -0.5031  0.1915  0.3443
   86CHL1  H18A 8798   2.030   1.344   7.631 -2.6603  0.3479 -0.6467
   86CHL1  H18B 8799   2.078   1.366   7.465  2.5648 -0.1249  0.6720
   86CHL1  H18C 8800   2.175   1.438   7.594 -0.1452 -1.3319  0.1127
   86CHL1   C12 8801   1.834   1.506   7.523  0.2044  0.9520  0.1508
   86CHL1  H12A 8802   1.799   1.416   7.579  0.0285 -0.5527 -2.2126
   86CHL1  H12B 8803   1.759   1.588   7.523  0.2498  1.0122 -0.9719
   86CHL1   C11 8804   1.828   1.442   7.376 -0.8472 -0.5223 -0.2836
   86CHL1  H11A 8805   1.886   1.348   7.384 -0.7702 -0.3456  1.9410
   86CHL1  H11B 8806   1.723   1.410   7.362 -0.3872 -1.9572 -0.5996
   86CHL1    C9 8807   1.884   1.539   7.269 -0.4071  0.0960 -0.6855
   86CHL1    H9 8808   1.800   1.610   7.255  0.4620  0.9930 -1.4598
   86CHL1   C10 8809   1.891   1.477   7.122  0.2232  0.2102 -0.6522
   86CHL1   C19 8810   1.965   1.344   7.124 -1.4205  0.5156  0.2457
   86CHL1  H19A 8811   1.929   1.270   7.199  0.7951 -1.0527 -0.1127
   86CHL1  H19B 8812   1.951   1.296   7.025 -3.1747  0.7601  0.3451
   86CHL1  H19C 8813   2.072   1.365   7.148 -1.1103  1.8406 -2.0354
   86CHL1    C1 8814   1.740   1.458   7.076 -0.1917  0.4581  0.1401
   86CHL1   H1A 8815   1.698   1.383   7.147  0.4342  1.8113  2.0443
   86CHL1   H1B 8816   1.684   1.547   7.112 -0.1862  0.9037 -0.9142
   86CHL1    C2 8817   1.724   1.433   6.926  0.0701 -0.8937  0.2099
   86CHL1   H2A 8818   1.618   1.421   6.898 -0.5873  1.7638  1.2509
   86CHL1   H2B 8819   1.777   1.339   6.897  0.3245 -0.7633  0.2440
   86CHL1   C20 8820   1.999   1.550   7.826  0.4108 -0.0792 -0.1302
   86CHL1   H20 8821   2.031   1.444   7.821 -2.0290 -1.1064  2.8624
   86CHL1   C21 8822   1.847   1.545   7.884 -0.1021  0.1715  0.2955
   86CHL1  H21A 8823   1.778   1.507   7.806 -0.2881  0.3044  0.3969
   86CHL1  H21B 8824   1.823   1.649   7.916 -2.2178 -0.2709  0.2790
   86CHL1  H21C 8825   1.843   1.489   7.980  0.0990  2.0169  1.4256
   86CHL1   C22 8826   2.090   1.605   7.939 -0.0638 -0.5533 -0.6252
   86CHL1  H22A 8827   2.185   1.639   7.894 -1.4058  2.7881 -1.2646
   86CHL1  H22B 8828   2.033   1.691   7.981 -0.8308 -1.0128 -0.6935
   86CHL1   C23 8829   2.113   1.501   8.054 -0.1390 -0.2560  0.6448
   86CHL1  H23A 8830   2.017   1.474   8.103  0.9207 -0.6422  2.6021
   86CHL1  H23B 8831   2.141   1.402   8.013 -1.7000  0.2009 -1.7809
   86CHL1   C24 8832   2.206   1.551   8.160  0.2521  0.0108  0.4994
   86CHL1  H24A 8833   2.150   1.618   8.229 -1.6351  1.6734 -2.4278
   86CHL1  H24B 8834   2.255   1.470   8.218  2.2645 -0.7917 -2.1275
   86CHL1   C25 8835   2.337   1.628   8.127 -0.2317 -0.5530  0.4780
   86CHL1   H25 8836   2.303   1.716   8.069 -1.9581 -0.6380  1.2703
   86CHL1   C26 8837   2.419   1.674   8.249 -0.3338 -0.4071 -0.2864
   86CHL1  H26A 8838   2.423   1.603   8.334 -0.6809  1.0505  0.9892
   86CHL1  H26B 8839   2.521   1.685   8.205  0.2037  1.4565  1.2879
   86CHL1  H26C 8840   2.385   1.771   8.291 -0.8238 -1.0419  0.8225
   86CHL1   C27 8841   2.425   1.542   8.030  0.4733 -0.3174  0.2751
   86CHL1  H27A 8842   2.512   1.593   7.983  1.4494 -3.5887 -1.8283
   86CHL1  H27B 8843   2.473   1.465   8.095  0.6946 -0.7786 -0.4259
   86CHL1  H27C 8844   2.371   1.495   7.945  0.3949  2.1840 -1.1515
   87CHL1    C3 8845   1.030   2.766   6.883 -0.0314 -0.1577  0.5156
   87CHL1    H3 8846   1.086   2.861   6.889 -1.9847  1.2612 -1.8415
   87CHL1    O3 8847   1.000   2.735   6.745  0.2163  0.0422 -0.7134
   87CHL1   H3' 8848   0.995   2.640   6.732 -2.6829  0.1238 -0.8659
   87CHL1    C4 8849   1.121   2.651   6.937 -0.2662 -0.4440 -0.3928
   87CHL1   H4A 8850   1.078   2.551   6.912 -0.3097 -0.5839  0.2185
   87CHL1   H4B 8851   1.217   2.650   6.882  1.0668 -0.9303  1.7982
   87CHL1    C5 8852   1.159   2.673   7.085  0.0125 -0.5828 -1.0189
   87CHL1    C6 8853   1.283   2.689   7.127 -0.7703 -0.0323 -0.0473
   87CHL1    H6 8854   1.369   2.689   7.058  0.5268 -1.4482  1.5049
   87CHL1    C7 8855   1.315   2.712   7.270  0.1733 -0.5269 -0.3552
   87CHL1   H7A 8856   1.408   2.655   7.293  1.0711  0.9412 -0.2116
   87CHL1   H7B 8857   1.331   2.821   7.279 -0.5163 -0.4260 -0.2939
   87CHL1    C8 8858   1.195   2.671   7.372  0.4228 -0.0183  0.5523
   87CHL1    H8 8859   1.188   2.560   7.364  1.9074 -0.0785 -0.1471
   87CHL1   C14 8860   1.226   2.706   7.508 -0.5201 -0.0386 -0.4950
   87CHL1   H14 8861   1.236   2.816   7.503 -1.5807  0.0216 -2.1385
   87CHL1   C15 8862   1.361   2.658   7.573  0.1318 -0.1786 -0.0876
   87CHL1  H15A 8863   1.376   2.554   7.536 -0.8269  0.2285 -1.7442
   87CHL1  H15B 8864   1.450   2.712   7.535  0.4094 -1.2110 -0.9759
   87CHL1   C16 8865   1.336   2.679   7.723  0.1457 -0.6676  0.9257
   87CHL1  H16A 8866   1.366   2.594   7.787 -0.4509 -0.7031  1.1676
   87CHL1  H16B 8867   1.395   2.764   7.765  1.8896 -0.9084 -0.9247
   87CHL1   C17 8868   1.180   2.699   7.739 -0.3756 -0.2652  0.2823
   87CHL1   H17 8869   1.157   2.808   7.740  0.2337 -0.1143 -0.9220
   87CHL1   C13 8870   1.115   2.659   7.605 -0.0736 -0.8908  0.8036
   87CHL1   C18 8871   1.091   2.501   7.605  0.2216 -0.3388  0.4291
   87CHL1  H18A 8872   1.003   2.482   7.670  1.3519  0.0853  2.1421
   87CHL1  H18B 8873   1.078   2.458   7.503 -0.1182 -2.4546  1.3016
   87CHL1  H18C 8874   1.181   2.451   7.645  0.3368  0.7513  1.5934
   87CHL1   C12 8875   0.984   2.734   7.562  0.3220  0.0961 -0.2588
   87CHL1  H12A 8876   0.900   2.703   7.628  1.8302 -1.7874  0.8824
   87CHL1  H12B 8877   1.003   2.843   7.567  1.3334  0.0690 -2.4529
   87CHL1   C11 8878   0.946   2.702   7.424 -0.1491 -0.6823  0.1568
   87CHL1  H11A 8879   0.923   2.593   7.424 -2.0365 -0.3258  0.5809
   87CHL1  H11B 8880   0.859   2.763   7.393  1.1190  1.1433  0.0702
   87CHL1    C9 8881   1.063   2.729   7.325 -0.0506  0.2350 -0.0112
   87CHL1    H9 8882   1.075   2.840   7.326 -1.5850  0.4156  0.4905
   87CHL1   C10 8883   1.038   2.688   7.179  0.2963 -0.0581  0.4547
   87CHL1   C19 8884   0.970   2.549   7.179 -1.0723  0.2477 -0.2068
   87CHL1  H19A 8885   0.960   2.498   7.081  0.1520  0.4741 -0.4655
   87CHL1  H19B 8886   1.011   2.470   7.245 -4.7063 -1.8500 -0.2111
   87CHL1  H19C 8887   0.865   2.560   7.213 -2.0653 -2.1392 -2.2214
   87CHL1    C1 8888   0.943   2.791   7.115  0.0834 -0.4178  0.9770
   87CHL1   H1A 8889   0.840   2.795   7.158 -0.4390 -1.9896 -0.0545
   87CHL1   H1B 8890   0.979   2.896   7.124 -1.0314  0.1598 -0.7591
   87CHL1    C2 8891   0.905   2.774   6.961 -0.2140  0.1384  0.0531
   87CHL1   H2A 8892   0.843   2.859   6.924 -0.1439  0.7167  1.2367
   87CHL1   H2B 8893   0.842   2.683   6.952  0.4768 -0.1465 -3.6268
   87CHL1   C20 8894   1.125   2.645   7.871  0.1289  0.2497 -0.2565
   87CHL1   H20 8895   1.113   2.535   7.879 -0.7631  0.4565  1.6785
   87CHL1   C21 8896   0.982   2.699   7.881  0.0441  0.1509 -0.0018
   87CHL1  H21A 8897   0.985   2.808   7.862  2.9093  0.4010  1.4080
   87CHL1  H21B 8898   0.939   2.681   7.981  1.2651 -0.1826  0.4870
   87CHL1  H21C 8899   0.909   2.653   7.811 -0.7052  3.0872 -1.2870
   87CHL1   C22 8900   1.210   2.693   7.996  0.5651  0.8118  0.3968
   87CHL1  H22A 8901   1.315   2.666   7.970 -0.3736  0.7769 -4.2317
   87CHL1  H22B 8902   1.206   2.804   7.994  0.2053  0.7896 -0.5440
   87CHL1   C23 8903   1.169   2.638   8.126 -0.4318 -0.3078 -0.6772
   87CHL1  H23A 8904   1.083   2.690   8.172  0.9068  2.8005 -1.4664
   87CHL1  H23B 8905   1.145   2.530   8.115  2.6651 -1.0576 -0.9527
   87CHL1   C24 8906   1.279   2.657   8.229  0.6380 -0.3396  0.0297
   87CHL1  H24A 8907   1.362   2.587   8.207 -2.6510 -3.7849 -2.6663
   87CHL1  H24B 8908   1.326   2.757   8.218  1.8807 -0.8513  0.4786
   87CHL1   C25 8909   1.250   2.631   8.377 -0.8254 -0.0128  0.4396
   87CHL1   H25 8910   1.174   2.706   8.408 -1.2580 -0.5770  0.7630
   87CHL1   C26 8911   1.189   2.498   8.404 -0.1552  0.5829 -0.1462
   87CHL1  H26A 8912   1.249   2.412   8.367 -1.2521  0.9627 -3.0169
   87CHL1  H26B 8913   1.165   2.485   8.511  0.5515  2.4831  0.2971
   87CHL1  H26C 8914   1.096   2.491   8.344  0.7938  1.3778 -1.7680
   87CHL1   C27 8915   1.385   2.646   8.465  1.1618 -0.6317  0.9191
   87CHL1  H27A 8916   1.447   2.556   8.445 -0.4837 -1.6104  0.0149
   87CHL1  H27B 8917   1.442   2.735   8.431  1.2457  0.5337  3.7825
   87CHL1  H27C 8918   1.360   2.660   8.573  1.1006  0.2441  0.7972
   88CHL1    C3 8919   5.552   2.139   6.605  0.2818  0.3114 -0.4222
   88CHL1    H3 8920   5.530   2.235   6.656  0.1982 -0.0178  0.1778
   88CHL1    O3 8921   5.547   2.143   6.464 -0.5241  0.3501 -0.1763
   88CHL1   H3' 8922   5.570   2.052   6.444  0.8869  0.4234  0.9273
   88CHL1    C4 8923   5.701   2.114   6.646  0.3914  0.3100 -0.2456
   88CHL1   H4A 8924   5.744   2.020   6.606 -0.3155  0.3712 -1.1924
   88CHL1   H4B 8925   5.777   2.188   6.612  1.4279 -0.5338  0.1632
   88CHL1    C5 8926   5.713   2.101   6.795 -0.1088 -0.4635  0.1090
   88CHL1    C6 8927   5.798   2.178   6.870  0.0988 -0.7437  0.7864
   88CHL1    H6 8928   5.854   2.261   6.823 -4.3524  2.2406  0.1745
   88CHL1    C7 8929   5.815   2.155   7.016  0.4175  0.3428 -0.3347
   88CHL1   H7A 8930   5.924   2.161   7.036  0.0459 -0.1623  2.2197
   88CHL1   H7B 8931   5.769   2.239   7.072 -1.0859 -0.6836  0.0263
   88CHL1    C8 8932   5.766   2.024   7.074 -0.9075  0.5734 -0.0718
   88CHL1    H8 8933   5.840   1.945   7.048 -0.8094  0.2695  1.0745
   88CHL1   C14 8934   5.758   2.024   7.219 -0.0372  0.0781  0.0205
   88CHL1   H14 8935   5.686   2.107   7.234  1.2176  1.7273 -2.4235
   88CHL1   C15 8936   5.882   2.069   7.300  0.3740 -0.7840 -0.2411
   88CHL1  H15A 8937   5.972   2.023   7.254  0.3988 -0.2369 -0.7602
   88CHL1  H15B 8938   5.893   2.180   7.301  0.9941 -0.8353  1.4699
   88CHL1   C16 8939   5.861   2.008   7.439 -1.0629 -0.0277 -0.5798
   88CHL1  H16A 8940   5.949   1.946   7.466 -0.4543  1.2704  0.5606
   88CHL1  H16B 8941   5.852   2.095   7.508 -2.7062  0.6986 -1.6427
   88CHL1   C17 8942   5.724   1.941   7.434  0.3109 -0.9284  0.0618
   88CHL1   H17 8943   5.643   2.017   7.450 -0.0545 -1.6693  2.0786
   88CHL1   C13 8944   5.694   1.903   7.286  0.0129 -0.3908 -0.5290
   88CHL1   C18 8945   5.773   1.784   7.241  0.1199  0.6189 -0.2606
   88CHL1  H18A 8946   5.881   1.803   7.259  0.5243 -0.3563 -1.5142
   88CHL1  H18B 8947   5.742   1.696   7.301  1.4885  0.6038  0.4493
   88CHL1  H18C 8948   5.756   1.762   7.133  0.9679  3.1413 -0.9972
   88CHL1   C12 8949   5.549   1.899   7.238 -0.0998 -0.9019  0.1818
   88CHL1  H12A 8950   5.482   1.820   7.280 -1.2262 -0.8535 -1.4388
   88CHL1  H12B 8951   5.504   1.996   7.267  0.5793 -0.5626  0.1165
   88CHL1   C11 8952   5.532   1.893   7.089  0.6556 -0.0353  0.7269
   88CHL1  H11A 8953   5.546   1.789   7.054  2.5285  0.5328 -0.4148
   88CHL1  H11B 8954   5.432   1.931   7.059  2.2016  1.1436 -3.7045
   88CHL1    C9 8955   5.631   1.992   7.012  0.2877 -0.5912 -0.7498
   88CHL1    H9 8956   5.583   2.089   7.038  1.2157 -0.2881 -0.1340
   88CHL1   C10 8957   5.621   1.996   6.854 -0.5528 -0.4957 -0.4903
   88CHL1   C19 8958   5.665   1.854   6.799 -0.2469  0.8290  0.1745
   88CHL1  H19A 8959   5.669   1.851   6.688  0.7313 -1.6686  0.2085
   88CHL1  H19B 8960   5.769   1.833   6.834 -0.5053 -0.8833  0.0156
   88CHL1  H19C 8961   5.603   1.768   6.834  1.7684 -0.1109  1.7047
   88CHL1    C1 8962   5.471   2.023   6.802  0.4041  1.0903 -0.3799
   88CHL1   H1A 8963   5.412   1.938   6.841  1.5905  0.8144  0.9025
   88CHL1   H1B 8964   5.439   2.115   6.856  2.7512  1.0204  1.3214
   88CHL1    C2 8965   5.463   2.032   6.654  0.5160  0.6772  0.1687
   88CHL1   H2A 8966   5.359   2.057   6.622  0.4345  0.1423  0.0014
   88CHL1   H2B 8967   5.483   1.934   6.606 -2.9465  0.3742 -0.9674
   88CHL1   C20 8968   5.702   1.833   7.537 -0.1360  0.0662  0.0518
   88CHL1   H20 8969   5.789   1.767   7.520 -0.0787  0.0724  0.3197
   88CHL1   C21 8970   5.566   1.761   7.535  0.1030  0.6169  0.2700
   88CHL1  H21A 8971   5.548   1.703   7.628 -0.2778 -0.1956 -0.2970
   88CHL1  H21B 8972   5.553   1.688   7.452  0.3353  2.3184 -1.3326
   88CHL1  H21C 8973   5.476   1.824   7.519 -1.3538 -1.3044  0.5973
   88CHL1   C22 8974   5.727   1.886   7.678  1.0321 -0.2502  0.0106
   88CHL1  H22A 8975   5.721   1.807   7.756 -2.2786 -0.8837 -0.7568
   88CHL1  H22B 8976   5.826   1.935   7.690  0.2954  1.1623  0.5775
   88CHL1   C23 8977   5.625   2.000   7.727  0.0688  0.5462  0.6393
   88CHL1  H23A 8978   5.611   2.077   7.649 -1.4968 -0.1465  0.1921
   88CHL1  H23B 8979   5.526   1.955   7.753 -0.1094  1.1783  1.0714
   88CHL1   C24 8980   5.684   2.073   7.850 -0.5566 -0.1675 -1.0533
   88CHL1  H24A 8981   5.713   1.996   7.925 -1.5781  1.1475  0.7968
   88CHL1  H24B 8982   5.764   2.142   7.818  0.7678 -1.8776 -1.5871
   88CHL1   C25 8983   5.574   2.161   7.921  0.3980 -0.8885  0.6498
   88CHL1   H25 8984   5.479   2.107   7.942 -0.5253  0.2017 -0.5277
   88CHL1   C26 8985   5.642   2.195   8.051 -0.0745 -0.1514  0.0842
   88CHL1  H26A 8986   5.563   2.242   8.113 -1.3664 -0.8660 -0.9569
   88CHL1  H26B 8987   5.672   2.102   8.103  1.5255  0.9488  1.1987
   88CHL1  H26C 8988   5.730   2.262   8.038  0.2020 -0.5501 -0.1321
   88CHL1   C27 8989   5.545   2.288   7.836 -0.6099 -0.2410 -0.3335
   88CHL1  H27A 8990   5.478   2.356   7.894 -1.5199 -1.8606  0.5790
   88CHL1  H27B 8991   5.640   2.338   7.809 -0.9561  0.5443 -0.1523
   88CHL1  H27C 8992   5.495   2.265   7.740 -0.3811 -0.6275 -0.3583
   89CHL1    C3 8993   2.707   6.531   6.831 -0.1821 -0.2418  0.1350
   89CHL1    H3 8994   2.758   6.621   6.872  1.0598 -1.1343  0.5880
   89CHL1    O3 8995   2.689   6.544   6.692 -0.3124 -0.4860  0.5202
   89CHL1   H3' 8996   2.642   6.627   6.679  3.6172  2.2046  1.7379
   89CHL1    C4 8997   2.791   6.413   6.860 -0.4914 -0.1766  0.0669
   89CHL1   H4A 8998   2.733   6.330   6.814  0.6014 -0.6943 -0.4114
   89CHL1   H4B 8999   2.888   6.415   6.806 -1.1843  0.7182 -1.2178
   89CHL1    C5 9000   2.816   6.393   7.007 -0.6264 -0.2286 -0.2643
   89CHL1    C6 9001   2.933   6.401   7.069 -1.0072  0.7137  0.1631
   89CHL1    H6 9002   3.024   6.427   7.011  0.0919 -0.9334  1.0701
   89CHL1    C7 9003   2.962   6.386   7.217  0.6029  0.3129  1.0195
   89CHL1   H7A 9004   3.039   6.316   7.257 -0.6632 -0.4947  2.1119
   89CHL1   H7B 9005   2.981   6.487   7.259  1.1073 -0.2867  2.2968
   89CHL1    C8 9006   2.831   6.327   7.286 -0.1105 -0.4021  0.4016
   89CHL1    H8 9007   2.825   6.218   7.264 -1.7558 -0.1104 -0.7917
   89CHL1   C14 9008   2.846   6.342   7.440  0.2872  0.5376  0.8133
   89CHL1   H14 9009   2.848   6.452   7.454  1.5765  0.6613 -0.1761
   89CHL1   C15 9010   2.977   6.294   7.498 -0.0254 -0.2082  0.3380
   89CHL1  H15A 9011   2.999   6.195   7.452 -1.3854  0.9114 -2.9885
   89CHL1  H15B 9012   3.061   6.366   7.495  0.5023 -0.8039  0.4657
   89CHL1   C16 9013   2.943   6.268   7.643  0.2249 -0.1711 -0.7781
   89CHL1  H16A 9014   2.966   6.167   7.682  0.5758  0.2639  0.1837
   89CHL1  H16B 9015   2.990   6.341   7.712 -3.2178  0.4712  1.0527
   89CHL1   C17 9016   2.790   6.303   7.657 -0.3362 -0.2306  0.5311
   89CHL1   H17 9017   2.775   6.412   7.672  1.2452 -0.0836  1.3136
   89CHL1   C13 9018   2.728   6.280   7.517 -0.5057  0.1308  0.5084
   89CHL1   C18 9019   2.726   6.126   7.493 -0.2073 -0.0365  0.2046
   89CHL1  H18A 9020   2.806   6.069   7.544 -1.9565 -2.2570  0.6081
   89CHL1  H18B 9021   2.635   6.090   7.544 -0.5623 -1.1872 -1.1710
   89CHL1  H18C 9022   2.711   6.095   7.387  0.6840 -1.9526  0.6029
   89CHL1   C12 9023   2.598   6.347   7.473 -0.0886  0.4972 -0.1046
   89CHL1  H12A 9024   2.501   6.305   7.508 -1.0283 -0.1351 -3.2001
   89CHL1  H12B 9025   2.607   6.455   7.498 -0.6391  0.8208 -1.2487
   89CHL1   C11 9026   2.578   6.343   7.320  0.2445  0.2409  1.0940
   89CHL1  H11A 9027   2.557   6.234   7.308  0.1489  0.5225 -2.4490
   89CHL1  H11B 9028   2.491   6.400   7.282  2.0773  1.8273 -0.9855
   89CHL1    C9 9029   2.696   6.385   7.236 -0.5634 -1.1687  0.9287
   89CHL1    H9 9030   2.711   6.494   7.252 -0.1581 -1.0314 -0.3116
   89CHL1   C10 9031   2.682   6.367   7.082 -1.1133  0.7357  0.4246
   89CHL1   C19 9032   2.616   6.232   7.045  0.2154  0.7295 -0.3443
   89CHL1  H19A 9033   2.614   6.222   6.935  0.5009  1.6702 -0.4473
   89CHL1  H19B 9034   2.682   6.157   7.093  1.5357  1.9051 -0.2656
   89CHL1  H19C 9035   2.511   6.223   7.081  0.6839 -2.3374  0.4973
   89CHL1    C1 9036   2.580   6.478   7.036 -0.4395 -0.2615 -0.1335
   89CHL1   H1A 9037   2.480   6.443   7.069 -0.4636 -0.5149 -0.4630
   89CHL1   H1B 9038   2.602   6.577   7.080  0.6575  0.8741 -3.0001
   89CHL1    C2 9039   2.566   6.504   6.884  0.2677  0.5040  0.2898
   89CHL1   H2A 9040   2.486   6.576   6.856 -1.0513 -0.4083  1.5668
   89CHL1   H2B 9041   2.537   6.407   6.839  1.0404 -0.5385  1.9380
   89CHL1   C20 9042   2.727   6.245   7.778  0.3978 -0.2620  0.1009
   89CHL1   H20 9043   2.744   6.135   7.782 -0.0087 -0.3349 -0.1575
   89CHL1   C21 9044   2.575   6.282   7.778 -0.3509 -0.0410  0.0910
   89CHL1  H21A 9045   2.521   6.230   7.696 -0.5611  0.0929  0.1432
   89CHL1  H21B 9046   2.569   6.393   7.770  1.0765  0.0452 -0.1968
   89CHL1  H21C 9047   2.541   6.251   7.879 -0.3292  2.8888  1.0866
   89CHL1   C22 9048   2.795   6.307   7.908  0.6861 -0.4128  0.6936
   89CHL1  H22A 9049   2.905   6.294   7.897  0.4412 -3.9811  1.0995
   89CHL1  H22B 9050   2.774   6.416   7.913 -2.2112 -0.9278  1.9469
   89CHL1   C23 9051   2.750   6.240   8.041 -0.7787 -0.6317  0.0291
   89CHL1  H23A 9052   2.644   6.262   8.067 -0.2862  0.3004  1.3766
   89CHL1  H23B 9053   2.762   6.129   8.043 -0.9492 -0.6473  1.7055
   89CHL1   C24 9054   2.820   6.291   8.169  0.2997 -0.9910 -0.7449
   89CHL1  H24A 9055   2.929   6.279   8.155  0.3858  0.0777 -1.0200
   89CHL1  H24B 9056   2.778   6.393   8.178 -0.8287 -1.5412  0.7725
   89CHL1   C25 9057   2.790   6.218   8.303 -0.1621 -0.3946 -1.1697
   89CHL1   H25 9058   2.813   6.110   8.286 -1.6817 -0.5922 -2.1619
   89CHL1   C26 9059   2.875   6.275   8.421 -0.5513 -1.0889  0.8665
   89CHL1  H26A 9060   2.980   6.290   8.390 -0.4866 -0.1853  1.4914
   89CHL1  H26B 9061   2.823   6.367   8.455 -2.1527 -1.7526  0.3143
   89CHL1  H26C 9062   2.878   6.198   8.501 -0.3469 -0.0846  1.8436
   89CHL1   C27 9063   2.639   6.228   8.346  0.3966  0.4388  0.3876
   89CHL1  H27A 9064   2.569   6.199   8.265 -0.1278  2.2823  0.1290
   89CHL1  H27B 9065   2.606   6.182   8.442 -1.6004  0.5244 -0.2038
   89CHL1  H27C 9066   2.617   6.337   8.357 -2.1786  0.0938 -0.5614
   90CHL1    C3 9067   1.951   2.493   6.689  0.4880  0.5612 -0.3680
   90CHL1    H3 9068   1.961   2.383   6.691  0.5494  0.5296 -1.5865
   90CHL1    O3 9069   1.921   2.516   6.554  0.1607 -0.0378  0.2476
   90CHL1   H3' 9070   1.825   2.521   6.553  0.1704  0.3404 -1.2574
   90CHL1    C4 9071   1.844   2.560   6.782 -0.3418 -0.4643  0.7699
   90CHL1   H4A 9072   1.832   2.666   6.753  0.3563 -0.4612  0.4540
   90CHL1   H4B 9073   1.750   2.505   6.764 -2.6242  2.7912  1.8854
   90CHL1    C5 9074   1.883   2.563   6.926 -0.6579  0.1727 -0.5771
   90CHL1    C6 9075   1.804   2.523   7.026  0.7627  0.6105  0.9183
   90CHL1    H6 9076   1.705   2.485   6.998  1.6483  0.3133 -2.2355
   90CHL1    C7 9077   1.828   2.522   7.173 -0.1883 -0.2061  0.5971
   90CHL1   H7A 9078   1.739   2.554   7.231 -1.7889 -1.5537 -0.9875
   90CHL1   H7B 9079   1.850   2.423   7.217 -0.3944 -0.5866 -0.1298
   90CHL1    C8 9080   1.963   2.600   7.211  0.4591  0.0928 -0.4931
   90CHL1    H8 9081   1.940   2.708   7.210 -0.9650 -0.1243  1.6108
   90CHL1   C14 9082   2.001   2.557   7.347 -0.1463  0.3197 -0.4308
   90CHL1   H14 9083   2.023   2.448   7.349  0.0788  0.3719  0.3871
   90CHL1   C15 9084   1.897   2.553   7.466 -0.3710 -0.0258 -0.8530
   90CHL1  H15A 9085   1.841   2.649   7.465 -1.3160 -0.4961  1.3698
   90CHL1  H15B 9086   1.837   2.461   7.447 -1.9251  0.9341 -0.7426
   90CHL1   C16 9087   1.984   2.560   7.593  0.8214  0.1571  0.1699
   90CHL1  H16A 9088   1.974   2.653   7.653 -1.5236  0.9005 -1.2220
   90CHL1  H16B 9089   1.969   2.472   7.660  0.2182  1.7129  2.1629
   90CHL1   C17 9090   2.129   2.554   7.535 -0.6900 -0.5119  0.0140
   90CHL1   H17 9091   2.161   2.449   7.518 -0.0242 -0.3603  0.2791
   90CHL1   C13 9092   2.129   2.619   7.401  0.4524 -0.5267 -0.5111
   90CHL1   C18 9093   2.108   2.768   7.413  0.3633 -0.3745  0.0283
   90CHL1  H18A 9094   2.090   2.814   7.313  1.0578  0.8067  0.4304
   90CHL1  H18B 9095   2.020   2.792   7.476 -0.5479  1.2430 -1.7688
   90CHL1  H18C 9096   2.199   2.825   7.442 -1.2804  2.4598 -0.1418
   90CHL1   C12 9097   2.243   2.588   7.296 -0.6220  0.1138 -0.3219
   90CHL1  H12A 9098   2.333   2.652   7.314  1.9524 -3.2931 -0.0964
   90CHL1  H12B 9099   2.258   2.479   7.311 -0.5415  0.2125  0.3700
   90CHL1   C11 9100   2.205   2.622   7.144 -0.3177 -0.7525 -0.5218
   90CHL1  H11A 9101   2.219   2.731   7.134  0.7045 -0.7656  0.5531
   90CHL1  H11B 9102   2.282   2.589   7.071 -0.8265 -2.0488 -0.5045
   90CHL1    C9 9103   2.075   2.567   7.103  0.5465  0.5927  0.2521
   90CHL1    H9 9104   2.093   2.458   7.106  0.7906  0.6551  1.8442
   90CHL1   C10 9105   2.025   2.600   6.952 -0.7614 -0.5672  0.0580
   90CHL1   C19 9106   2.020   2.751   6.942 -1.1727  0.0823  0.2155
   90CHL1  H19A 9107   2.124   2.790   6.953  0.0841 -2.6317 -1.1820
   90CHL1  H19B 9108   1.983   2.785   6.842  0.0645  2.1663  0.3981
   90CHL1  H19C 9109   1.963   2.814   7.014  1.4279  3.1564 -0.1514
   90CHL1    C1 9110   2.136   2.526   6.858  0.1874 -0.6402  0.0270
   90CHL1   H1A 9111   2.242   2.557   6.870 -0.1662  1.6956 -2.1360
   90CHL1   H1B 9112   2.117   2.419   6.883 -1.2719  0.1517  2.8581
   90CHL1    C2 9113   2.091   2.549   6.717  0.7671 -0.1061  0.1657
   90CHL1   H2A 9114   2.160   2.493   6.652  0.0455 -1.8022  0.8107
   90CHL1   H2B 9115   2.099   2.657   6.689 -0.1168 -0.5216 -1.8423
   90CHL1   C20 9116   2.229   2.614   7.640  0.5922 -0.2795 -0.6048
   90CHL1   H20 9117   2.216   2.724   7.654 -0.2392  0.1417 -3.8428
   90CHL1   C21 9118   2.369   2.586   7.597  0.1857 -0.3386  0.2085
   90CHL1  H21A 9119   2.384   2.647   7.506 -1.5024 -0.4315 -0.1632
   90CHL1  H21B 9120   2.385   2.479   7.573 -0.5739 -0.2228 -0.8464
   90CHL1  H21C 9121   2.449   2.606   7.672  0.1108  1.8623 -0.2348
   90CHL1   C22 9122   2.219   2.541   7.782 -0.6183 -0.3781  0.1998
   90CHL1  H22A 9123   2.114   2.531   7.814 -0.8543  0.6169 -0.2177
   90CHL1  H22B 9124   2.248   2.435   7.767  0.5791 -0.1429  0.7341
   90CHL1   C23 9125   2.296   2.615   7.895 -1.0626 -0.1116 -0.3139
   90CHL1  H23A 9126   2.399   2.644   7.865 -0.5248  0.0098  1.5384
   90CHL1  H23B 9127   2.245   2.711   7.914 -0.2689  0.1454  0.5925
   90CHL1   C24 9128   2.298   2.525   8.019  1.0274 -0.0881 -1.1282
   90CHL1  H24A 9129   2.193   2.530   8.054  1.5403 -1.4621  0.7025
   90CHL1  H24B 9130   2.311   2.421   7.983  0.3406  0.1432 -2.0902
   90CHL1   C25 9131   2.396   2.565   8.125 -0.0191  0.5930 -1.0449
   90CHL1   H25 9132   2.392   2.673   8.152  1.0750  0.1865  0.9634
   90CHL1   C26 9133   2.366   2.479   8.256  0.2073 -0.1604 -0.3188
   90CHL1  H26A 9134   2.260   2.473   8.289  0.4722 -1.6946  0.3680
   90CHL1  H26B 9135   2.397   2.374   8.237 -0.2522 -0.3350 -0.1246
   90CHL1  H26C 9136   2.441   2.512   8.331  2.1901 -0.5499 -2.0414
   90CHL1   C27 9137   2.545   2.549   8.084 -0.6000 -0.2913  0.6404
   90CHL1  H27A 9138   2.539   2.449   8.037 -0.0237 -0.5181  1.0399
   90CHL1  H27B 9139   2.566   2.617   7.998  0.8346  0.0757  1.2551
   90CHL1  H27C 9140   2.631   2.546   8.154  1.1441  0.4672 -1.3517
   91CHL1    C3 9141   2.663   3.964   7.096 -0.4145 -0.1592 -0.4913
   91CHL1    H3 9142   2.773   3.951   7.109 -0.6273 -0.9834  0.7509
   91CHL1    O3 9143   2.629   3.919   6.972  0.1122  0.3529 -0.1230
   91CHL1   H3' 9144   2.698   3.947   6.911  1.1616 -1.9844 -0.0871
   91CHL1    C4 9145   2.609   3.865   7.205 -0.1178 -0.0244 -0.4901
   91CHL1   H4A 9146   2.499   3.855   7.190 -0.8336  3.7966  1.0860
   91CHL1   H4B 9147   2.651   3.764   7.187  0.8535  0.0729  1.0625
   91CHL1    C5 9148   2.627   3.922   7.347  0.1083 -0.1988 -0.4755
   91CHL1    C6 9149   2.661   3.843   7.451  0.3456 -0.3778  0.6071
   91CHL1    H6 9150   2.694   3.741   7.426  0.5814 -0.4011  1.0078
   91CHL1    C7 9151   2.667   3.892   7.593 -0.1743 -0.7246  0.1221
   91CHL1   H7A 9152   2.643   3.809   7.664  0.8912 -1.0356  0.1366
   91CHL1   H7B 9153   2.772   3.913   7.622 -1.0904  2.3212  1.6572
   91CHL1    C8 9154   2.591   4.022   7.624  0.2216  0.0769 -0.3923
   91CHL1    H8 9155   2.485   3.991   7.639  0.8199 -1.4916  0.9498
   91CHL1   C14 9156   2.643   4.077   7.759  0.0244  0.3717  1.2676
   91CHL1   H14 9157   2.751   4.101   7.747 -0.3473  1.7650  0.4712
   91CHL1   C15 9158   2.639   3.984   7.871 -0.4903  0.1268 -0.9433
   91CHL1  H15A 9159   2.548   3.922   7.885  0.2169 -0.3266  2.3285
   91CHL1  H15B 9160   2.723   3.912   7.866 -1.1202 -1.1659  3.2317
   91CHL1   C16 9161   2.655   4.070   8.001  0.2385 -0.5328  0.0380
   91CHL1  H16A 9162   2.583   4.038   8.079  0.5381  0.1937  0.6275
   91CHL1  H16B 9163   2.761   4.055   8.031  0.5325  0.5604 -0.4051
   91CHL1   C17 9164   2.644   4.216   7.941 -0.2319  0.6531 -0.2460
   91CHL1   H17 9165   2.751   4.243   7.932  0.2319 -0.8891  0.2001
   91CHL1   C13 9166   2.574   4.203   7.800 -0.5195 -0.0817  0.5564
   91CHL1   C18 9167   2.422   4.180   7.818  0.3537  0.7375  0.4034
   91CHL1  H18A 9168   2.366   4.164   7.723  1.2959  0.0715 -0.0509
   91CHL1  H18B 9169   2.388   4.085   7.866 -1.3638  1.0280 -0.1451
   91CHL1  H18C 9170   2.369   4.265   7.866 -1.3075 -0.0110  0.0026
   91CHL1   C12 9171   2.602   4.310   7.687 -0.5598  0.9188  0.0752
   91CHL1  H12A 9172   2.558   4.407   7.720 -1.0475  0.0023  2.2640
   91CHL1  H12B 9173   2.711   4.328   7.680 -0.2612  0.6312  2.9313
   91CHL1   C11 9174   2.555   4.267   7.543 -0.1932  0.7074  0.0693
   91CHL1  H11A 9175   2.445   4.255   7.539 -0.2785  1.3774  0.4111
   91CHL1  H11B 9176   2.589   4.336   7.462  2.0464 -2.3892 -1.8982
   91CHL1    C9 9177   2.612   4.123   7.509 -0.5974  0.0449 -0.7316
   91CHL1    H9 9178   2.723   4.134   7.518 -0.6367 -0.0972  0.0258
   91CHL1   C10 9179   2.578   4.065   7.370 -0.0031  0.0540 -0.1650
   91CHL1   C19 9180   2.415   4.050   7.361  0.2296  0.2921 -0.5373
   91CHL1  H19A 9181   2.379   3.993   7.450  2.6692  0.4803  0.6681
   91CHL1  H19B 9182   2.376   4.154   7.354 -1.1509 -0.2324 -0.9967
   91CHL1  H19C 9183   2.375   4.015   7.263 -1.1625 -0.9542  0.4299
   91CHL1    C1 9184   2.640   4.152   7.255  0.4710 -0.4385 -0.4118
   91CHL1   H1A 9185   2.591   4.250   7.272 -0.2987 -0.9687  0.5256
   91CHL1   H1B 9186   2.751   4.153   7.264  0.3737  0.7869  0.9089
   91CHL1    C2 9187   2.608   4.099   7.117  0.5807 -0.3294  0.9501
   91CHL1   H2A 9188   2.674   4.158   7.051  0.1654 -0.6346  0.2563
   91CHL1   H2B 9189   2.499   4.100   7.094  0.9365  1.4396 -0.8699
   91CHL1   C20 9190   2.586   4.310   8.043 -0.3518  0.1126  0.3459
   91CHL1   H20 9191   2.479   4.293   8.065  0.0096 -2.0721  0.6134
   91CHL1   C21 9192   2.622   4.454   8.001 -0.1435 -0.3280 -0.5284
   91CHL1  H21A 9193   2.606   4.514   8.093 -0.5263  0.4306 -1.0786
   91CHL1  H21B 9194   2.568   4.489   7.911  2.0902 -0.5053 -2.0387
   91CHL1  H21C 9195   2.731   4.448   7.980 -0.0558 -1.8800  0.2287
   91CHL1   C22 9196   2.636   4.295   8.185 -0.0564  0.1317 -1.1040
   91CHL1  H22A 9197   2.590   4.380   8.240 -0.4091  0.0510 -1.2720
   91CHL1  H22B 9198   2.605   4.198   8.231  2.3502  0.8183  2.4527
   91CHL1   C23 9199   2.787   4.299   8.212  0.0264 -0.0928  0.1498
   91CHL1  H23A 9200   2.837   4.219   8.154  0.6928  0.2133  0.2945
   91CHL1  H23B 9201   2.831   4.392   8.170  0.8183 -0.9169 -0.9035
   91CHL1   C24 9202   2.829   4.270   8.364  0.2398 -0.1839 -0.4752
   91CHL1  H24A 9203   2.786   4.353   8.424 -0.8402 -0.9940 -0.1067
   91CHL1  H24B 9204   2.785   4.178   8.407 -1.4973  1.0336  0.4549
   91CHL1   C25 9205   2.982   4.265   8.384  0.1545 -0.3121  0.7748
   91CHL1   H25 9206   3.036   4.347   8.332 -0.2335  0.2066  1.1799
   91CHL1   C26 9207   3.002   4.285   8.535  0.6879 -0.5180 -0.3105
   91CHL1  H26A 9208   3.110   4.266   8.551  0.5677 -1.0756 -0.1398
   91CHL1  H26B 9209   2.976   4.389   8.564 -0.3870 -1.0615  0.7704
   91CHL1  H26C 9210   2.933   4.218   8.589 -0.1363  1.5392  1.3409
   91CHL1   C27 9211   3.045   4.130   8.344  0.4856  0.8203  0.4662
   91CHL1  H27A 9212   3.008   4.050   8.412 -0.4132  1.0887  0.3072
   91CHL1  H27B 9213   2.997   4.095   8.250  0.4630  0.4230  0.6243
   91CHL1  H27C 9214   3.155   4.120   8.331 -0.0265 -2.2416 -4.0612
   92CHL1    C3 9215   4.967   5.897   6.963  1.0501  0.1432 -0.1701
   92CHL1    H3 9216   4.996   5.792   6.983  1.8862  0.9738  4.0152
   92CHL1    O3 9217   4.917   5.910   6.828 -0.6844  0.1132 -0.6520
   92CHL1   H3' 9218   4.988   5.872   6.775  1.0331  1.5150  0.5577
   92CHL1    C4 9219   4.851   5.941   7.062  0.2622 -0.2968 -0.2322
   92CHL1   H4A 9220   4.824   6.044   7.029  3.8287  0.3125 -1.6800
   92CHL1   H4B 9221   4.775   5.863   7.040  1.4352 -0.8042 -3.0054
   92CHL1    C5 9222   4.901   5.944   7.205 -0.4923  0.2290  0.5835
   92CHL1    C6 9223   4.844   5.877   7.306 -0.5616 -0.6107 -0.7486
   92CHL1    H6 9224   4.755   5.814   7.289 -0.0744 -2.3216  2.2860
   92CHL1    C7 9225   4.886   5.884   7.450  0.3370 -0.6850 -0.0529
   92CHL1   H7A 9226   4.802   5.910   7.518 -0.5425 -2.6150 -0.3295
   92CHL1   H7B 9227   4.923   5.781   7.467 -1.3852 -0.9119  3.1453
   92CHL1    C8 9228   4.998   5.993   7.474 -0.0399 -1.0159  0.3926
   92CHL1    H8 9229   4.953   6.095   7.474  2.0817 -0.0173  0.8780
   92CHL1   C14 9230   5.080   5.961   7.601 -0.0416 -0.6443 -0.3903
   92CHL1   H14 9231   5.131   5.869   7.565  0.6259 -0.5054  0.1905
   92CHL1   C15 9232   4.997   5.927   7.724 -0.1352  0.2930 -0.4298
   92CHL1  H15A 9233   4.912   5.998   7.740 -0.3942 -0.3541  1.2133
   92CHL1  H15B 9234   4.958   5.824   7.713  0.9079 -0.1721  0.1263
   92CHL1   C16 9235   5.107   5.932   7.833  0.0709 -0.4785 -0.3781
   92CHL1  H16A 9236   5.071   5.979   7.927  3.6867  0.4377  0.6777
   92CHL1  H16B 9237   5.129   5.825   7.852 -0.5790 -0.4012  0.9350
   92CHL1   C17 9238   5.235   5.999   7.773 -0.5170  0.0817 -0.2733
   92CHL1   H17 9239   5.302   5.915   7.745  2.0650  2.1240 -0.6209
   92CHL1   C13 9240   5.183   6.065   7.645  0.3807  0.2532 -0.3086
   92CHL1   C18 9241   5.122   6.200   7.682 -0.1251  0.3840 -0.1957
   92CHL1  H18A 9242   5.046   6.169   7.757  0.2333 -0.9271 -0.3562
   92CHL1  H18B 9243   5.193   6.271   7.732 -2.1052  1.6618  0.9668
   92CHL1  H18C 9244   5.059   6.250   7.606 -0.7304 -1.6119 -1.0629
   92CHL1   C12 9245   5.281   6.086   7.528 -0.7067 -0.8647 -0.2478
   92CHL1  H12A 9246   5.347   6.171   7.555  0.3843 -1.7518 -0.0577
   92CHL1  H12B 9247   5.344   5.995   7.518  1.2717  0.4311 -0.0549
   92CHL1   C11 9248   5.204   6.113   7.394 -0.3924  0.1493  0.2153
   92CHL1  H11A 9249   5.165   6.215   7.413 -0.6958  0.1072 -0.1633
   92CHL1  H11B 9250   5.274   6.122   7.308 -1.5183  0.3223 -0.7054
   92CHL1    C9 9251   5.088   6.008   7.362 -0.2834 -0.1304  0.3678
   92CHL1    H9 9252   5.133   5.907   7.360 -3.1703 -1.5355  1.0201
   92CHL1   C10 9253   5.028   6.032   7.221  0.2736  0.1804 -0.4820
   92CHL1   C19 9254   4.994   6.184   7.213  0.2279 -0.4948  0.0481
   92CHL1  H19A 9255   4.936   6.204   7.120  0.7213  0.3339 -0.0883
   92CHL1  H19B 9256   4.946   6.234   7.299  2.4123  0.0205  1.0361
   92CHL1  H19C 9257   5.089   6.241   7.205  0.1746 -0.4011  0.0865
   92CHL1    C1 9258   5.139   5.994   7.120  0.6231 -0.4263 -0.6333
   92CHL1   H1A 9259   5.225   6.065   7.129 -0.9318  1.2960  2.8299
   92CHL1   H1B 9260   5.171   5.891   7.143 -2.8244 -1.6046 -0.5111
   92CHL1    C2 9261   5.087   5.992   6.976 -0.2649 -0.2136  0.6580
   92CHL1   H2A 9262   5.163   5.972   6.897 -0.5569 -0.5604  0.4620
   92CHL1   H2B 9263   5.052   6.095   6.954  0.8116  0.2368  0.9516
   92CHL1   C20 9264   5.316   6.084   7.875 -0.2735 -0.2258 -0.2431
   92CHL1   H20 9265   5.374   6.164   7.823  1.3242 -0.3014  1.2978
   92CHL1   C21 9266   5.422   5.993   7.940  0.3165  0.1369  1.1074
   92CHL1  H21A 9267   5.386   5.890   7.963  1.4871 -1.2068 -2.3539
   92CHL1  H21B 9268   5.480   6.044   8.021  0.5761  1.0910  0.3409
   92CHL1  H21C 9269   5.506   5.977   7.869  1.4070 -0.0304  2.3808
   92CHL1   C22 9270   5.236   6.149   7.991  0.2081 -0.8570 -0.7924
   92CHL1  H22A 9271   5.133   6.176   7.956  0.1306 -0.0336  0.0463
   92CHL1  H22B 9272   5.217   6.067   8.063 -2.6338  1.5041  1.4069
   92CHL1   C23 9273   5.315   6.262   8.060  0.2347 -0.2514 -0.0869
   92CHL1  H23A 9274   5.394   6.224   8.128  0.8585  0.9561 -0.1126
   92CHL1  H23B 9275   5.343   6.340   7.986 -0.2300 -1.7079 -1.8515
   92CHL1   C24 9276   5.221   6.328   8.161 -0.2755  1.5678  1.2295
   92CHL1  H24A 9277   5.142   6.375   8.099 -0.6223  0.0485  0.4558
   92CHL1  H24B 9278   5.169   6.261   8.232  0.2856 -0.9475 -0.5799
   92CHL1   C25 9279   5.292   6.437   8.252  0.2073  0.0884  0.8372
   92CHL1   H25 9280   5.336   6.505   8.175 -2.7879  1.0772 -0.1415
   92CHL1   C26 9281   5.178   6.516   8.314  0.4117  0.2220 -0.6122
   92CHL1  H26A 9282   5.085   6.520   8.254 -0.9666  0.1615  1.4278
   92CHL1  H26B 9283   5.152   6.469   8.411  2.2283  1.7553  0.7039
   92CHL1  H26C 9284   5.200   6.623   8.334  0.0503  0.4457 -1.3748
   92CHL1   C27 9285   5.398   6.401   8.351  0.6100  0.5369 -0.4352
   92CHL1  H27A 9286   5.482   6.474   8.356 -0.5093  1.8558 -0.5245
   92CHL1  H27B 9287   5.344   6.391   8.448  0.2603 -0.4378 -0.7173
   92CHL1  H27C 9288   5.448   6.302   8.334 -0.1184 -0.0592  0.7652
   93CHL1    C3 9289   4.355   2.765   6.598 -0.2879 -0.6167  0.5779
   93CHL1    H3 9290   4.278   2.805   6.668 -1.0766  1.2495 -1.2225
   93CHL1    O3 9291   4.327   2.793   6.462 -0.9314  0.6887  0.0142
   93CHL1   H3' 9292   4.353   2.717   6.410 -1.4019  1.0043 -0.7016
   93CHL1    C4 9293   4.493   2.829   6.631 -0.2671 -0.0305 -0.7040
   93CHL1   H4A 9294   4.581   2.798   6.570  0.4640 -1.1664  0.8513
   93CHL1   H4B 9295   4.486   2.939   6.619 -0.3061  0.2197  1.2503
   93CHL1    C5 9296   4.540   2.801   6.773  0.3435 -0.0068  0.0647
   93CHL1    C6 9297   4.578   2.898   6.863 -0.2744 -0.2114 -0.1879
   93CHL1    H6 9298   4.577   3.003   6.831 -0.4996 -0.0751  0.2718
   93CHL1    C7 9299   4.623   2.871   7.004  0.7210 -0.6360 -0.5704
   93CHL1   H7A 9300   4.716   2.926   7.029 -0.5622  2.1398 -1.4979
   93CHL1   H7B 9301   4.558   2.915   7.082  3.1594 -0.0203  1.2304
   93CHL1    C8 9302   4.652   2.721   7.034  0.4561  0.1268 -0.0755
   93CHL1    H8 9303   4.748   2.708   6.980 -0.5980  0.7264 -2.2112
   93CHL1   C14 9304   4.656   2.696   7.186 -0.3606 -0.2951  1.0126
   93CHL1   H14 9305   4.555   2.711   7.229 -0.3474  1.9601  0.3961
   93CHL1   C15 9306   4.733   2.785   7.282 -0.5967  0.2370  0.3203
   93CHL1  H15A 9307   4.834   2.813   7.244 -0.3236  0.1477  0.9699
   93CHL1  H15B 9308   4.677   2.878   7.306 -2.2315  0.2819 -3.1216
   93CHL1   C16 9309   4.769   2.697   7.402 -1.6571 -0.2269 -0.4982
   93CHL1  H16A 9310   4.879   2.689   7.404 -1.7011 -0.6741  0.1566
   93CHL1  H16B 9311   4.720   2.740   7.492 -1.1794  1.9148 -1.2043
   93CHL1   C17 9312   4.707   2.557   7.381 -0.2403  0.1835  0.7256
   93CHL1   H17 9313   4.602   2.554   7.418 -0.7624  0.8116 -0.6399
   93CHL1   C13 9314   4.693   2.549   7.220  0.8790  0.0907 -0.2397
   93CHL1   C18 9315   4.824   2.511   7.155  0.4159 -0.2953  0.2815
   93CHL1  H18A 9316   4.914   2.557   7.202  1.0099  0.9779 -1.9866
   93CHL1  H18B 9317   4.830   2.400   7.157 -1.3836 -0.4596 -0.8215
   93CHL1  H18C 9318   4.808   2.534   7.048 -0.4238 -1.4625  0.1375
   93CHL1   C12 9319   4.577   2.459   7.170  0.6567  0.4145 -0.1136
   93CHL1  H12A 9320   4.581   2.355   7.208 -0.9805 -1.1404 -3.7287
   93CHL1  H12B 9321   4.481   2.499   7.207  0.8558 -0.6645  1.6871
   93CHL1   C11 9322   4.561   2.473   7.015 -0.0285  0.5073 -0.0604
   93CHL1  H11A 9323   4.636   2.421   6.953 -1.3098 -1.1010 -0.3379
   93CHL1  H11B 9324   4.466   2.423   6.985  0.5648 -0.8129  0.1942
   93CHL1    C9 9325   4.540   2.625   6.968 -0.3358  0.3593 -0.1793
   93CHL1    H9 9326   4.442   2.651   7.014 -1.2941  0.2461 -2.0585
   93CHL1   C10 9327   4.534   2.653   6.815  0.0399  0.2207 -0.1339
   93CHL1   C19 9328   4.647   2.586   6.740 -0.5338 -0.5651 -0.4260
   93CHL1  H19A 9329   4.660   2.478   6.763  0.6668 -0.4483 -0.4970
   93CHL1  H19B 9330   4.626   2.588   6.631 -3.6777 -0.8524  0.0762
   93CHL1  H19C 9331   4.742   2.640   6.758 -0.9165  0.6751 -1.9132
   93CHL1    C1 9332   4.403   2.591   6.755 -0.7245  0.3811 -0.4511
   93CHL1   H1A 9333   4.411   2.481   6.771 -1.1437  0.1003 -2.0030
   93CHL1   H1B 9334   4.320   2.618   6.823 -1.9658 -1.5638 -1.1128
   93CHL1    C2 9335   4.360   2.615   6.618  0.3420 -0.4332 -0.2734
   93CHL1   H2A 9336   4.255   2.579   6.609 -0.2714  1.1587  0.1506
   93CHL1   H2B 9337   4.422   2.559   6.545  1.7943  0.5097  0.1952
   93CHL1   C20 9338   4.796   2.448   7.452  0.2425  0.3691 -0.2037
   93CHL1   H20 9339   4.900   2.450   7.413  0.1060 -0.7289 -0.6456
   93CHL1   C21 9340   4.745   2.299   7.445  0.2229 -0.3897  0.4901
   93CHL1  H21A 9341   4.642   2.290   7.486  0.2532  2.3048  1.3873
   93CHL1  H21B 9342   4.814   2.218   7.479  0.1399 -0.9740 -0.6923
   93CHL1  H21C 9343   4.723   2.284   7.337 -1.1612  1.1090  0.5250
   93CHL1   C22 9344   4.820   2.479   7.601 -0.1910  0.2979  0.0344
   93CHL1  H22A 9345   4.790   2.581   7.631  1.6452  1.1287 -0.7897
   93CHL1  H22B 9346   4.750   2.413   7.655 -0.0358  0.1173  0.0185
   93CHL1   C23 9347   4.967   2.452   7.646 -0.0362  0.2522  0.6838
   93CHL1  H23A 9348   4.975   2.461   7.757  0.0887 -0.1862  0.7105
   93CHL1  H23B 9349   4.997   2.348   7.621 -1.4249 -0.3849  1.5564
   93CHL1   C24 9350   5.069   2.554   7.596 -0.0976  0.5081  0.7766
   93CHL1  H24A 9351   5.066   2.550   7.485 -1.2938 -4.3323  0.7792
   93CHL1  H24B 9352   5.030   2.649   7.639 -0.0247  0.5024  0.8560
   93CHL1   C25 9353   5.210   2.529   7.641  0.7429  0.2342  0.0036
   93CHL1   H25 9354   5.264   2.619   7.605 -1.4891  2.5536  2.0951
   93CHL1   C26 9355   5.217   2.537   7.795 -0.0195  0.3312 -0.6959
   93CHL1  H26A 9356   5.326   2.530   7.816  0.0416 -0.5829 -1.2381
   93CHL1  H26B 9357   5.167   2.624   7.842 -1.3422 -0.9774  0.3966
   93CHL1  H26C 9358   5.173   2.444   7.837 -0.5857  0.9975  0.2139
   93CHL1   C27 9359   5.282   2.405   7.579  0.3885 -0.3675 -0.3607
   93CHL1  H27A 9360   5.237   2.315   7.626  1.0658 -0.1969  0.6607
   93CHL1  H27B 9361   5.255   2.408   7.472 -1.6030  1.4268  0.1078
   93CHL1  H27C 9362   5.391   2.404   7.599  0.4772  2.7806 -0.2127
   94CHL1    C3 9363   6.621   0.214   6.830  0.0875 -0.4483  0.0090
   94CHL1    H3 9364   6.712   0.152   6.840  0.7257  0.2412 -1.2952
   94CHL1    O3 9365   6.617   0.255   6.694 -0.1506 -0.0830 -0.2415
   94CHL1   H3' 9366   6.545   0.318   6.690 -1.3448 -1.2584  1.1266
   94CHL1    C4 9367   6.503   0.132   6.872 -0.2938 -0.3729  0.2630
   94CHL1   H4A 9368   6.416   0.191   6.838 -0.6763 -0.8319  0.4395
   94CHL1   H4B 9369   6.499   0.037   6.815 -2.3091 -0.4599  0.4921
   94CHL1    C5 9370   6.504   0.101   7.016  0.2268 -0.0659  0.0345
   94CHL1    C6 9371   6.501  -0.027   7.055  0.4863 -0.0227  0.5610
   94CHL1    H6 9372   6.500  -0.107   6.980  2.1209 -0.5134  1.0122
   94CHL1    C7 9373   6.503  -0.072   7.195 -0.2208  0.3076 -0.1921
   94CHL1   H7A 9374   6.431  -0.155   7.210  2.0075 -1.8156 -0.4583
   94CHL1   H7B 9375   6.604  -0.109   7.225 -0.7853 -0.6741  0.5800
   94CHL1    C8 9376   6.479   0.043   7.301  0.4371  0.1735  0.2361
   94CHL1    H8 9377   6.368   0.056   7.302  0.4921  1.0675 -1.2727
   94CHL1   C14 9378   6.536  -0.003   7.434 -0.3464  0.0292 -0.1925
   94CHL1   H14 9379   6.646  -0.011   7.425 -0.4299 -1.0162 -0.4624
   94CHL1   C15 9380   6.491  -0.137   7.481 -0.1619  0.4832 -0.4223
   94CHL1  H15A 9381   6.383  -0.147   7.458 -0.0334  0.8530 -1.1815
   94CHL1  H15B 9382   6.559  -0.220   7.450  1.3518  0.5880  2.2205
   94CHL1   C16 9383   6.523  -0.133   7.636 -0.4306  0.0020  0.0238
   94CHL1  H16A 9384   6.434  -0.152   7.700 -0.7200  3.7597  0.9862
   94CHL1  H16B 9385   6.609  -0.202   7.650 -0.9432 -0.7593 -0.5171
   94CHL1   C17 9386   6.572   0.011   7.666  0.2945  0.1860 -0.1947
   94CHL1   H17 9387   6.683   0.015   7.665  0.3039  2.1571  1.4205
   94CHL1   C13 9388   6.512   0.093   7.547  0.1900  0.7304 -0.1856
   94CHL1   C18 9389   6.367   0.110   7.579  0.0803 -0.3068 -0.2597
   94CHL1  H18A 9390   6.318   0.018   7.616 -1.0601  0.9899  1.6296
   94CHL1  H18B 9391   6.356   0.180   7.665 -1.5818 -0.7414 -0.0940
   94CHL1  H18C 9392   6.304   0.157   7.500  2.3433  0.5353 -1.6792
   94CHL1   C12 9393   6.584   0.219   7.508  0.0733 -0.3878  0.0325
   94CHL1  H12A 9394   6.579   0.297   7.587  2.6259 -1.0128  0.9157
   94CHL1  H12B 9395   6.695   0.207   7.503  0.2009  0.8429 -0.5621
   94CHL1   C11 9396   6.532   0.274   7.373 -0.3600  0.3309  0.1823
   94CHL1  H11A 9397   6.424   0.298   7.381 -0.4793 -0.6353  1.8802
   94CHL1  H11B 9398   6.589   0.364   7.342 -0.4647 -0.2036 -1.6947
   94CHL1    C9 9399   6.543   0.170   7.261 -0.0016 -0.4694  1.2031
   94CHL1    H9 9400   6.650   0.145   7.252 -0.0527 -0.0912 -1.5349
   94CHL1   C10 9401   6.521   0.220   7.114 -0.5203  0.7508  0.5997
   94CHL1   C19 9402   6.389   0.302   7.100 -0.5390 -0.6490 -0.3702
   94CHL1  H19A 9403   6.379   0.338   6.995 -0.4065  0.0194 -0.1558
   94CHL1  H19B 9404   6.305   0.239   7.136  0.4549 -1.2915  0.9324
   94CHL1  H19C 9405   6.403   0.385   7.172 -0.4430 -1.6711  0.8327
   94CHL1    C1 9406   6.639   0.310   7.073  0.2362  0.1741  0.2556
   94CHL1   H1A 9407   6.646   0.407   7.127  1.6551 -0.5422  1.4212
   94CHL1   H1B 9408   6.730   0.249   7.087 -0.5032 -0.6135  1.8594
   94CHL1    C2 9409   6.635   0.344   6.920 -0.1129 -1.1973  0.0319
   94CHL1   H2A 9410   6.733   0.388   6.892 -0.3360 -2.3080 -2.7812
   94CHL1   H2B 9411   6.554   0.412   6.884  2.1532  0.8773 -1.4260
   94CHL1   C20 9412   6.544   0.049   7.815  0.1616 -0.2372  1.1580
   94CHL1   H20 9413   6.434   0.042   7.832  0.0008 -0.1193  0.2333
   94CHL1   C21 9414   6.576   0.202   7.835 -0.0679  0.4621 -0.1332
   94CHL1  H21A 9415   6.590   0.213   7.945  0.6064 -2.2726  0.1130
   94CHL1  H21B 9416   6.500   0.265   7.783  1.2221 -0.1044 -2.8598
   94CHL1  H21C 9417   6.670   0.217   7.778 -0.2643  0.1554 -0.5393
   94CHL1   C22 9418   6.608  -0.042   7.920 -0.4260 -0.2144  0.1543
   94CHL1  H22A 9419   6.560  -0.017   8.017 -0.0816  1.8279 -0.1667
   94CHL1  H22B 9420   6.580  -0.144   7.887  0.8062 -0.3944 -0.3794
   94CHL1   C23 9421   6.757  -0.023   7.935 -0.0945  0.7182 -0.0174
   94CHL1  H23A 9422   6.801  -0.073   7.846  0.3366 -0.5598  0.8811
   94CHL1  H23B 9423   6.794   0.081   7.929  2.1890  0.1356  2.2407
   94CHL1   C24 9424   6.806  -0.108   8.053  0.1197 -0.1055 -0.2693
   94CHL1  H24A 9425   6.768  -0.212   8.040  0.8154 -0.6474  1.5605
   94CHL1  H24B 9426   6.917  -0.117   8.051  0.1772 -0.7264  2.1788
   94CHL1   C25 9427   6.766  -0.048   8.197 -0.3008  0.4304 -0.0962
   94CHL1   H25 9428   6.657  -0.056   8.214 -0.3645 -0.7591 -0.9476
   94CHL1   C26 9429   6.831  -0.127   8.313 -0.5238  0.5337 -0.0435
   94CHL1  H26A 9430   6.800  -0.234   8.310 -0.9831  0.6856 -1.7291
   94CHL1  H26B 9431   6.942  -0.125   8.318 -0.5677  0.6012  1.2087
   94CHL1  H26C 9432   6.796  -0.070   8.402 -0.1150 -0.7003  0.9275
   94CHL1   C27 9433   6.789   0.102   8.207 -0.2023 -0.2797 -0.4220
   94CHL1  H27A 9434   6.720   0.146   8.132 -1.6957 -2.3415 -0.3680
   94CHL1  H27B 9435   6.769   0.146   8.307  2.5132 -2.0154  1.0178
   94CHL1  H27C 9436   6.892   0.129   8.175 -0.1448  2.1927  1.5886
   95CHL1    C3 9437   0.596   0.557   6.694  0.0893  0.2844 -0.8432
   95CHL1    H3 9438   0.486   0.563   6.704 -0.1027 -2.3628 -0.6489
   95CHL1    O3 9439   0.626   0.601   6.566  0.1590  0.4569  0.0601
   95CHL1   H3' 9440   0.574   0.682   6.559  0.1061  0.4113 -0.0699
   95CHL1    C4 9441   0.660   0.656   6.792 -0.3057 -0.0125 -0.7878
   95CHL1   H4A 9442   0.769   0.671   6.774  0.0926  2.4388  2.7017
   95CHL1   H4B 9443   0.607   0.754   6.781 -1.8122 -0.0028  4.1599
   95CHL1    C5 9444   0.655   0.623   6.941  0.0456 -0.5322  0.0213
   95CHL1    C6 9445   0.592   0.698   7.032  0.6832  0.3610  0.1606
   95CHL1    H6 9446   0.545   0.794   7.008 -1.1509  0.0895  2.3392
   95CHL1    C7 9447   0.581   0.658   7.172 -0.3205  0.3061  0.1780
   95CHL1   H7A 9448   0.630   0.747   7.217  0.5065 -1.2277  2.4418
   95CHL1   H7B 9449   0.477   0.649   7.209 -0.4700  0.2843 -0.2339
   95CHL1    C8 9450   0.658   0.534   7.214 -0.4297  0.1361 -0.3857
   95CHL1    H8 9451   0.767   0.557   7.212 -0.8036  2.0162 -0.9403
   95CHL1   C14 9452   0.610   0.487   7.347  0.3937  0.4031 -0.7888
   95CHL1   H14 9453   0.502   0.465   7.340  0.5820 -0.4561 -1.1539
   95CHL1   C15 9454   0.613   0.585   7.465  0.0395 -0.4072  0.6179
   95CHL1  H15A 9455   0.702   0.648   7.450 -1.4107  1.1968 -2.0051
   95CHL1  H15B 9456   0.524   0.647   7.487  0.3492  1.0146 -1.8289
   95CHL1   C16 9457   0.621   0.501   7.596  0.3723 -0.4547 -0.1284
   95CHL1  H16A 9458   0.724   0.507   7.636  0.9867  1.9450 -1.8053
   95CHL1  H16B 9459   0.542   0.527   7.670  0.6804  0.4626 -0.1122
   95CHL1   C17 9460   0.607   0.350   7.543 -0.4188 -0.2183  0.5366
   95CHL1   H17 9461   0.496   0.341   7.537 -0.6694  2.4528 -0.0491
   95CHL1   C13 9462   0.671   0.354   7.401  0.7008  0.5621 -0.8712
   95CHL1   C18 9463   0.823   0.380   7.425 -0.1612  0.0883  0.7218
   95CHL1  H18A 9464   0.873   0.395   7.327 -1.0327 -0.5448  0.1653
   95CHL1  H18B 9465   0.841   0.456   7.504 -1.8111  2.0956 -0.7172
   95CHL1  H18C 9466   0.866   0.282   7.455 -1.6025 -1.0418 -0.6583
   95CHL1   C12 9467   0.637   0.246   7.300  0.5661 -0.0618 -0.4609
   95CHL1  H12A 9468   0.704   0.159   7.314  1.1849 -0.1296 -3.2162
   95CHL1  H12B 9469   0.529   0.222   7.310  0.5620  0.2499  0.2694
   95CHL1   C11 9470   0.681   0.290   7.150 -0.1084 -0.3913 -1.3784
   95CHL1  H11A 9471   0.792   0.282   7.154 -0.1070  0.1307  0.3737
   95CHL1  H11B 9472   0.642   0.212   7.080  0.8823  0.4504 -2.9435
   95CHL1    C9 9473   0.639   0.429   7.110  0.3142 -0.1881 -0.2567
   95CHL1    H9 9474   0.530   0.420   7.090  0.2272  1.9766 -1.0709
   95CHL1   C10 9475   0.690   0.475   6.965  0.3481  0.4496 -0.4744
   95CHL1   C19 9476   0.842   0.471   6.954  0.2125  0.5815  0.2440
   95CHL1  H19A 9477   0.867   0.366   6.982  0.4059 -0.5143 -3.4808
   95CHL1  H19B 9478   0.875   0.498   6.852 -0.9007  0.9283 -0.0391
   95CHL1  H19C 9479   0.889   0.540   7.027 -1.7656 -0.1680  2.3662
   95CHL1    C1 9480   0.629   0.369   6.863 -0.1282  0.2116 -1.1090
   95CHL1   H1A 9481   0.665   0.267   6.891  0.6868  1.1565  1.5484
   95CHL1   H1B 9482   0.519   0.375   6.874 -0.2965 -1.3469 -1.5970
   95CHL1    C2 9483   0.652   0.411   6.721 -0.0831 -1.4432 -0.3237
   95CHL1   H2A 9484   0.598   0.346   6.649 -0.7074 -0.8958 -0.3540
   95CHL1   H2B 9485   0.760   0.420   6.695  0.4951 -1.1150  2.0325
   95CHL1   C20 9486   0.657   0.243   7.643 -0.2851 -0.4810 -0.3680
   95CHL1   H20 9487   0.768   0.247   7.647 -0.2874 -0.6789 -0.0860
   95CHL1   C21 9488   0.605   0.109   7.604  0.9331  0.5045 -0.3968
   95CHL1  H21A 9489   0.499   0.123   7.572  0.5938  1.2837  0.9848
   95CHL1  H21B 9490   0.596   0.030   7.681  1.6668  1.0572  0.2694
   95CHL1  H21C 9491   0.661   0.062   7.520 -1.1967  1.6878 -2.5896
   95CHL1   C22 9492   0.636   0.279   7.791 -0.3755 -0.6687  0.1229
   95CHL1  H22A 9493   0.701   0.367   7.810  1.1605 -2.0459  1.4843
   95CHL1  H22B 9494   0.532   0.314   7.810 -1.0452 -1.5118 -1.7277
   95CHL1   C23 9495   0.687   0.184   7.895  0.0878  0.6374  0.4974
   95CHL1  H23A 9496   0.672   0.217   8.000  0.6185  1.1799  0.4050
   95CHL1  H23B 9497   0.637   0.087   7.871 -0.1438  1.0355 -0.6859
   95CHL1   C24 9498   0.836   0.157   7.886  0.3414  0.0241  0.4002
   95CHL1  H24A 9499   0.858   0.103   7.792  1.0443 -0.8824  1.0692
   95CHL1  H24B 9500   0.900   0.248   7.888 -0.2209  0.4360  2.0558
   95CHL1   C25 9501   0.888   0.060   7.992 -0.3600 -0.4286 -0.8139
   95CHL1   H25 9502   0.839   0.080   8.089 -1.0145  0.1073 -1.2486
   95CHL1   C26 9503   0.846  -0.085   7.981 -0.0415  0.0995  0.6932
   95CHL1  H26A 9504   0.854  -0.140   8.078  3.2582 -0.8476  0.0272
   95CHL1  H26B 9505   0.746  -0.093   7.935 -0.1651 -0.9786  1.1212
   95CHL1  H26C 9506   0.911  -0.142   7.912  0.9269 -0.3031  1.8868
   95CHL1   C27 9507   1.040   0.086   8.022 -0.5905  0.6075  0.0184
   95CHL1  H27A 9508   1.074   0.030   8.111  0.0402  0.0951 -0.5290
   95CHL1  H27B 9509   1.105   0.063   7.935  0.7511  0.8539  0.9328
   95CHL1  H27C 9510   1.056   0.194   8.041  0.6626  0.3060  0.7303
   96CHL1    C3 9511   5.573   5.816   6.802 -0.1016  0.2895 -0.1019
   96CHL1    H3 9512   5.608   5.710   6.796 -1.8962 -0.3236 -0.6221
   96CHL1    O3 9513   5.537   5.842   6.664 -0.0183 -0.0673  0.6872
   96CHL1   H3' 9514   5.454   5.798   6.647  0.1570 -0.3746  0.6326
   96CHL1    C4 9515   5.447   5.833   6.888  0.0352 -0.3081  0.0389
   96CHL1   H4A 9516   5.412   5.939   6.885 -1.0359 -0.6789 -1.7880
   96CHL1   H4B 9517   5.364   5.772   6.845  0.0535 -0.2509 -0.0793
   96CHL1    C5 9518   5.480   5.801   7.034  0.1914  0.2178  0.5640
   96CHL1    C6 9519   5.397   5.718   7.095  0.3510 -0.0250 -0.2594
   96CHL1    H6 9520   5.308   5.675   7.046 -0.3105 -3.1487  3.1694
   96CHL1    C7 9521   5.415   5.665   7.233 -0.4601 -0.0986 -0.5286
   96CHL1   H7A 9522   5.320   5.676   7.290  0.4057 -0.9082  1.1300
   96CHL1   H7B 9523   5.437   5.556   7.234  1.3239  0.2265 -0.6975
   96CHL1    C8 9524   5.528   5.741   7.310 -0.8699 -0.3219  0.4671
   96CHL1    H8 9525   5.490   5.842   7.339  0.8344  0.2850  0.6586
   96CHL1   C14 9526   5.574   5.669   7.434  0.1032  0.7216  0.0294
   96CHL1   H14 9527   5.618   5.574   7.396 -0.8757  0.7781 -1.3082
   96CHL1   C15 9528   5.456   5.629   7.519  0.6982  0.0143  0.2130
   96CHL1  H15A 9529   5.376   5.706   7.516  2.1388  1.5180 -1.6933
   96CHL1  H15B 9530   5.411   5.532   7.487  1.4250 -1.1307  2.4313
   96CHL1   C16 9531   5.524   5.625   7.659  0.0773  0.3961  0.3730
   96CHL1  H16A 9532   5.474   5.704   7.719  0.9128  0.5593  0.8597
   96CHL1  H16B 9533   5.516   5.525   7.706 -2.2899 -0.4810 -1.6640
   96CHL1   C17 9534   5.677   5.658   7.646 -0.1215 -0.5639 -0.2727
   96CHL1   H17 9535   5.737   5.568   7.621  0.1113 -0.4127 -0.2565
   96CHL1   C13 9536   5.674   5.745   7.520  0.5756 -0.3019  0.5933
   96CHL1   C18 9537   5.617   5.888   7.567  0.3906  1.0582  0.0286
   96CHL1  H18A 9538   5.580   5.957   7.488 -1.5354  2.3906  1.9782
   96CHL1  H18B 9539   5.528   5.882   7.634 -2.6594  0.0177 -3.7679
   96CHL1  H18C 9540   5.693   5.941   7.628  0.4427  0.2098  0.7230
   96CHL1   C12 9541   5.803   5.758   7.427  0.8337  0.0032 -0.5445
   96CHL1  H12A 9542   5.887   5.809   7.480 -0.2748  2.3632 -0.9335
   96CHL1  H12B 9543   5.856   5.665   7.399  1.0818  0.1458 -0.5557
   96CHL1   C11 9544   5.768   5.838   7.297 -0.3570 -0.4228 -0.1604
   96CHL1  H11A 9545   5.747   5.941   7.333  1.3106  0.9325 -2.7576
   96CHL1  H11B 9546   5.860   5.844   7.235  1.4197 -2.8935  2.0563
   96CHL1    C9 9547   5.647   5.779   7.215  0.6998  0.1967 -0.3281
   96CHL1    H9 9548   5.679   5.682   7.173  0.7065 -0.3010  0.7929
   96CHL1   C10 9549   5.607   5.862   7.100 -0.3814 -0.5297  0.5380
   96CHL1   C19 9550   5.560   6.007   7.141 -0.1377  0.2604 -0.1533
   96CHL1  H19A 9551   5.495   6.053   7.064 -1.4352  1.1043  1.3716
   96CHL1  H19B 9552   5.493   6.010   7.230  1.0019 -3.0008  0.9903
   96CHL1  H19C 9553   5.648   6.070   7.164  0.3977 -0.3649 -0.4651
   96CHL1    C1 9554   5.727   5.871   6.998  0.6537  0.0783  0.2466
   96CHL1   H1A 9555   5.805   5.937   7.042  0.8939 -0.3929  0.5243
   96CHL1   H1B 9556   5.779   5.773   6.992  1.5315  0.5280  0.2859
   96CHL1    C2 9557   5.686   5.912   6.856 -0.0517  0.1614 -0.9071
   96CHL1   H2A 9558   5.776   5.909   6.791  1.1919 -0.7797  0.7970
   96CHL1   H2B 9559   5.647   6.016   6.850 -0.4325  0.0286 -0.7435
   96CHL1   C20 9560   5.736   5.706   7.777  0.1768 -0.3165 -0.0727
   96CHL1   H20 9561   5.696   5.809   7.781  2.0483  0.4316  0.4486
   96CHL1   C21 9562   5.889   5.718   7.758  0.1122 -0.3696 -0.1102
   96CHL1  H21A 9563   5.927   5.764   7.851 -1.7683 -0.2635  0.6463
   96CHL1  H21B 9564   5.918   5.797   7.686  1.1439 -0.9631 -0.3645
   96CHL1  H21C 9565   5.936   5.620   7.732 -2.0589 -1.4712 -0.1381
   96CHL1   C22 9566   5.699   5.624   7.913 -0.0792  0.3840  0.0052
   96CHL1  H22A 9567   5.593   5.590   7.916  0.6962 -2.2395  0.3043
   96CHL1  H22B 9568   5.764   5.534   7.920  0.8354  0.9170 -1.2891
   96CHL1   C23 9569   5.731   5.707   8.041 -0.7485 -0.1192  0.6757
   96CHL1  H23A 9570   5.837   5.739   8.052 -0.5314 -1.0686  1.4296
   96CHL1  H23B 9571   5.666   5.798   8.039  1.6053  1.6693  1.0115
   96CHL1   C24 9572   5.704   5.630   8.172  0.4276 -0.2440 -0.3129
   96CHL1  H24A 9573   5.603   5.584   8.170 -0.0970  0.8674 -0.7180
   96CHL1  H24B 9574   5.782   5.554   8.191  0.4291 -0.1221  0.1953
   96CHL1   C25 9575   5.711   5.726   8.288 -0.2991 -0.1819  0.0169
   96CHL1   H25 9576   5.648   5.816   8.267 -0.9039 -1.2441 -3.3029
   96CHL1   C26 9577   5.664   5.658   8.421  0.0774 -0.3006 -0.2263
   96CHL1  H26A 9578   5.557   5.634   8.403  0.5542 -1.7563 -1.3462
   96CHL1  H26B 9579   5.717   5.562   8.438 -1.8298 -1.1565  1.4324
   96CHL1  H26C 9580   5.676   5.716   8.515 -1.6067  0.3719 -0.3798
   96CHL1   C27 9581   5.848   5.790   8.309 -0.3001 -0.4420  0.2147
   96CHL1  H27A 9582   5.850   5.870   8.386 -0.3401 -0.5535  0.3313
   96CHL1  H27B 9583   5.921   5.715   8.345  0.0146  0.0983  0.7148
   96CHL1  H27C 9584   5.882   5.839   8.215  0.4978 -0.9427  0.2320
   97OSM      N 9585   4.703   6.841  10.971  0.2093 -0.7345  0.7200
   97OSM    C15 9586   4.589   6.865  11.076  0.1274 -0.3681  0.0261
   97OSM   H15A 9587   4.593   6.793  11.156  1.3629 -2.5830 -1.9028
   97OSM   H15B 9588   4.494   6.847  11.028 -0.0209 -0.8003  0.4688
   97OSM   H15C 9589   4.592   6.961  11.126  0.7830 -1.2173  1.7338
   97OSM    C14 9590   4.681   6.941  10.861  0.0323 -0.1990  0.2489
   97OSM   H14A 9591   4.584   6.933  10.814 -1.1027  0.5373  2.3254
   97OSM   H14B 9592   4.760   6.923  10.790 -0.1504 -0.9441  0.2261
   97OSM   H14C 9593   4.680   7.042  10.899  1.5339 -0.4792  1.1151
   97OSM    C13 9594   4.828   6.866  11.027 -0.5459 -0.6525  0.2488
   97OSM   H13A 9595   4.901   6.873  10.949  0.9506 -0.5257  1.6099
   97OSM   H13B 9596   4.868   6.794  11.097  0.5042  0.0144  0.3507
   97OSM   H13C 9597   4.824   6.966  11.069 -1.5220 -0.9636  0.9394
   97OSM    C12 9598   4.695   6.699  10.912 -0.0600  0.3120 -0.2866
   97OSM   H12A 9599   4.591   6.671  10.902 -0.2203  0.9112 -0.3640
   97OSM   H12B 9600   4.741   6.646  10.994  0.4070  0.3741 -0.5018
   97OSM    C11 9601   4.776   6.652  10.788 -0.4213  0.1959 -0.1782
   97OSM   H11A 9602   4.763   6.715  10.698  1.4466  2.2559  0.8946
   97OSM   H11B 9603   4.748   6.546  10.769 -0.3578  0.3766 -1.3107
   97OSM      P 9604   4.993   6.523  10.863 -0.2411  0.2875 -0.2309
   97OSM    O13 9605   5.131   6.548  10.913  0.1282 -0.1559 -0.0178
   97OSM    O14 9606   4.914   6.456  10.966  0.6822  0.2786  0.0954
   97OSM    O11 9607   5.018   6.446  10.727 -0.0195  0.5348  0.0265
   97OSM    O12 9608   4.915   6.656  10.823  0.2530  0.9993  0.1889
   97OSM    C1S 9609   4.964   6.491  10.603 -0.7323 -0.1034  0.4778
   97OSM    H1S 9610   5.008   6.588  10.574 -1.1965 -0.6279 -2.2892
   97OSM    H1T 9611   4.853   6.487  10.592 -0.8599 -0.4603  1.7225
   97OSM     NF 9612   4.990   6.438  10.360  0.5158 -0.8040 -0.3347
   97OSM    HNF 9613   4.927   6.395  10.296 -0.0078 -3.9954  2.0722
   97OSM    C2S 9614   5.004   6.386  10.490  0.3729  0.4607 -0.6147
   97OSM    H2S 9615   5.110   6.357  10.510  0.2510  0.6090  0.3284
   97OSM    C3S 9616   4.915   6.257  10.514 -0.8649  0.9039 -0.9311
   97OSM    H3S 9617   4.809   6.280  10.491 -1.2589  1.6195  1.3449
   97OSM     O3 9618   4.907   6.204  10.651  0.3863 -0.3808  0.4167
   97OSM    HO3 9619   4.947   6.264  10.714  0.6584 -1.9741  1.8286
   97OSM    C4S 9620   4.962   6.153  10.421 -0.4959 -0.5262  0.0040
   97OSM    H4S 9621   4.904   6.146  10.328  0.1280 -0.3804 -0.4043
   97OSM    C5S 9622   5.047   6.049  10.451 -0.2315  0.5707 -0.0927
   97OSM    H5S 9623   5.083   6.038  10.555  0.7373 -1.5930 -0.6100
   97OSM    C6S 9624   5.091   5.943  10.354 -0.8417 -0.1039  0.1482
   97OSM    H6S 9625   5.084   5.843  10.403 -2.0170  0.7562  1.8104
   97OSM    H6T 9626   5.198   5.958  10.330 -1.2011  1.7643 -0.4438
   97OSM    C7S 9627   5.017   5.938  10.225  0.1116  0.4393 -0.6443
   97OSM    H7S 9628   4.982   6.034  10.182 -1.1759  0.6085  0.7009
   97OSM    H7T 9629   4.924   5.880  10.243 -0.0856  0.4245 -1.6635
   97OSM    C8S 9630   5.097   5.860  10.114 -0.3657  0.1214 -0.3226
   97OSM    H8S 9631   5.119   5.758  10.151  0.5792  0.3552 -0.2308
   97OSM    H8T 9632   5.198   5.905  10.107 -0.0993 -0.6338 -1.5453
   97OSM    C9S 9633   5.028   5.843   9.975 -0.3128 -0.3535 -0.5418
   97OSM    H9S 9634   4.975   5.940   9.961 -1.8398 -1.2313 -1.0610
   97OSM    H9T 9635   4.953   5.762   9.981  0.5535 -1.3051 -1.9624
   97OSM   C10S 9636   5.130   5.828   9.865 -0.3329  0.5839 -0.7070
   97OSM   H10S 9637   5.200   5.742   9.880  1.7089  2.3326  0.3359
   97OSM   H10T 9638   5.188   5.922   9.856  0.9428 -0.2903 -2.2904
   97OSM   C11S 9639   5.064   5.807   9.728  0.5867 -0.7529  0.3772
   97OSM   H11S 9640   5.003   5.897   9.704  1.8952 -0.0808 -0.5741
   97OSM   H11T 9641   5.000   5.717   9.734 -0.1508 -0.2230  0.6532
   97OSM   C12S 9642   5.157   5.792   9.604 -0.0505  0.0275 -0.6174
   97OSM   H12S 9643   5.233   5.718   9.635 -1.1937 -1.0040 -0.1675
   97OSM   H12T 9644   5.199   5.893   9.585  0.3712 -0.4046 -2.1160
   97OSM   C13S 9645   5.078   5.741   9.475 -0.1447 -1.1904 -0.3650
   97OSM   H13S 9646   4.994   5.809   9.447 -1.3734 -2.4988  0.0350
   97OSM   H13T 9647   5.036   5.641   9.499 -2.1002 -0.1315  0.9053
   97OSM   C14S 9648   5.166   5.739   9.353 -0.3159  0.1981  1.2342
   97OSM   H14S 9649   5.271   5.710   9.375 -0.9836 -1.6435  2.2025
   97OSM   H14T 9650   5.176   5.840   9.307  0.3301 -1.7090 -3.3224
   97OSM   C15S 9651   5.103   5.646   9.250  0.7823  0.2958  0.4345
   97OSM   H15S 9652   5.060   5.552   9.293  0.4629 -0.7383 -1.9534
   97OSM   H15T 9653   5.187   5.617   9.183  0.9852 -0.5495  1.0264
   97OSM   C16S 9654   4.995   5.706   9.156  0.6035 -0.3154  0.4212
   97OSM   H16S 9655   5.051   5.790   9.110  0.7340 -0.2746  0.6532
   97OSM   H16T 9656   4.910   5.739   9.220  0.3345  1.1964 -0.6629
   97OSM   C17S 9657   4.925   5.618   9.045 -0.6000 -0.9747 -0.2042
   97OSM   H17S 9658   4.879   5.530   9.095  1.2731 -1.2818  1.0673
   97OSM   H17T 9659   5.000   5.593   8.967 -0.2145  0.1123 -0.2057
   97OSM   C18S 9660   4.816   5.703   8.970 -0.5031  0.2211 -0.0333
   97OSM   H18S 9661   4.879   5.788   8.935  0.7275 -0.5057  0.3749
   97OSM   H18T 9662   4.726   5.737   9.027 -1.6182 -0.6902 -1.1927
   97OSM   H18U 9663   4.783   5.648   8.880  0.3881 -1.1999  0.4908
   97OSM    C1F 9664   5.066   6.536  10.312  0.0741 -0.5634 -0.3049
   97OSM     OF 9665   5.163   6.581  10.382  0.0143 -0.0386  0.1253
   97OSM    C2F 9666   5.029   6.589  10.177  0.3097  0.3195 -0.1849
   97OSM    H2F 9667   4.919   6.602  10.169 -0.0119 -1.7878  0.2623
   97OSM    H2G 9668   5.056   6.509  10.104  0.2770 -0.4192  0.5922
   97OSM    C3F 9669   5.111   6.717  10.142  0.7960 -0.5838 -0.1733
   97OSM    H3F 9670   5.220   6.696  10.148  0.8486 -0.0701  1.0724
   97OSM    H3G 9671   5.078   6.793  10.216 -1.7113 -1.4791 -0.3067
   97OSM    C4F 9672   5.097   6.776   9.998  0.6445 -0.6506 -0.6225
   97OSM    H4F 9673   5.153   6.871   9.984  1.2974 -0.5190  2.3736
   97OSM    H4G 9674   4.989   6.795   9.981  0.3418 -0.3818  1.4214
   97OSM    C5F 9675   5.144   6.687   9.880 -0.1360  0.3277 -0.3651
   97OSM    H5F 9676   5.079   6.598   9.895 -0.1775  0.2336 -1.0857
   97OSM    H5G 9677   5.248   6.649   9.897 -0.9069 -2.0629 -0.5845
   97OSM    C6F 9678   5.126   6.738   9.737 -0.5108 -0.3346 -0.4847
   97OSM    H6F 9679   5.191   6.828   9.734  1.0192 -1.3846 -0.3021
   97OSM    H6G 9680   5.024   6.780   9.728  0.4253  2.5723  1.2704
   97OSM    C7F 9681   5.173   6.638   9.624 -0.4441 -0.1924 -0.1415
   97OSM    H7F 9682   5.145   6.534   9.652  1.2374 -0.9382 -1.0581
   97OSM    H7G 9683   5.282   6.629   9.609 -0.3728 -0.1296  0.3242
   97OSM    C8F 9684   5.117   6.678   9.485  0.2582 -0.1468  0.1676
   97OSM    H8F 9685   5.129   6.786   9.461 -0.3645 -0.0843  0.1264
   97OSM    H8G 9686   5.006   6.676   9.491  0.1229 -0.4773 -1.8633
   97OSM    C9F 9687   5.181   6.587   9.390  0.1178 -0.2598  0.1398
   97OSM    H9F 9688   5.272   6.535   9.422 -0.4110 -1.4924 -0.2889
   97OSM   C10F 9689   5.140   6.577   9.264  0.3702 -0.1915  0.0521
   97OSM   H10F 9690   5.204   6.536   9.185  0.2213  1.2460 -0.8474
   97OSM   C11F 9691   5.018   6.655   9.207 -0.0467 -0.6702 -0.2859
   97OSM   H11F 9692   4.959   6.717   9.277 -1.3341 -0.9409 -1.0936
   97OSM   H11G 9693   4.944   6.579   9.176 -3.0250  1.0985  2.0202
   97OSM   C12F 9694   5.050   6.743   9.088 -0.1200 -0.3241 -0.0155
   97OSM   H12F 9695   5.133   6.815   9.104 -0.4800 -0.0364  0.5738
   97OSM   H12G 9696   4.963   6.805   9.056  0.5866  1.2750  1.0528
   97OSM   C13F 9697   5.084   6.659   8.960 -0.3405  0.0487 -0.0365
   97OSM   H13F 9698   5.013   6.577   8.934  0.3119 -0.0028 -1.7308
   97OSM   H13G 9699   5.188   6.623   8.967 -0.5604 -0.7645 -0.8106
   97OSM   C14F 9700   5.074   6.745   8.832  0.2488  0.1786  0.3930
   97OSM   H14F 9701   5.138   6.834   8.848  0.5480  0.2639 -1.1834
   97OSM   H14G 9702   4.976   6.792   8.808  0.2698  0.5484  1.0085
   97OSM   C15F 9703   5.119   6.676   8.707  0.2068 -0.2163 -0.3863
   97OSM   H15F 9704   5.221   6.633   8.722 -0.2580 -1.2045 -0.0168
   97OSM   H15G 9705   5.129   6.746   8.621 -0.3509 -0.9013 -1.0228
   97OSM   C16F 9706   5.023   6.565   8.670  1.0824  0.1233 -0.5397
   97OSM   H16F 9707   5.046   6.480   8.737  0.8958  2.0352  2.0949
   97OSM   H16G 9708   5.035   6.545   8.561 -1.7037 -3.2986 -0.4070
   97OSM   C17F 9709   4.873   6.585   8.676 -0.0072 -0.4444  0.1531
   97OSM   H17F 9710   4.840   6.662   8.602 -0.7382 -0.6894  0.2154
   97OSM   H17G 9711   4.847   6.624   8.776 -1.0797 -1.1644  0.1809
   97OSM   C18F 9712   4.785   6.466   8.640 -0.4667 -0.3566 -0.2914
   97OSM   H18F 9713   4.816   6.375   8.696  0.8296  0.2099 -0.0502
   97OSM   H18G 9714   4.791   6.437   8.533 -1.0587  1.5386 -0.8731
   97OSM   H18H 9715   4.680   6.489   8.670 -0.2456 -0.2846  0.4605
   98OSM      N 9716   3.376   5.779  10.920 -0.3224 -0.6807  0.4751
   98OSM    C15 9717   3.520   5.835  10.908  0.2686 -0.6468 -0.0501
   98OSM   H15A 9718   3.518   5.907  10.828  0.7249 -1.8727 -1.1903
   98OSM   H15B 9719   3.588   5.756  10.882  0.1697 -0.3335 -1.3238
   98OSM   H15C 9720   3.543   5.891  10.998 -1.9597  1.3632 -0.6349
   98OSM    C14 9721   3.280   5.898  10.931 -0.5005  0.0319  0.0958
   98OSM   H14A 9722   3.180   5.860  10.919  0.0565 -1.7245  0.6116
   98OSM   H14B 9723   3.295   5.981  10.864  1.7383  2.2181  3.0478
   98OSM   H14C 9724   3.295   5.948  11.025  1.3624 -3.7727  2.0444
   98OSM    C13 9725   3.346   5.712  10.795  0.0259  0.3143  1.2036
   98OSM   H13A 9726   3.378   5.758  10.702  1.9856  1.9382  2.5817
   98OSM   H13B 9727   3.239   5.699  10.786  0.2696 -0.7875 -0.6502
   98OSM   H13C 9728   3.387   5.613  10.801  0.9347  0.1907 -3.1999
   98OSM    C12 9729   3.359   5.692  11.038 -0.2801 -0.0560 -0.3119
   98OSM   H12A 9730   3.256   5.662  11.040 -0.3229  0.1456  1.1544
   98OSM   H12B 9731   3.374   5.752  11.127  2.2302  1.0100 -1.3297
   98OSM    C11 9732   3.450   5.569  11.049 -0.2376  0.0113 -0.4200
   98OSM   H11A 9733   3.408   5.508  11.131  1.0008 -0.0732  0.1825
   98OSM   H11B 9734   3.555   5.599  11.069 -0.0663 -0.6374 -0.3199
   98OSM      P 9735   3.497   5.340  10.929  0.2594 -0.0227  0.0834
   98OSM    O13 9736   3.640   5.327  10.972 -0.3207 -0.1628 -0.0137
   98OSM    O14 9737   3.394   5.253  10.985 -0.1135  0.2570  0.0368
   98OSM    O11 9738   3.504   5.309  10.777  0.0054 -0.2954 -0.1591
   98OSM    O12 9739   3.456   5.487  10.934 -0.5770 -0.5412 -1.2476
   98OSM    C1S 9740   3.579   5.379  10.680 -0.2593  0.3179  0.8014
   98OSM    H1S 9741   3.682   5.338  10.672 -0.6884 -0.5112 -0.9679
   98OSM    H1T 9742   3.589   5.487  10.701 -1.4633  0.1537  2.3609
   98OSM     NF 9743   3.639   5.378  10.438 -0.1769 -0.0048 -0.5599
   98OSM    HNF 9744   3.652   5.472  10.405  1.1879  0.5812  1.4629
   98OSM    C2S 9745   3.532   5.345  10.532 -0.1836 -0.5365 -0.1576
   98OSM    H2S 9746   3.514   5.236  10.519 -1.4499 -0.1372 -2.1213
   98OSM    C3S 9747   3.394   5.413  10.516 -0.3239 -0.4733  0.2862
   98OSM    H3S 9748   3.396   5.521  10.544 -3.4142 -0.4056  0.5855
   98OSM     O3 9749   3.299   5.350  10.600 -0.6843  0.3188  0.1039
   98OSM    HO3 9750   3.353   5.317  10.672 -0.4419 -1.0578 -0.6693
   98OSM    C4S 9751   3.356   5.414  10.373  0.0693 -0.0344 -0.5641
   98OSM    H4S 9752   3.356   5.316  10.323  0.5710  0.1317 -0.8985
   98OSM    C5S 9753   3.338   5.514  10.285  0.3451 -0.5218 -0.4667
   98OSM    H5S 9754   3.345   5.619  10.316  1.0525 -0.4841 -0.7221
   98OSM    C6S 9755   3.312   5.479  10.138 -0.2984 -0.1554  0.0446
   98OSM    H6S 9756   3.229   5.544  10.102  1.0616  1.2268 -0.6947
   98OSM    H6T 9757   3.285   5.372  10.131 -0.3867 -0.2829  1.8204
   98OSM    C7S 9758   3.444   5.499  10.069 -0.2313  0.2541 -0.0371
   98OSM    H7S 9759   3.520   5.421  10.092 -0.6593 -0.6385 -1.4824
   98OSM    H7T 9760   3.487   5.599  10.089 -3.2196  1.6954 -0.4010
   98OSM    C8S 9761   3.425   5.492   9.917 -0.1984  0.8184 -0.3079
   98OSM    H8S 9762   3.390   5.591   9.883 -1.6975  1.1292  1.9323
   98OSM    H8T 9763   3.348   5.414   9.897  2.1999 -1.7849 -0.1170
   98OSM    C9S 9764   3.553   5.443   9.854 -0.0851  0.3915 -0.0547
   98OSM    H9S 9765   3.573   5.339   9.890 -0.5560 -0.3987 -1.9627
   98OSM    H9T 9766   3.643   5.508   9.864 -1.0216  1.4864  1.8448
   98OSM   C10S 9767   3.529   5.423   9.705 -1.0147 -0.2141  0.0186
   98OSM   H10S 9768   3.536   5.528   9.667  0.9569 -0.8798 -1.6380
   98OSM   H10T 9769   3.435   5.365   9.691 -1.8837  1.1818 -0.1589
   98OSM   C11S 9770   3.634   5.328   9.631 -0.4558 -0.3305  0.0354
   98OSM   H11S 9771   3.653   5.236   9.690  2.1450 -0.3998 -0.7955
   98OSM   H11T 9772   3.732   5.378   9.650 -0.0712 -0.3316 -1.8345
   98OSM   C12S 9773   3.606   5.276   9.488  0.1054 -0.3523  0.4209
   98OSM   H12S 9774   3.573   5.364   9.429 -3.1752 -1.8563 -0.1925
   98OSM   H12T 9775   3.523   5.203   9.493 -0.5866  0.3662 -0.2847
   98OSM   C13S 9776   3.726   5.199   9.433 -0.6162 -0.2315  0.1236
   98OSM   H13S 9777   3.759   5.126   9.510  0.5517  1.0725  0.9074
   98OSM   H13T 9778   3.814   5.264   9.415 -1.3194  0.2995 -1.6310
   98OSM   C14S 9779   3.693   5.143   9.294  0.0598  0.5487 -0.4043
   98OSM   H14S 9780   3.608   5.071   9.295  1.1221 -0.8955 -2.7074
   98OSM   H14T 9781   3.783   5.084   9.265 -0.2915 -0.3623  0.3247
   98OSM   C15S 9782   3.657   5.244   9.177  0.2737 -0.0063 -0.5745
   98OSM   H15S 9783   3.711   5.340   9.187  0.4567 -0.3557  2.5956
   98OSM   H15T 9784   3.547   5.259   9.184  0.1737 -0.3633 -1.2081
   98OSM   C16S 9785   3.688   5.193   9.038 -0.0075 -1.2848  0.5156
   98OSM   H16S 9786   3.697   5.082   9.036 -0.0528 -1.2850 -1.0887
   98OSM   H16T 9787   3.786   5.224   8.995 -1.7436  2.1726 -1.3843
   98OSM   C17S 9788   3.584   5.238   8.942 -0.4049 -0.1919 -0.1588
   98OSM   H17S 9789   3.550   5.343   8.955 -1.4986 -0.3005 -1.8003
   98OSM   H17T 9790   3.486   5.191   8.962 -0.2085 -1.1119 -1.2238
   98OSM   C18S 9791   3.619   5.197   8.797 -0.3958 -0.8981 -0.4876
   98OSM   H18S 9792   3.531   5.223   8.734  0.4359  1.1050 -0.9090
   98OSM   H18T 9793   3.644   5.091   8.778  1.9390 -0.3739 -0.6301
   98OSM   H18U 9794   3.701   5.262   8.759  0.4339 -2.2045 -0.9769
   98OSM    C1F 9795   3.745   5.294  10.428 -0.1670 -0.5723 -0.2017
   98OSM     OF 9796   3.754   5.186  10.482  0.3421  0.9648  0.3219
   98OSM    C2F 9797   3.870   5.353  10.358 -0.2507  0.4703  0.7452
   98OSM    H2F 9798   3.958   5.289  10.382  0.7581  1.8928  1.0206
   98OSM    H2G 9799   3.888   5.453  10.404 -0.4319  1.3910 -1.0645
   98OSM    C3F 9800   3.845   5.354  10.199 -0.4509  0.2499  0.3086
   98OSM    H3F 9801   3.939   5.401  10.163 -0.8038  1.5644  1.0415
   98OSM    H3G 9802   3.763   5.422  10.169 -1.3179 -0.7504  0.3677
   98OSM    C4F 9803   3.827   5.222  10.125  0.6105 -0.4736  0.3290
   98OSM    H4F 9804   3.724   5.188  10.147 -0.1140  0.6065 -1.2558
   98OSM    H4G 9805   3.905   5.151  10.160  0.5188 -0.4578  0.5650
   98OSM    C5F 9806   3.840   5.243   9.977  0.5928  0.3744 -0.3181
   98OSM    H5F 9807   3.779   5.326   9.932  1.7191  1.3526 -0.0841
   98OSM    H5G 9808   3.806   5.146   9.934 -0.4864  0.1697  0.9208
   98OSM    C6F 9809   3.985   5.256   9.918  0.6562 -0.4133 -1.3118
   98OSM    H6F 9810   4.048   5.195   9.986 -2.7729 -0.7273  1.9041
   98OSM    H6G 9811   4.007   5.363   9.943 -1.9557 -0.0411 -0.3304
   98OSM    C7F 9812   4.011   5.223   9.773  0.0825  0.2822  0.0710
   98OSM    H7F 9813   3.943   5.282   9.708 -0.7108 -0.0513  0.5777
   98OSM    H7G 9814   3.976   5.119   9.752  3.5583 -1.0964  0.3921
   98OSM    C8F 9815   4.156   5.242   9.715 -0.1150  0.4657 -0.2398
   98OSM    H8F 9816   4.191   5.341   9.751  1.4618  0.9813 -2.9303
   98OSM    H8G 9817   4.139   5.254   9.606 -1.4494  1.8005  0.0818
   98OSM    C9F 9818   4.253   5.134   9.756  0.1009  0.3125  0.8636
   98OSM    H9F 9819   4.218   5.072   9.840  1.1186 -0.2201  0.9089
   98OSM   C10F 9820   4.350   5.090   9.667  0.0953 -0.5556 -0.3551
   98OSM   H10F 9821   4.421   5.022   9.716 -0.6259 -1.5070 -0.6114
   98OSM   C11F 9822   4.380   5.165   9.535 -0.2769 -0.0775  0.0237
   98OSM   H11F 9823   4.388   5.276   9.541 -1.0994  0.0179 -0.4466
   98OSM   H11G 9824   4.297   5.138   9.467  0.7751 -0.8641 -0.9694
   98OSM   C12F 9825   4.515   5.106   9.490  0.2523  0.0141  0.5151
   98OSM   H12F 9826   4.594   5.143   9.560  0.4322  0.3902  0.1208
   98OSM   H12G 9827   4.544   5.154   9.394  3.0212 -1.0705  0.7078
   98OSM   C13F 9828   4.509   4.958   9.453 -0.3281 -0.4154  0.2078
   98OSM   H13F 9829   4.406   4.946   9.415 -1.3377  1.5936  2.1130
   98OSM   H13G 9830   4.529   4.895   9.543  2.1040  0.6094  0.4680
   98OSM   C14F 9831   4.618   4.918   9.346  0.0642 -0.3062  0.2663
   98OSM   H14F 9832   4.703   4.988   9.363 -1.2097  0.9244  1.9919
   98OSM   H14G 9833   4.577   4.950   9.248  1.5809  1.4406  0.1278
   98OSM   C15F 9834   4.635   4.766   9.318  0.3133 -0.9320 -0.1892
   98OSM   H15F 9835   4.533   4.731   9.290 -0.7770  2.2107 -0.5067
   98OSM   H15G 9836   4.664   4.721   9.415  0.7912 -1.3934 -0.5415
   98OSM   C16F 9837   4.719   4.738   9.194 -0.7051 -0.4231  0.0965
   98OSM   H16F 9838   4.827   4.762   9.207 -0.6889 -0.5191  0.1361
   98OSM   H16G 9839   4.689   4.803   9.110  0.5913 -0.9824 -0.8347
   98OSM   C17F 9840   4.714   4.595   9.163 -0.3474 -0.2205 -0.0553
   98OSM   H17F 9841   4.609   4.560   9.155 -0.8345  1.3231 -0.9137
   98OSM   H17G 9842   4.755   4.536   9.247  0.0503  0.9554  0.6029
   98OSM   C18F 9843   4.787   4.557   9.029 -0.0020 -0.6195 -0.5580
   98OSM   H18F 9844   4.895   4.582   9.027 -0.4424  1.4801 -0.3021
   98OSM   H18G 9845   4.736   4.616   8.951 -2.3080 -0.1642  1.1890
   98OSM   H18H 9846   4.757   4.451   9.015 -2.8139 -0.1120  0.9733
   99OSM      N 9847   3.775   0.278  10.829  0.2202 -0.2827 -0.6066
   99OSM    C15 9848   3.750   0.224  10.969  0.4386  0.2673 -0.0668
   99OSM   H15A 9849   3.648   0.189  10.972  0.7433 -0.6502 -0.0887
   99OSM   H15B 9850   3.779   0.299  11.042 -2.1781  0.1579  1.2204
   99OSM   H15C 9851   3.807   0.134  10.983 -1.5146 -0.8470  1.1269
   99OSM    C14 9852   3.697   0.214  10.723 -0.9810 -0.7855  0.7644
   99OSM   H14A 9853   3.595   0.188  10.746 -0.9580 -3.4384 -1.5746
   99OSM   H14B 9854   3.744   0.120  10.698 -0.3125 -0.4453  0.7058
   99OSM   H14C 9855   3.700   0.268  10.629  1.7963 -1.5609  0.3206
   99OSM    C13 9856   3.749   0.425  10.833  0.2945  0.4837  0.9779
   99OSM   H13A 9857   3.824   0.484  10.883  2.5559 -0.3405 -1.1742
   99OSM   H13B 9858   3.654   0.440  10.881  0.2892  1.0579  0.7899
   99OSM   H13C 9859   3.739   0.457  10.730  2.2055 -4.6720 -1.1842
   99OSM    C12 9860   3.921   0.259  10.788 -0.1867 -0.3685  1.0217
   99OSM   H12A 9861   3.985   0.278  10.874  1.3393 -2.1222  0.3563
   99OSM   H12B 9862   3.937   0.327  10.705 -1.3764 -0.8824  0.3519
   99OSM    C11 9863   3.980   0.120  10.738  0.2862 -0.1941 -0.3365
   99OSM   H11A 9864   4.090   0.120  10.730  0.3643  0.6556  0.6320
   99OSM   H11B 9865   3.947   0.087  10.638  0.0309  0.0309 -0.3291
   99OSM      P 9866   4.030  -0.013  10.953 -0.2780 -0.0823  0.4312
   99OSM    O13 9867   4.105   0.112  10.978 -0.3532  0.0201  0.2588
   99OSM    O14 9868   3.950  -0.058  11.069  0.7800  0.3479 -0.1718
   99OSM    O11 9869   4.130  -0.132  10.908 -1.0897  0.2788  0.4157
   99OSM    O12 9870   3.933   0.013  10.831  0.4595 -0.2851  0.2402
   99OSM    C1S 9871   4.101  -0.219  10.804  0.3515 -0.1915 -0.0106
   99OSM    H1S 9872   3.995  -0.221  10.771  0.3319  0.1483  0.0267
   99OSM    H1T 9873   4.122  -0.321  10.842  1.4272  0.2833  0.6968
   99OSM     NF 9874   4.145  -0.278  10.565  0.7433  0.0778  0.3123
   99OSM    HNF 9875   4.194  -0.364  10.555 -1.7623 -1.4042 -0.1780
   99OSM    C2S 9876   4.188  -0.193  10.678 -0.1329 -0.4308  0.6068
   99OSM    H2S 9877   4.172  -0.091  10.637  0.2919 -0.3610  0.6141
   99OSM    C3S 9878   4.336  -0.216  10.717  0.3386 -0.0265 -0.4222
   99OSM    H3S 9879   4.360  -0.319  10.749  0.0451  0.1905  0.5300
   99OSM     O3 9880   4.377  -0.142  10.830  0.1232 -0.0124  0.0895
   99OSM    HO3 9881   4.297  -0.116  10.877  1.5205  0.6191  2.3202
   99OSM    C4S 9882   4.415  -0.184  10.599  0.3047 -0.2900 -0.4218
   99OSM    H4S 9883   4.426  -0.076  10.580 -1.4502 -0.6314 -4.2499
   99OSM    C5S 9884   4.479  -0.266  10.512 -0.2655 -0.4512 -0.1037
   99OSM    H5S 9885   4.477  -0.375  10.526 -1.2262 -0.2213  1.8836
   99OSM    C6S 9886   4.548  -0.213  10.386 -0.4718  0.5604 -0.0336
   99OSM    H6S 9887   4.521  -0.286  10.307  1.6402  0.2484 -0.5149
   99OSM    H6T 9888   4.657  -0.232  10.396 -0.7895 -0.7303  1.3783
   99OSM    C7S 9889   4.512  -0.074  10.346  0.5813 -0.2288 -0.2724
   99OSM    H7S 9890   4.551  -0.006  10.424 -1.9342  0.7178  0.2322
   99OSM    H7T 9891   4.403  -0.056  10.343  0.3311 -1.6917 -2.2403
   99OSM    C8S 9892   4.580  -0.031  10.214  0.0262  0.1788 -0.2941
   99OSM    H8S 9893   4.691  -0.044  10.210 -0.0483 -0.4760 -0.3295
   99OSM    H8T 9894   4.564   0.077  10.195  0.0685 -0.1675 -2.5680
   99OSM    C9S 9895   4.539  -0.105  10.086 -0.2258 -0.7448  0.3096
   99OSM    H9S 9896   4.431  -0.087  10.066  0.1999  0.7364 -0.9032
   99OSM    H9T 9897   4.561  -0.213  10.097  0.5853 -0.4426  1.7698
   99OSM   C10S 9898   4.615  -0.060   9.964 -0.0765 -0.1892  0.3771
   99OSM   H10S 9899   4.725  -0.068   9.982 -0.1647  0.5919  1.3742
   99OSM   H10T 9900   4.600   0.047   9.942 -0.8282 -0.5515 -0.9229
   99OSM   C11S 9901   4.575  -0.153   9.846 -0.1931 -1.0229  0.4835
   99OSM   H11S 9902   4.467  -0.141   9.824  0.3352  3.4709 -0.6201
   99OSM   H11T 9903   4.582  -0.259   9.879  0.3474 -1.4110 -0.8352
   99OSM   C12S 9904   4.648  -0.111   9.712 -0.1139  0.7273 -0.6014
   99OSM   H12S 9905   4.632  -0.003   9.690  0.7882  0.7633 -1.1243
   99OSM   H12T 9906   4.752  -0.139   9.740 -1.0470 -0.9548  1.4336
   99OSM   C13S 9907   4.608  -0.200   9.595 -0.1716 -0.3389 -0.2687
   99OSM   H13S 9908   4.500  -0.180   9.584  0.2216  3.8242  1.6323
   99OSM   H13T 9909   4.603  -0.309   9.614 -1.8731  0.0634  1.9695
   99OSM   C14S 9910   4.666  -0.168   9.452 -0.2269  0.2534  0.0068
   99OSM   H14S 9911   4.773  -0.198   9.446 -0.3664 -0.5629  1.2206
   99OSM   H14T 9912   4.657  -0.058   9.435 -0.7434  0.2642  0.3475
   99OSM   C15S 9913   4.584  -0.239   9.343 -0.4654  0.3847 -0.2924
   99OSM   H15S 9914   4.478  -0.208   9.359 -0.8712 -1.2863  0.4985
   99OSM   H15T 9915   4.579  -0.347   9.372 -0.6810  0.9498  1.9886
   99OSM   C16S 9916   4.624  -0.210   9.198  0.5401 -0.1839  0.0064
   99OSM   H16S 9917   4.730  -0.242   9.185  0.4607 -1.0899  1.4380
   99OSM   H16T 9918   4.615  -0.103   9.167  0.0577 -1.0509 -3.2393
   99OSM   C17S 9919   4.535  -0.283   9.095  0.4723 -0.5280 -0.0633
   99OSM   H17S 9920   4.428  -0.277   9.123  1.0472 -3.0767  3.3353
   99OSM   H17T 9921   4.557  -0.391   9.101  0.0562 -0.5585  1.6626
   99OSM   C18S 9922   4.562  -0.253   8.954  0.4465 -0.5151 -0.2115
   99OSM   H18S 9923   4.508  -0.315   8.879  0.1506 -0.5844  0.0566
   99OSM   H18T 9924   4.672  -0.262   8.942  0.8152  1.4087  1.3301
   99OSM   H18U 9925   4.548  -0.145   8.934 -0.6178 -0.7983 -1.0835
   99OSM    C1F 9926   4.018  -0.263  10.511 -0.1789  0.2152 -0.1124
   99OSM     OF 9927   3.949  -0.169  10.546 -0.5801  0.4847  0.6768
   99OSM    C2F 9928   3.975  -0.374  10.417 -0.1672 -0.2360  0.0544
   99OSM    H2F 9929   3.865  -0.370  10.399 -0.5712 -0.2473  2.2529
   99OSM    H2G 9930   3.991  -0.470  10.469 -0.1730 -0.7752 -0.9103
   99OSM    C3F 9931   4.048  -0.402  10.285  0.1549  0.2761  0.0965
   99OSM    H3F 9932   4.153  -0.429  10.307  1.5838  4.3255 -1.0303
   99OSM    H3G 9933   3.989  -0.484  10.238  2.2237 -1.5975  0.5909
   99OSM    C4F 9934   4.059  -0.289  10.189 -0.3882  0.5587  0.4785
   99OSM    H4F 9935   4.112  -0.329  10.100  2.0874 -1.9537  2.8712
   99OSM    H4G 9936   4.126  -0.208  10.224 -0.2068  0.8443 -0.5096
   99OSM    C5F 9937   3.920  -0.216  10.157  0.8568 -0.0117 -0.0847
   99OSM    H5F 9938   3.900  -0.154  10.247 -1.2374  3.5868 -2.7775
   99OSM    H5G 9939   3.836  -0.288  10.150 -0.4005  1.5088 -1.1044
   99OSM    C6F 9940   3.921  -0.128  10.033  0.4062  0.5787 -0.3407
   99OSM    H6F 9941   3.998  -0.049  10.042  0.3504  0.4055  2.4502
   99OSM    H6G 9942   3.819  -0.089  10.052 -0.8522 -2.7075  0.3073
   99OSM    C7F 9943   3.920  -0.213   9.895 -0.2931  0.1201 -0.1592
   99OSM    H7F 9944   3.847  -0.296   9.907  0.3250 -0.3710  0.2446
   99OSM    H7G 9945   4.021  -0.255   9.879 -0.7518 -0.6616 -1.1355
   99OSM    C8F 9946   3.872  -0.121   9.781  0.6155 -0.9085 -0.7923
   99OSM    H8F 9947   3.950  -0.044   9.763 -1.8698  1.9824  0.0231
   99OSM    H8G 9948   3.775  -0.077   9.813  0.5874 -1.9874  0.7605
   99OSM    C9F 9949   3.859  -0.198   9.656 -0.2633  0.1082  0.0781
   99OSM    H9F 9950   3.864  -0.308   9.663  0.8772  0.2234  1.4570
   99OSM   C10F 9951   3.856  -0.140   9.531  0.4321  0.2516 -0.0170
   99OSM   H10F 9952   3.851  -0.212   9.448  0.1398 -2.0969  1.9235
   99OSM   C11F 9953   3.861   0.012   9.494 -0.4165  0.8547  0.1880
   99OSM   H11F 9954   3.948   0.044   9.434 -0.0341  0.5870  0.5896
   99OSM   H11G 9955   3.869   0.071   9.588 -0.1628 -2.0594  2.1336
   99OSM   C12F 9956   3.737   0.059   9.416  0.3167 -0.2646 -0.3047
   99OSM   H12F 9957   3.743   0.170   9.418 -0.6113 -0.2198  0.3594
   99OSM   H12G 9958   3.644   0.020   9.462  0.7616  0.0599  0.8891
   99OSM   C13F 9959   3.746   0.017   9.266  0.5915  0.6087  0.0042
   99OSM   H13F 9960   3.719  -0.091   9.271 -2.3463  1.3319  1.5989
   99OSM   H13G 9961   3.855   0.026   9.243  0.8248  3.4036  1.7169
   99OSM   C14F 9962   3.653   0.089   9.177 -0.4117  0.8010  0.1148
   99OSM   H14F 9963   3.666   0.199   9.186  0.9876  0.8105 -1.5452
   99OSM   H14G 9964   3.551   0.078   9.221 -0.7865  0.5768 -0.7840
   99OSM   C15F 9965   3.662   0.042   9.028  0.1309  0.4983  0.7447
   99OSM   H15F 9966   3.766   0.067   8.997 -0.2189  0.3852 -0.5778
   99OSM   H15G 9967   3.592   0.097   8.962  1.0213 -0.6886 -1.2803
   99OSM   C16F 9968   3.665  -0.104   8.998 -0.3354  0.1817 -0.3199
   99OSM   H16F 9969   3.585  -0.167   9.044  0.4485 -0.2748  0.4459
   99OSM   H16G 9970   3.758  -0.137   9.049  0.6383 -0.7291 -2.5538
   99OSM   C17F 9971   3.672  -0.126   8.850  0.3621  0.6338  0.6626
   99OSM   H17F 9972   3.769  -0.083   8.817  0.2074  0.0171 -0.6517
   99OSM   H17G 9973   3.586  -0.071   8.806 -1.3938 -0.6691  2.3097
   99OSM   C18F 9974   3.664  -0.278   8.804 -0.1969 -0.2353  0.3674
   99OSM   H18F 9975   3.568  -0.325   8.835 -0.2110 -0.4124  0.0675
   99OSM   H18G 9976   3.753  -0.327   8.849 -0.1254 -1.4119 -0.9659
   99OSM   H18H 9977   3.671  -0.277   8.693 -0.7811  1.0962  0.3140
  100OSM      N 9978   1.182   0.704  10.863 -0.1956  0.3835  0.7318
  100OSM    C15 9979   1.265   0.670  10.979 -0.2722  0.3197  0.2516
  100OSM   H15A 9980   1.223   0.646  11.075 -0.4452  1.5342  0.4829
  100OSM   H15B 9981   1.337   0.748  10.998 -3.8127  4.2029 -0.8359
  100OSM   H15C 9982   1.318   0.583  10.941 -3.3650 -0.8532 -1.8218
  100OSM    C14 9983   1.096   0.824  10.888 -0.7030 -0.4181 -0.4134
  100OSM   H14A 9984   1.155   0.909  10.918 -2.3086  1.1507 -1.5140
  100OSM   H14B 9985   1.030   0.815  10.973  0.3420  0.0620  0.4748
  100OSM   H14C 9986   1.038   0.852  10.802 -0.1669  1.9961 -0.0613
  100OSM    C13 9987   1.267   0.743  10.753 -0.4271 -0.6680  0.0295
  100OSM   H13A 9988   1.330   0.827  10.773 -0.3309  0.0116 -2.6854
  100OSM   H13B 9989   1.210   0.776  10.667  1.4665  0.4679 -0.8312
  100OSM   H13C 9990   1.325   0.660  10.716  0.5537 -0.1576  0.4094
  100OSM    C12 9991   1.087   0.589  10.825 -0.0450 -0.3040  0.5518
  100OSM   H12A 9992   1.052   0.617  10.726 -1.0104  0.0373  0.9849
  100OSM   H12B 9993   1.008   0.596  10.898  1.1218  0.4811  1.7808
  100OSM    C11 9994   1.143   0.451  10.829 -0.7887  0.3141 -0.8090
  100OSM   H11A 9995   1.060   0.378  10.826  1.2752 -2.1752 -1.1849
  100OSM   H11B 9996   1.194   0.431  10.926 -0.6826 -0.4943 -1.0216
  100OSM      P 9997   1.160   0.389  10.568 -0.1474 -0.1920 -0.0922
  100OSM    O13 9998   1.261   0.416  10.465 -0.1826 -0.0035 -0.5186
  100OSM    O14 9999   1.106   0.252  10.584 -0.1180 -0.5740  0.7256
  100OSM    O1110000   1.047   0.500  10.548  0.6159 -0.0131  0.1078
  100OSM    O1210001   1.225   0.434  10.707  0.1496 -0.4211  0.0973
  100OSM    C1S10002   1.081   0.628  10.498 -0.1655  0.4943  0.3223
  100OSM    H1S10003   1.192   0.643  10.494 -0.2375  1.4853  1.5562
  100OSM    H1T10004   1.042   0.719  10.548 -0.2783  2.2062 -2.6383
  100OSM     NF10005   1.082   0.774  10.302  0.0775  0.1276  0.4500
  100OSM    HNF10006   1.025   0.856  10.309 -1.6906 -0.8661 -1.2200
  100OSM    C2S10007   1.022   0.651  10.352  0.0467  0.1778  0.6104
  100OSM    H2S10008   1.058   0.562  10.295 -0.4028  1.2735 -1.4904
  100OSM    C3S10009   0.867   0.652  10.362  0.2187 -0.0723  0.9655
  100OSM    H3S10010   0.840   0.745  10.417 -3.4186  0.1737 -0.9529
  100OSM     O310011   0.809   0.539  10.432  0.3429  0.3050 -0.2724
  100OSM    HO310012   0.883   0.499  10.478  0.8489  1.4493 -0.0397
  100OSM    C4S10013   0.799   0.659  10.227  0.0698  0.3793  0.5936
  100OSM    H4S10014   0.753   0.755  10.200  0.6189 -0.1991 -2.9193
  100OSM    C5S10015   0.775   0.555  10.144 -0.0180  0.2583  0.1733
  100OSM    H5S10016   0.816   0.455  10.163  1.4550  0.6207 -0.9204
  100OSM    C6S10017   0.703   0.562  10.011  0.4272 -0.0354 -0.3462
  100OSM    H6S10018   0.686   0.670   9.991  0.9686 -0.2934 -2.4246
  100OSM    H6T10019   0.612   0.499  10.006 -0.7067  1.3540  1.3930
  100OSM    C7S10020   0.791   0.514   9.891  0.3268 -0.3563  0.2179
  100OSM    H7S10021   0.862   0.431   9.914 -0.2736 -0.7230  0.7591
  100OSM    H7T10022   0.855   0.602   9.869  0.1082 -0.6348 -1.7775
  100OSM    C8S10023   0.708   0.494   9.770  0.9314  0.2462 -0.0217
  100OSM    H8S10024   0.652   0.589   9.754  0.1477  0.0752  1.4899
  100OSM    H8T10025   0.635   0.411   9.779  1.2114 -0.3842 -2.6821
  100OSM    C9S10026   0.797   0.475   9.646 -0.4576  0.7371 -0.7628
  100OSM    H9S10027   0.851   0.378   9.644 -1.6554  0.0218  0.2048
  100OSM    H9T10028   0.867   0.558   9.621 -1.9617  2.2453 -0.1768
  100OSM   C10S10029   0.695   0.474   9.528  0.2554 -0.3498  0.1869
  100OSM   H10S10030   0.624   0.560   9.527  0.8173  0.1233  0.0904
  100OSM   H10T10031   0.636   0.381   9.540  0.2779 -0.6307 -1.6605
  100OSM   C11S10032   0.774   0.475   9.403  0.2379  0.8754  0.7590
  100OSM   H11S10033   0.718   0.408   9.333  3.1183 -0.4273 -0.4524
  100OSM   H11T10034   0.860   0.415   9.439 -0.0375  1.2733  2.1348
  100OSM   C12S10035   0.831   0.615   9.363 -0.3470 -0.6580 -0.1772
  100OSM   H12S10036   0.928   0.600   9.312 -0.7207  3.3256 -2.4510
  100OSM   H12T10037   0.858   0.664   9.459  1.6144  0.3946 -1.2052
  100OSM   C13S10038   0.750   0.703   9.273 -0.0536  0.2313 -0.4291
  100OSM   H13S10039   0.824   0.782   9.247 -0.3268  1.0242  1.0830
  100OSM   H13T10040   0.663   0.752   9.323  0.8025  0.1372  1.2120
  100OSM   C14S10041   0.705   0.629   9.142 -0.6995  0.6295 -0.1887
  100OSM   H14S10042   0.636   0.544   9.163 -0.4289 -0.1031 -2.0672
  100OSM   H14T10043   0.797   0.579   9.104  0.1866  2.0487  0.0012
  100OSM   C15S10044   0.660   0.721   9.035  0.5990  0.6285  0.4565
  100OSM   H15S10045   0.738   0.794   9.007  1.8871 -0.3561  1.3296
  100OSM   H15T10046   0.570   0.778   9.067 -0.1542  0.7697 -1.7388
  100OSM   C16S10047   0.603   0.637   8.920 -0.1822  0.5964  0.1202
  100OSM   H16S10048   0.555   0.706   8.848 -1.4583 -0.8538 -0.4783
  100OSM   H16T10049   0.512   0.583   8.955 -0.7670  1.7748  0.4756
  100OSM   C17S10050   0.699   0.547   8.836  0.3897  0.3541  0.1762
  100OSM   H17S10051   0.737   0.468   8.905 -2.1981 -0.1030  1.1818
  100OSM   H17T10052   0.785   0.607   8.799  0.0858  0.1145 -0.9759
  100OSM   C18S10053   0.631   0.485   8.710 -0.2755  0.0878 -0.2260
  100OSM   H18S10054   0.559   0.553   8.660 -0.8991 -0.4802 -0.1071
  100OSM   H18T10055   0.586   0.385   8.726  1.0534 -0.5251 -0.1928
  100OSM   H18U10056   0.711   0.466   8.635  0.1202 -0.9161  0.4189
  100OSM    C1F10057   1.203   0.783  10.258 -0.5504 -1.0717  0.1102
  100OSM     OF10058   1.269   0.684  10.252  0.0714  0.1425 -0.0146
  100OSM    C2F10059   1.237   0.921  10.202  0.5797  0.3038  0.2534
  100OSM    H2F10060   1.348   0.917  10.190  0.5727 -1.8558  0.4591
  100OSM    H2G10061   1.213   0.995  10.281  2.3297 -0.2835  1.4202
  100OSM    C3F10062   1.160   0.964  10.072  0.0469  0.5787 -0.0593
  100OSM    H3F10063   1.188   1.070  10.055 -0.1116  0.7206  0.5468
  100OSM    H3G10064   1.052   0.945  10.086  0.2968  0.1583  1.4124
  100OSM    C4F10065   1.208   0.869   9.959 -0.0873 -0.5315  0.1471
  100OSM    H4F10066   1.180   0.767   9.991  0.7024 -1.0059 -0.6424
  100OSM    H4G10067   1.316   0.870   9.933 -0.1463 -0.6811 -0.1108
  100OSM    C5F10068   1.141   0.902   9.825 -0.2949  0.9620  0.0168
  100OSM    H5F10069   1.185   0.998   9.790 -0.1840  0.9847  0.2174
  100OSM    H5G10070   1.032   0.915   9.845 -0.0830 -0.5043  2.5595
  100OSM    C6F10071   1.167   0.784   9.720  0.0645 -0.1584  0.8192
  100OSM    H6F10072   1.135   0.686   9.761  1.4231 -1.5806 -1.2860
  100OSM    H6G10073   1.278   0.780   9.714  0.1576 -1.9686  2.5535
  100OSM    C7F10074   1.110   0.824   9.585 -0.3853 -0.7028  0.7946
  100OSM    H7F10075   1.151   0.925   9.563 -2.7172 -0.1837 -1.6839
  100OSM    H7G10076   1.000   0.824   9.601 -0.5407 -2.5136  0.0076
  100OSM    C8F10077   1.136   0.728   9.475 -0.0234 -0.7312 -0.2447
  100OSM    H8F10078   1.066   0.755   9.392 -0.2348  1.1392  0.4934
  100OSM    H8G10079   1.103   0.625   9.502 -0.4845 -0.3222  0.7971
  100OSM    C9F10080   1.282   0.721   9.427  0.3614 -0.0407 -0.3781
  100OSM    H9F10081   1.352   0.722   9.513 -1.0659  2.2750  0.8672
  100OSM   C10F10082   1.335   0.695   9.304  0.1348 -0.4228  0.6265
  100OSM   H10F10083   1.444   0.692   9.288 -0.1673  0.1024 -2.0147
  100OSM   C11F10084   1.251   0.683   9.184  0.2897 -0.0617 -0.3586
  100OSM   H11F10085   1.159   0.627   9.211  1.0863 -0.8800  0.7286
  100OSM   H11G10086   1.292   0.616   9.105  2.3354  0.8319 -0.1243
  100OSM   C12F10087   1.197   0.814   9.123  0.2392  0.2716  0.6195
  100OSM   H12F10088   1.279   0.883   9.094 -1.7030  1.4625 -2.6527
  100OSM   H12G10089   1.138   0.870   9.199 -0.3403 -0.7949  0.9795
  100OSM   C13F10090   1.104   0.794   8.997  0.2319  0.1723 -0.1861
  100OSM   H13F10091   1.066   0.890   8.957 -1.5410 -0.2529  0.3753
  100OSM   H13G10092   1.013   0.737   9.026  1.5668 -1.7290  0.4865
  100OSM   C14F10093   1.170   0.713   8.884  0.4840  0.2928 -0.0904
  100OSM   H14F10094   1.205   0.613   8.915  0.5923  0.4403  0.2675
  100OSM   H14G10095   1.263   0.762   8.849  1.7567 -1.6409  0.4204
  100OSM   C15F10096   1.076   0.674   8.774 -0.0935  0.5793  0.5222
  100OSM   H15F10097   1.000   0.599   8.806 -0.9903 -0.2668 -3.0700
  100OSM   H15G10098   1.144   0.609   8.713  0.3649  1.0113  0.5698
  100OSM   C16F10099   1.012   0.785   8.697  0.5425 -0.0821 -0.2433
  100OSM   H16F10100   1.100   0.848   8.674 -0.1799  1.4370  0.9519
  100OSM   H16G10101   0.943   0.846   8.759 -0.5072 -0.6514 -0.8206
  100OSM   C17F10102   0.932   0.721   8.580  0.5727  0.0939  0.4119
  100OSM   H17F10103   0.903   0.616   8.597  0.2158 -0.2549 -1.9387
  100OSM   H17G10104   1.005   0.720   8.495 -0.7694 -2.6712 -0.8118
  100OSM   C18F10105   0.803   0.794   8.550 -0.5150  0.8719 -0.0711
  100OSM   H18F10106   0.766   0.758   8.452  1.9565 -0.1222 -0.7325
  100OSM   H18G10107   0.814   0.904   8.543 -0.2126  0.8144 -0.5629
  100OSM   H18H10108   0.734   0.771   8.634  0.0138 -1.2718 -0.1589
  101OSM      N10109   2.680   6.594  10.702  0.4644  1.0191 -0.8307
  101OSM    C1510110   2.702   6.449  10.748  0.2076 -0.2449  0.0307
  101OSM   H15A10111   2.702   6.378  10.666 -0.9699 -0.1834 -0.0417
  101OSM   H15B10112   2.621   6.421  10.814 -0.3403  1.6218  0.2128
  101OSM   H15C10113   2.801   6.446  10.791 -0.1811 -0.9438  0.9022
  101OSM    C1410114   2.787   6.607  10.602  0.2225  0.4782  0.4461
  101OSM   H14A10115   2.789   6.524  10.532  0.9359 -0.0230  1.0357
  101OSM   H14B10116   2.884   6.607  10.649  0.7614 -1.9895 -0.4786
  101OSM   H14C10117   2.772   6.697  10.545 -0.7153 -0.6067 -1.1003
  101OSM    C1310118   2.548   6.602  10.650 -0.2233 -0.3504  0.0037
  101OSM   H13A10119   2.520   6.698  10.609 -0.1417 -0.9748 -1.6009
  101OSM   H13B10120   2.473   6.571  10.721 -1.5165 -0.8484 -1.5081
  101OSM   H13C10121   2.537   6.536  10.565 -0.2149 -0.3170 -0.0231
  101OSM    C1210122   2.705   6.695  10.814  0.5679 -0.4996 -0.5532
  101OSM   H12A10123   2.625   6.686  10.885 -0.6298  0.8666 -1.6658
  101OSM   H12B10124   2.708   6.793  10.767 -0.8630  0.1661  0.6716
  101OSM    C1110125   2.837   6.678  10.893 -0.5369  0.2930  0.1350
  101OSM   H11A10126   2.852   6.572  10.921  1.6808  0.7077  0.7263
  101OSM   H11B10127   2.827   6.744  10.982  0.3242  0.4310  0.1405
  101OSM      P10128   3.092   6.703  10.878 -0.5130 -0.1347  0.2280
  101OSM    O1310129   3.107   6.760  11.015  0.2425  0.5490 -0.4435
  101OSM    O1410130   3.140   6.566  10.862  0.1445 -0.2785  0.1103
  101OSM    O1110131   3.182   6.788  10.777  0.1628 -0.2421  0.0549
  101OSM    O1210132   2.951   6.729  10.825  0.6109 -0.0501  0.3344
  101OSM    C1S10133   3.179   6.723  10.646  0.1411 -0.7395  0.7700
  101OSM    H1S10134   3.074   6.714  10.609  0.6911 -1.0218 -0.7938
  101OSM    H1T10135   3.225   6.622  10.653 -1.1138 -1.4668 -0.7367
  101OSM     NF10136   3.248   6.760  10.405 -0.1632  0.4311  0.3960
  101OSM    HNF10137   3.330   6.733  10.356  1.4450  1.2258  2.5191
  101OSM    C2S10138   3.269   6.801  10.543  0.3728  0.1271 -0.9692
  101OSM    H2S10139   3.229   6.904  10.541  0.4060  0.1576 -0.1270
  101OSM    C3S10140   3.418   6.823  10.590 -0.5250 -0.0621 -0.0688
  101OSM    H3S10141   3.457   6.720  10.599 -0.6863  0.0020  1.6919
  101OSM     O310142   3.436   6.887  10.720 -0.1167  0.1476 -0.9210
  101OSM    HO310143   3.353   6.873  10.765  0.4338 -0.8795 -0.1867
  101OSM    C4S10144   3.491   6.906  10.488 -0.2646 -0.6895  0.1866
  101OSM    H4S10145   3.448   7.005  10.466  3.7369  0.9624 -1.1235
  101OSM    C5S10146   3.622   6.887  10.451  0.2288 -1.7328 -0.6500
  101OSM    H5S10147   3.679   6.804  10.496  2.1459  1.2101  2.9644
  101OSM    C6S10148   3.708   6.974  10.367 -0.2754 -0.3485  0.1558
  101OSM    H6S10149   3.807   6.924  10.374 -0.0698 -0.0509 -0.6037
  101OSM    H6T10150   3.721   7.071  10.420  1.2098 -1.9351  2.9587
  101OSM    C7S10151   3.646   7.002  10.233 -0.2647  0.2882  0.0480
  101OSM    H7S10152   3.558   7.069  10.242 -1.5472 -1.0138 -2.0173
  101OSM    H7T10153   3.596   6.913  10.187 -2.7582  1.2848  0.6783
  101OSM    C8S10154   3.746   7.074  10.146  0.0946  0.2240  0.1520
  101OSM    H8S10155   3.844   7.021  10.154  1.0837  1.8052 -0.7678
  101OSM    H8T10156   3.755   7.171  10.199  2.1706 -0.8286  1.9022
  101OSM    C9S10157   3.718   7.083   9.997 -0.1573 -0.0897 -0.3965
  101OSM    H9S10158   3.612   7.112   9.979 -0.1138 -0.7634 -1.8987
  101OSM    H9T10159   3.745   6.989   9.945  2.2230  0.1838  0.2295
  101OSM   C10S10160   3.801   7.194   9.928 -0.3680 -0.7440 -0.2203
  101OSM   H10S10161   3.902   7.175   9.969 -0.4151  1.4281  1.0492
  101OSM   H10T10162   3.767   7.297   9.952 -0.5403 -0.2306 -2.4889
  101OSM   C11S10163   3.841   7.191   9.778 -0.2087  0.1394  0.3149
  101OSM   H11S10164   3.753   7.177   9.712  0.3643 -0.8096 -0.2893
  101OSM   H11T10165   3.896   7.098   9.750  0.3343  0.3176  0.7665
  101OSM   C12S10166   3.906   7.319   9.721 -0.3233 -0.1488  0.2863
  101OSM   H12S10167   3.967   7.357   9.806  0.5523 -0.6162 -0.1212
  101OSM   H12T10168   3.837   7.406   9.713  0.2659  0.1678 -2.5643
  101OSM   C13S10169   3.983   7.300   9.589 -0.0424  0.3710  0.1230
  101OSM   H13S10170   4.038   7.203   9.600  1.4072  1.3166  1.6634
  101OSM   H13T10171   4.059   7.381   9.582 -1.1440  1.4006 -0.2256
  101OSM   C14S10172   3.902   7.298   9.457 -0.4422 -0.2459  0.4919
  101OSM   H14S10173   3.849   7.395   9.442  1.7102  1.0000  0.4758
  101OSM   H14T10174   3.823   7.221   9.463 -1.8993  1.2564  1.4294
  101OSM   C15S10175   3.994   7.272   9.335 -0.4189  0.2555 -0.0622
  101OSM   H15S10176   4.057   7.187   9.369 -1.7486  0.2960  2.8003
  101OSM   H15T10177   4.058   7.363   9.337 -2.3630  1.6669  0.7053
  101OSM   C16S10178   3.928   7.244   9.201  0.2029  0.3424 -0.5361
  101OSM   H16S10179   3.843   7.314   9.184  0.8425  1.5093  0.8040
  101OSM   H16T10180   3.893   7.139   9.215  1.1615  0.0603 -0.1949
  101OSM   C17S10181   4.018   7.235   9.077  0.2287  0.1656  0.2095
  101OSM   H17S10182   4.104   7.172   9.109  0.0973  0.6791  1.6511
  101OSM   H17T10183   4.073   7.330   9.056 -0.1906  1.0399  2.7560
  101OSM   C18S10184   3.944   7.174   8.952  0.1668  0.2755  0.4082
  101OSM   H18S10185   4.002   7.211   8.866  1.9288 -0.6154  1.1486
  101OSM   H18T10186   3.836   7.199   8.948  0.3429  1.0537  0.3125
  101OSM   H18U10187   3.959   7.064   8.943  0.6889  0.2128  1.7403
  101OSM    C1F10188   3.134   6.771  10.334  0.3848 -0.0568  0.9607
  101OSM     OF10189   3.045   6.845  10.379  0.7246  0.2564 -0.5465
  101OSM    C2F10190   3.121   6.710  10.195 -0.4224  0.2322 -0.3440
  101OSM    H2F10191   3.167   6.609  10.189 -0.1498  0.4400 -2.0776
  101OSM    H2G10192   3.175   6.780  10.128  0.3988  2.7790  2.7131
  101OSM    C3F10193   2.971   6.706  10.149  0.2104 -0.6027  0.1544
  101OSM    H3F10194   2.945   6.813  10.141 -0.0834 -0.6196  0.8037
  101OSM    H3G10195   2.905   6.662  10.227 -0.7527  2.1773  0.9938
  101OSM    C4F10196   2.960   6.621  10.020  0.2233  0.5342 -0.0305
  101OSM    H4F10197   3.025   6.532  10.036 -0.0950  0.3178  0.0709
  101OSM    H4G10198   3.015   6.685   9.948  1.5760  0.5654  0.9811
  101OSM    C5F10199   2.819   6.591   9.994 -0.3077  0.5634 -0.3749
  101OSM    H5F10200   2.752   6.678  10.012 -0.3567  0.9823 -2.3615
  101OSM    H5G10201   2.773   6.510  10.054  0.0411  0.0111 -0.8361
  101OSM    C6F10202   2.793   6.560   9.848 -0.0966  0.4273 -0.1967
  101OSM    H6F10203   2.704   6.493   9.854  0.4408 -0.2994 -0.2303
  101OSM    H6G10204   2.775   6.660   9.804  0.0941  0.9433  0.8676
  101OSM    C7F10205   2.898   6.473   9.787  0.3230 -0.0354 -0.9695
  101OSM    H7F10206   2.912   6.383   9.851  0.7012  0.7010  0.0101
  101OSM    H7G10207   3.001   6.514   9.796 -0.0472  0.4417  2.4850
  101OSM    C8F10208   2.855   6.440   9.638  0.0296 -0.1948 -0.6658
  101OSM    H8F10209   2.944   6.400   9.585  1.2263  1.5169 -0.0585
  101OSM    H8G10210   2.844   6.535   9.583  0.9221 -0.5169 -1.4385
  101OSM    C9F10211   2.736   6.351   9.616  0.2592  0.2193 -0.2581
  101OSM    H9F10212   2.668   6.344   9.702  0.6156 -1.1312 -0.0754
  101OSM   C10F10213   2.703   6.298   9.496  0.0959  0.0814  0.3756
  101OSM   H10F10214   2.614   6.234   9.486 -0.0617  0.6402 -3.1520
  101OSM   C11F10215   2.771   6.316   9.364 -0.4178 -0.2004  0.1215
  101OSM   H11F10216   2.867   6.259   9.364 -0.1001  0.3239  0.0246
  101OSM   H11G10217   2.803   6.422   9.354 -0.4537 -0.3243 -1.4989
  101OSM   C12F10218   2.704   6.266   9.229 -0.8947  0.5242  0.0420
  101OSM   H12F10219   2.654   6.353   9.180  1.1981  2.1955  0.7246
  101OSM   H12G10220   2.623   6.192   9.244 -1.2509  0.8845 -0.0868
  101OSM   C13F10221   2.800   6.203   9.126 -0.2809  0.8479  0.1978
  101OSM   H13F10222   2.839   6.101   9.147  0.8488  1.0458 -0.8398
  101OSM   H13G10223   2.894   6.261   9.112  0.7626 -1.1622 -1.6465
  101OSM   C14F10224   2.730   6.196   8.984 -0.8532 -0.6191  0.4790
  101OSM   H14F10225   2.686   6.295   8.960  0.1073 -0.4189 -0.5232
  101OSM   H14G10226   2.649   6.120   8.988 -0.4569 -1.0769  0.0277
  101OSM   C15F10227   2.833   6.152   8.879  0.4268  0.3530  0.1937
  101OSM   H15F10228   2.780   6.091   8.802  0.1187  1.0141 -0.1319
  101OSM   H15G10229   2.893   6.077   8.934 -0.4467 -1.8542 -1.6974
  101OSM   C16F10230   2.918   6.269   8.823  0.2702  0.1442 -0.4082
  101OSM   H16F10231   2.936   6.338   8.909 -1.4729 -1.8494  1.7141
  101OSM   H16G10232   2.859   6.307   8.737  0.3874 -1.1139 -1.0645
  101OSM   C17F10233   3.045   6.223   8.758 -0.4708 -0.9877  0.8825
  101OSM   H17F10234   3.068   6.284   8.668 -1.6467 -1.5161  0.2057
  101OSM   H17G10235   3.018   6.124   8.715 -0.0673 -1.0587  0.7857
  101OSM   C18F10236   3.169   6.213   8.849  0.1495 -0.0710  0.2416
  101OSM   H18F10237   3.260   6.195   8.788 -1.0214 -1.9301 -1.0586
  101OSM   H18G10238   3.151   6.136   8.927  0.8513  1.8212  2.3505
  101OSM   H18H10239   3.190   6.305   8.908 -1.6052  0.9207 -0.5898
  102OSM      N10240   6.676   2.950  10.843 -0.5550 -0.4241 -0.0803
  102OSM    C1510241   6.570   2.906  10.943  0.7204  0.5620  0.4660
  102OSM   H15A10242   6.621   2.844  11.016  0.0264  0.3099  0.7400
  102OSM   H15B10243   6.493   2.839  10.908  2.7780 -1.2961 -0.8461
  102OSM   H15C10244   6.524   2.988  10.996 -1.2442 -1.9547  2.9308
  102OSM    C1410245   6.603   3.017  10.721 -0.1219  0.5593 -0.0707
  102OSM   H14A10246   6.539   3.097  10.758  0.7344  1.4952 -0.5684
  102OSM   H14B10247   6.542   2.955  10.657 -3.0343  1.6384  1.4378
  102OSM   H14C10248   6.671   3.074  10.660  1.4904  2.6731  3.3663
  102OSM    C1310249   6.759   3.058  10.908  0.3966 -0.4251  0.3772
  102OSM   H13A10250   6.831   3.090  10.834 -0.2842  2.5390  0.8899
  102OSM   H13B10251   6.798   3.027  11.004 -0.8777  2.4871  1.9442
  102OSM   H13C10252   6.701   3.144  10.936  2.0888  1.1056 -0.6471
  102OSM    C1210253   6.769   2.845  10.782 -0.1593  0.5406  0.5249
  102OSM   H12A10254   6.715   2.777  10.717 -1.4404  0.1373  1.9402
  102OSM   H12B10255   6.802   2.782  10.863  1.7277 -1.9926 -2.0120
  102OSM    C1110256   6.899   2.890  10.705  0.2815 -0.3021 -0.3917
  102OSM   H11A10257   6.961   2.798  10.698  0.4485 -0.1095 -1.6143
  102OSM   H11B10258   6.959   2.962  10.765  0.8650 -1.3524  0.3198
  102OSM      P10259   6.985   2.979  10.480  0.4433  0.1268 -0.2886
  102OSM    O1310260   7.063   3.096  10.526  0.3650 -0.2720  0.6659
  102OSM    O1410261   7.064   2.858  10.456  0.2430 -0.1707  0.3156
  102OSM    O1110262   6.902   3.014  10.350 -0.5303  0.1170 -0.2740
  102OSM    O1210263   6.865   2.945  10.578  0.0826  0.3638  0.6843
  102OSM    C1S10264   6.814   3.124  10.324  0.0574  0.0614 -0.1664
  102OSM    H1S10265   6.859   3.226  10.332  1.6086 -0.3278 -2.7558
  102OSM    H1T10266   6.747   3.136  10.411  0.8112  0.4359  0.3755
  102OSM     NF10267   6.654   3.232  10.157 -0.0192  0.6039 -0.1414
  102OSM    HNF10268   6.554   3.229  10.151  0.0028  1.3322 -1.1169
  102OSM    C2S10269   6.735   3.113  10.190  0.0088  0.4462 -0.5025
  102OSM    H2S10270   6.809   3.096  10.109  0.1609 -2.4787  0.1343
  102OSM    C3S10271   6.654   2.973  10.202  0.5533  0.5903  0.3172
  102OSM    H3S10272   6.561   3.000  10.257 -0.6457 -1.2597 -0.6885
  102OSM     O310273   6.704   2.865  10.284 -0.0751 -0.1625 -0.7764
  102OSM    HO310274   6.772   2.913  10.333 -1.0048 -0.8931  1.3485
  102OSM    C4S10275   6.610   2.924  10.065  0.0132 -0.1874  0.2787
  102OSM    H4S10276   6.519   2.969  10.023  0.1432  1.2279  1.4211
  102OSM    C5S10277   6.669   2.829   9.990  0.4320 -0.7943 -0.6278
  102OSM    H5S10278   6.753   2.770  10.030  2.4881  0.7812 -2.3792
  102OSM    C6S10279   6.623   2.769   9.860 -0.0084 -0.4077  0.0521
  102OSM    H6S10280   6.581   2.671   9.891 -1.2054  0.3991  1.0877
  102OSM    H6T10281   6.717   2.766   9.801 -0.5280 -0.0758 -0.8233
  102OSM    C7S10282   6.523   2.856   9.788  0.7079 -0.5498  0.3842
  102OSM    H7S10283   6.576   2.949   9.757  0.1630 -0.2612  0.3107
  102OSM    H7T10284   6.449   2.878   9.868  0.9876 -0.0654  0.5130
  102OSM    C8S10285   6.449   2.809   9.659 -0.0932 -0.6295  0.0997
  102OSM    H8S10286   6.416   2.902   9.606 -0.2006 -1.9585 -2.3003
  102OSM    H8T10287   6.367   2.744   9.697  0.3306 -0.7543  0.8154
  102OSM    C9S10288   6.542   2.734   9.570  0.8213 -0.3071  0.9505
  102OSM    H9S10289   6.583   2.642   9.617  3.7411  0.5498  0.2415
  102OSM    H9T10290   6.620   2.806   9.538 -0.2002 -0.4684 -2.2484
  102OSM   C10S10291   6.473   2.702   9.433 -0.0107 -0.5166  0.3602
  102OSM   H10S10292   6.394   2.624   9.437 -0.4623 -0.0646  0.4425
  102OSM   H10T10293   6.554   2.665   9.367  0.6153 -1.3870  1.5832
  102OSM   C11S10294   6.420   2.830   9.362  0.0422 -0.2509  0.9454
  102OSM   H11S10295   6.490   2.914   9.384  1.8281 -1.2355 -0.6078
  102OSM   H11T10296   6.321   2.845   9.410 -1.9942 -1.4468 -2.5269
  102OSM   C12S10297   6.412   2.820   9.201  0.0960 -0.1064 -0.0807
  102OSM   H12S10298   6.344   2.905   9.177  1.3216  1.5619  1.9504
  102OSM   H12T10299   6.367   2.721   9.178  0.3831  0.0419 -1.3695
  102OSM   C13S10300   6.548   2.838   9.120  0.3286 -0.3531 -0.2080
  102OSM   H13S10301   6.620   2.756   9.144  1.9561  1.9288  3.8163
  102OSM   H13T10302   6.599   2.933   9.147 -0.5019 -0.6741  2.8313
  102OSM   C14S10303   6.524   2.846   8.974 -0.6515 -0.2272 -0.3027
  102OSM   H14S10304   6.424   2.893   8.962 -0.8481 -0.6237 -0.2642
  102OSM   H14T10305   6.522   2.747   8.923 -0.8888 -0.2131 -0.3232
  102OSM   C15S10306   6.634   2.927   8.897  0.7619  0.0103  0.3163
  102OSM   H15S10307   6.655   3.016   8.960 -1.6440 -1.2754  3.1340
  102OSM   H15T10308   6.574   2.965   8.811  0.1192  2.1348  1.6314
  102OSM   C16S10309   6.748   2.839   8.844 -0.0894  0.5340  1.3151
  102OSM   H16S10310   6.705   2.751   8.792  0.0962  2.0067 -1.4972
  102OSM   H16T10311   6.805   2.793   8.927  1.0167 -2.8891 -1.1201
  102OSM   C17S10312   6.832   2.902   8.739  0.2420 -0.8045 -0.9373
  102OSM   H17S10313   6.779   2.968   8.666 -0.7974  0.1368  0.5911
  102OSM   H17T10314   6.871   2.821   8.674  1.1808 -1.8082  0.7958
  102OSM   C18S10315   6.954   2.970   8.795  0.3112 -0.2686  0.3306
  102OSM   H18S10316   7.012   3.009   8.708 -1.7255  1.1578 -0.4526
  102OSM   H18T10317   7.019   2.894   8.845 -0.7169 -1.4054 -0.0111
  102OSM   H18U10318   6.937   3.057   8.862  1.5557  0.2931 -0.0487
  102OSM    C1F10319   6.708   3.347  10.121  0.3439 -0.1745 -0.5733
  102OSM     OF10320   6.826   3.371  10.107  0.3084  1.0671  0.2847
  102OSM    C2F10321   6.607   3.451  10.090 -0.0882 -0.3098 -0.4974
  102OSM    H2F10322   6.576   3.499  10.185  1.6999  0.8589 -0.4413
  102OSM    H2G10323   6.517   3.402  10.047  0.3508 -1.6926  0.0903
  102OSM    C3F10324   6.657   3.553   9.992  0.1797  0.3408 -0.3761
  102OSM    H3F10325   6.675   3.502   9.895 -1.9564  0.2793 -0.7767
  102OSM    H3G10326   6.745   3.611  10.028 -0.9232  1.6075  0.3749
  102OSM    C4F10327   6.556   3.664   9.964 -0.4486 -0.4620  0.3116
  102OSM    H4F10328   6.543   3.725  10.055  1.4177 -0.2649  0.4832
  102OSM    H4G10329   6.462   3.620   9.925 -0.4646 -2.6089  2.5293
  102OSM    C5F10330   6.596   3.759   9.851 -0.0740 -0.3626 -0.4324
  102OSM    H5F10331   6.639   3.706   9.763 -0.5478 -0.3095 -0.7038
  102OSM    H5G10332   6.681   3.818   9.890 -0.8797  0.2577  0.4356
  102OSM    C6F10333   6.476   3.851   9.810  0.1199 -0.0357  0.2793
  102OSM    H6F10334   6.433   3.894   9.902  0.4632  1.0042 -0.0349
  102OSM    H6G10335   6.411   3.771   9.767  0.5061 -0.9390  1.3173
  102OSM    C7F10336   6.510   3.959   9.706  0.4250 -0.3916 -0.2875
  102OSM    H7F10337   6.593   4.022   9.747  0.5484 -0.4675 -0.4156
  102OSM    H7G10338   6.420   4.023   9.697  0.5118 -0.0509  1.0220
  102OSM    C8F10339   6.560   3.909   9.568 -0.0321 -0.4186  0.5582
  102OSM    H8F10340   6.636   3.830   9.586 -2.7321 -2.6445  3.4547
  102OSM    H8G10341   6.607   3.995   9.516  2.5793 -1.2418  1.3913
  102OSM    C9F10342   6.430   3.875   9.502  0.3802 -0.4711 -0.1283
  102OSM    H9F10343   6.350   3.827   9.561 -0.4379 -1.0103 -1.6263
  102OSM   C10F10344   6.400   3.899   9.370  0.3080  0.4525 -0.2175
  102OSM   H10F10345   6.304   3.879   9.320 -0.0726 -0.2076  0.7393
  102OSM   C11F10346   6.499   3.963   9.272 -1.0772  0.3571 -0.4249
  102OSM   H11F10347   6.602   3.950   9.312 -1.9017 -3.9959  0.8254
  102OSM   H11G10348   6.479   4.072   9.266 -0.7938  0.4391  0.0380
  102OSM   C12F10349   6.511   3.897   9.129 -0.0168  0.2339 -0.3070
  102OSM   H12F10350   6.408   3.860   9.109 -0.7476  0.8210  2.0306
  102OSM   H12G10351   6.584   3.814   9.125  1.2363  1.3429 -1.0978
  102OSM   C13F10352   6.545   3.994   9.020  0.8161  0.0649  0.0624
  102OSM   H13F10353   6.636   4.046   9.057  0.9549 -2.0373  3.0318
  102OSM   H13G10354   6.458   4.062   9.008 -0.0893 -1.2812 -1.3635
  102OSM   C14F10355   6.558   3.925   8.881 -0.9275  0.6189 -0.1904
  102OSM   H14F10356   6.633   3.845   8.897 -0.4947  1.3142  1.5106
  102OSM   H14G10357   6.604   3.986   8.800  1.1992  0.5290  0.8851
  102OSM   C15F10358   6.429   3.865   8.827  0.1823  0.1520  0.0325
  102OSM   H15F10359   6.359   3.947   8.802 -1.9836 -1.4786  0.4607
  102OSM   H15G10360   6.373   3.804   8.900 -1.6322  2.4430  0.6671
  102OSM   C16F10361   6.444   3.773   8.703 -0.3354  0.5365 -0.1248
  102OSM   H16F10362   6.339   3.751   8.674 -0.2171 -0.5435  0.1948
  102OSM   H16G10363   6.507   3.684   8.724 -0.5037  0.1723 -1.1027
  102OSM   C17F10364   6.509   3.840   8.579  0.1087 -0.0928 -0.0687
  102OSM   H17F10365   6.610   3.883   8.592 -0.1755  0.8000 -0.6666
  102OSM   H17G10366   6.447   3.926   8.543  0.1478 -0.1048 -0.1643
  102OSM   C18F10367   6.521   3.737   8.472  0.3901  0.2606 -0.1250
  102OSM   H18F10368   6.594   3.659   8.504 -1.5033 -0.8235  1.8137
  102OSM   H18G10369   6.558   3.774   8.375 -0.5953  1.4955 -0.0535
  102OSM   H18H10370   6.418   3.697   8.466  0.4024  0.0828  0.7305
  103OSM      N10371   0.551   0.740  10.749 -0.3206 -0.3857  0.3904
  103OSM    C1510372   0.588   0.845  10.845  0.3082 -0.3594 -1.0605
  103OSM   H15A10373   0.618   0.938  10.801  2.1140  0.5257  1.8024
  103OSM   H15B10374   0.677   0.816  10.899  1.7800  1.9806 -2.1130
  103OSM   H15C10375   0.511   0.882  10.912 -0.8215 -0.0893 -2.4453
  103OSM    C1410376   0.669   0.705  10.671 -0.7230 -0.0042 -0.2031
  103OSM   H14A10377   0.727   0.794  10.648  0.9562 -1.2092 -0.8117
  103OSM   H14B10378   0.647   0.648  10.582 -0.8324  0.1494 -0.2754
  103OSM   H14C10379   0.737   0.639  10.723 -1.4006 -0.6683 -0.1523
  103OSM    C1310380   0.509   0.616  10.820 -0.5977 -0.1498 -0.6838
  103OSM   H13A10381   0.494   0.528  10.760 -1.3067  0.2599 -1.1352
  103OSM   H13B10382   0.411   0.644  10.857  0.4818  3.9016 -0.3570
  103OSM   H13C10383   0.573   0.586  10.901  0.9767  1.0729 -1.4237
  103OSM    C1210384   0.444   0.787  10.649 -0.5935  0.6385 -0.1115
  103OSM   H12A10385   0.421   0.710  10.577  1.3143 -1.3936  1.3372
  103OSM   H12B10386   0.485   0.871  10.595 -1.0632 -0.1507 -1.7617
  103OSM    C1110387   0.310   0.830  10.712  0.0903 -0.5783 -0.6751
  103OSM   H11A10388   0.258   0.892  10.636 -1.0675 -0.0311  0.5259
  103OSM   H11B10389   0.323   0.886  10.807  0.5559 -1.0629 -0.4435
  103OSM      P10390   0.109   0.657  10.677 -0.1979 -0.1048  0.0064
  103OSM    O1310391   0.106   0.512  10.674  0.1356  0.1156 -0.1911
  103OSM    O1410392   0.003   0.719  10.758  0.2643  0.1754 -0.2981
  103OSM    O1110393   0.110   0.718  10.534  0.0996 -0.5580  0.0759
  103OSM    O1210394   0.236   0.716  10.751  0.5020 -0.3087  0.1432
  103OSM    C1S10395   0.190   0.675  10.427 -0.4396 -0.4194 -0.1610
  103OSM    H1S10396   0.227   0.576  10.458  1.0180  0.6894  1.8373
  103OSM    H1T10397   0.283   0.734  10.410 -0.7089 -0.4855 -2.1029
  103OSM     NF10398   0.189   0.590  10.200  0.0137  0.6216 -0.1714
  103OSM    HNF10399   0.235   0.635  10.123  0.9317 -1.4018 -0.8650
  103OSM    C2S10400   0.112   0.668  10.297  0.5862  0.7311  0.2636
  103OSM    H2S10401   0.022   0.606  10.314 -0.6751  2.1759 -0.8427
  103OSM    C3S10402   0.059   0.807  10.261  0.7095 -0.0663 -0.1521
  103OSM    H3S10403   0.146   0.872  10.235  0.5043 -0.2480 -1.3655
  103OSM     O310404  -0.013   0.877  10.363  0.0920  0.4385 -0.3183
  103OSM    HO310405  -0.003   0.817  10.437 -2.8273 -1.2694 -1.1572
  103OSM    C4S10406  -0.026   0.789  10.133  0.0523  0.3632  0.4803
  103OSM    H4S10407   0.040   0.795  10.045  1.5887  2.7603  1.7193
  103OSM    C5S10408  -0.159   0.765  10.124 -0.9823 -0.4635 -0.4856
  103OSM    H5S10409  -0.223   0.753  10.213  1.7753 -3.1032  1.3116
  103OSM    C6S10410  -0.232   0.742   9.997  0.3400  0.3084 -0.0663
  103OSM    H6S10411  -0.325   0.802  10.003  0.5574  0.5519  0.9239
  103OSM    H6T10412  -0.263   0.635   9.993  1.2748  0.0569 -2.7595
  103OSM    C7S10413  -0.160   0.763   9.863  0.0972 -0.6794  1.0802
  103OSM    H7S10414  -0.102   0.857   9.868 -0.4810 -0.3468  1.7610
  103OSM    H7T10415  -0.237   0.781   9.785  1.6385 -2.7741 -1.0746
  103OSM    C8S10416  -0.070   0.642   9.818 -0.2699 -0.3569 -0.1106
  103OSM    H8S10417  -0.141   0.558   9.803 -0.8307  0.3747 -1.7034
  103OSM    H8T10418   0.001   0.610   9.898  1.8418 -1.5586 -2.3296
  103OSM    C9S10419   0.015   0.657   9.695 -0.2290  0.1593  0.2034
  103OSM    H9S10420   0.076   0.564   9.702 -0.5462 -0.0997 -0.3731
  103OSM    H9T10421   0.090   0.738   9.688  0.0428  0.0179  1.2407
  103OSM   C10S10422  -0.058   0.651   9.566  0.5174 -0.4196 -0.3967
  103OSM   H10S10423  -0.140   0.725   9.563  0.0964 -0.8420 -4.1595
  103OSM   H10T10424  -0.120   0.559   9.555  0.1504 -0.0663 -1.3888
  103OSM   C11S10425   0.030   0.669   9.444  0.2526  0.1428 -0.0273
  103OSM   H11S10426   0.102   0.584   9.442 -0.7550 -0.7388  0.2591
  103OSM   H11T10427   0.082   0.766   9.454 -0.3416  0.4445  0.1503
  103OSM   C12S10428  -0.058   0.661   9.324 -0.7410 -0.2526 -0.7740
  103OSM   H12S10429  -0.124   0.750   9.327 -0.5478 -0.1393  0.5949
  103OSM   H12T10430  -0.131   0.578   9.324 -2.9383  1.5886 -1.4912
  103OSM   C13S10431   0.012   0.647   9.190  0.4370  0.5073 -0.0648
  103OSM   H13S10432   0.054   0.544   9.186  1.8715  1.0852 -0.5566
  103OSM   H13T10433   0.086   0.729   9.180  0.6651  0.2198 -0.8422
  103OSM   C14S10434  -0.074   0.666   9.065  0.6903  0.5116  0.6855
  103OSM   H14S10435  -0.014   0.664   8.971 -0.0649 -2.2650  0.1666
  103OSM   H14T10436  -0.116   0.768   9.072 -2.6512 -0.7829  1.4649
  103OSM   C15S10437  -0.200   0.580   9.043 -0.7494  0.6113 -0.7938
  103OSM   H15S10438  -0.266   0.581   9.132  1.5444  1.4816  0.9853
  103OSM   H15T10439  -0.160   0.476   9.039 -0.6956  0.5989  0.0046
  103OSM   C16S10440  -0.262   0.607   8.908  0.6581 -0.6171 -0.6565
  103OSM   H16S10441  -0.184   0.596   8.831  0.1899 -2.4473 -0.9204
  103OSM   H16T10442  -0.296   0.713   8.914  3.5390  0.3180  2.0094
  103OSM   C17S10443  -0.374   0.506   8.883 -0.3149 -0.0330  0.6806
  103OSM   H17S10444  -0.449   0.524   8.964 -1.0654 -2.4233  0.5828
  103OSM   H17T10445  -0.331   0.406   8.899 -1.3181 -0.3326  1.6386
  103OSM   C18S10446  -0.426   0.520   8.741  0.9865  0.6355  0.6401
  103OSM   H18S10447  -0.508   0.449   8.720  2.4202 -1.1544  0.8093
  103OSM   H18T10448  -0.348   0.477   8.674  0.9882 -0.1015  1.1161
  103OSM   H18U10449  -0.464   0.617   8.701  1.2984  0.1756 -0.8557
  103OSM    C1F10450   0.231   0.459  10.221  0.6730 -0.3108 -0.5255
  103OSM     OF10451   0.160   0.378  10.277  0.5045 -0.1323 -0.0141
  103OSM    C2F10452   0.361   0.420  10.173 -0.0945  0.5164 -0.4987
  103OSM    H2F10453   0.403   0.360  10.257 -2.0374  1.6835  1.3935
  103OSM    H2G10454   0.427   0.508  10.160 -1.1289  1.0102 -3.0724
  103OSM    C3F10455   0.356   0.330  10.046  0.3160  0.3584  0.5444
  103OSM    H3F10456   0.279   0.252  10.063  0.0780  0.6112  0.6288
  103OSM    H3G10457   0.455   0.279  10.041 -0.0243 -0.2293 -0.6542
  103OSM    C4F10458   0.336   0.400   9.910 -0.3122  0.6532  0.2061
  103OSM    H4F10459   0.410   0.482   9.905  0.0385  0.3652  0.6176
  103OSM    H4G10460   0.238   0.453   9.915 -1.3717 -1.3133  1.7314
  103OSM    C5F10461   0.349   0.296   9.789  1.0519  0.2654 -1.5135
  103OSM    H5F10462   0.286   0.205   9.802  2.3514 -0.2928  1.8921
  103OSM    H5G10463   0.454   0.262   9.772  0.2481 -1.4323 -3.6046
  103OSM    C6F10464   0.303   0.361   9.653 -0.5719 -0.3069 -0.6289
  103OSM    H6F10465   0.358   0.455   9.634 -0.0095 -0.6052 -0.4964
  103OSM    H6G10466   0.199   0.398   9.661 -0.7613 -0.5877 -1.6704
  103OSM    C7F10467   0.310   0.263   9.534  1.0399 -0.0759 -0.1686
  103OSM    H7F10468   0.253   0.169   9.545  1.7946 -0.5104  0.0831
  103OSM    H7G10469   0.416   0.241   9.509  0.8945 -0.7160 -0.2298
  103OSM    C8F10470   0.244   0.314   9.407  0.5966  0.0783 -0.2841
  103OSM    H8F10471   0.142   0.348   9.434  1.1021 -1.0194  3.4874
  103OSM    H8G10472   0.239   0.220   9.347  1.6777 -1.5563  2.0397
  103OSM    C9F10473   0.305   0.426   9.328 -0.5805  0.2401 -0.2389
  103OSM    H9F10474   0.276   0.527   9.360 -0.3205  1.0562 -2.3944
  103OSM   C10F10475   0.367   0.421   9.211  0.1197  1.0114  0.1900
  103OSM   H10F10476   0.395   0.515   9.163 -1.6881  0.3384 -2.3683
  103OSM   C11F10477   0.400   0.303   9.125 -0.9869  1.2229  0.3295
  103OSM   H11F10478   0.427   0.213   9.184  1.3166  0.7731 -1.2618
  103OSM   H11G10479   0.488   0.319   9.059 -1.1252 -0.0761 -0.1944
  103OSM   C12F10480   0.289   0.266   9.027  0.4308  0.4355 -0.7656
  103OSM   H12F10481   0.211   0.207   9.079  0.2299 -2.8131 -4.2844
  103OSM   H12G10482   0.334   0.200   8.950 -0.5868 -0.0771 -0.9381
  103OSM   C13F10483   0.226   0.389   8.961  0.5751 -0.1883  0.6007
  103OSM   H13F10484   0.307   0.459   8.931  1.4475 -0.9136  1.1859
  103OSM   H13G10485   0.163   0.447   9.031  0.5399  0.8588 -0.2858
  103OSM   C14F10486   0.137   0.333   8.845  0.0445  0.3499 -1.1494
  103OSM   H14F10487   0.051   0.285   8.895 -0.7650  0.3371 -2.5117
  103OSM   H14G10488   0.191   0.258   8.783  0.5355 -0.1433 -0.1469
  103OSM   C15F10489   0.080   0.440   8.757 -0.5302 -0.7215  0.9309
  103OSM   H15F10490   0.150   0.519   8.721 -0.5571 -1.6682 -1.3656
  103OSM   H15G10491   0.012   0.505   8.817  1.1379  1.1693  0.8730
  103OSM   C16F10492   0.001   0.380   8.639 -0.5261  0.2504 -1.0481
  103OSM   H16F10493  -0.073   0.304   8.671  0.6888 -0.9683 -1.0379
  103OSM   H16G10494   0.079   0.337   8.572  1.0011  0.4666  0.5134
  103OSM   C17F10495  -0.084   0.480   8.558 -0.7292  0.2525  0.0102
  103OSM   H17F10496  -0.131   0.545   8.635  0.7989 -0.8619  1.9680
  103OSM   H17G10497  -0.154   0.418   8.498 -0.4685 -0.1258  0.0951
  103OSM   C18F10498   0.008   0.558   8.463  0.7252 -0.3016 -0.1983
  103OSM   H18F10499   0.083   0.610   8.527  1.6537 -1.0572 -0.6547
  103OSM   H18G10500  -0.050   0.634   8.406  0.9084  0.6832  0.8813
  103OSM   H18H10501   0.068   0.497   8.393  0.1645 -2.5123  1.1565
  104OSM      N10502   6.409   4.997  11.041  0.2952 -0.0341  0.8413
  104OSM    C1510503   6.470   4.869  11.083 -0.2645 -0.6024  0.5043
  104OSM   H15A10504   6.428   4.826  11.172 -1.5631  1.0923  0.7583
  104OSM   H15B10505   6.578   4.868  11.088 -0.1403  1.1750 -1.0106
  104OSM   H15C10506   6.439   4.800  11.006 -3.7185 -0.6923  1.8045
  104OSM    C1410507   6.265   4.978  11.005  0.0779 -0.3529 -0.2515
  104OSM   H14A10508   6.263   4.897  10.933 -1.1107 -1.0592  0.5366
  104OSM   H14B10509   6.226   5.073  10.971 -0.6568 -1.7264 -3.6921
  104OSM   H14C10510   6.209   4.955  11.094 -1.7174  2.4139 -0.5534
  104OSM    C1310511   6.425   5.098  11.145 -0.3096  0.3382  0.0848
  104OSM   H13A10512   6.378   5.050  11.230  1.0096 -1.9420 -0.3944
  104OSM   H13B10513   6.366   5.185  11.121  0.5993  1.1246  0.6060
  104OSM   H13C10514   6.526   5.119  11.179 -0.6051  0.8335  0.6964
  104OSM    C1210515   6.484   5.050  10.913  0.5410 -0.3897  1.1286
  104OSM   H12A10516   6.588   5.068  10.939  1.2200 -0.7055 -1.1442
  104OSM   H12B10517   6.445   5.145  10.881  2.8290 -0.3217 -1.9147
  104OSM    C1110518   6.481   4.964  10.792 -0.0552  0.2526 -0.1352
  104OSM   H11A10519   6.519   5.018  10.703 -0.2742 -1.2261 -1.1578
  104OSM   H11B10520   6.375   4.942  10.766  0.1777 -0.6095 -0.3969
  104OSM      P10521   6.719   4.825  10.782 -0.0043  0.2377  0.2554
  104OSM    O1310522   6.796   4.947  10.807 -0.1636  0.0169  0.1855
  104OSM    O1410523   6.751   4.698  10.851  0.0550 -0.0916 -0.1624
  104OSM    O1110524   6.732   4.793  10.629  0.8771 -0.2767  0.3731
  104OSM    O1210525   6.561   4.841  10.806  0.6677 -0.2277  0.2562
  104OSM    C1S10526   6.690   4.889  10.531 -0.8839  0.2696  0.3366
  104OSM    H1S10527   6.708   4.993  10.566  1.3060  0.4839 -1.2488
  104OSM    H1T10528   6.581   4.888  10.510 -0.6076 -1.3880 -1.2192
  104OSM     NF10529   6.736   4.983  10.311  0.4122  0.5995  0.0856
  104OSM    HNF10530   6.661   4.975  10.246 -0.3353  1.0253  0.8800
  104OSM    C2S10531   6.759   4.867  10.397 -0.6554  0.1955  0.0040
  104OSM    H2S10532   6.869   4.864  10.412 -0.9746 -0.2522  2.8303
  104OSM    C3S10533   6.709   4.734  10.337  0.0518  0.1207  0.3824
  104OSM    H3S10534   6.609   4.751  10.293  0.4537 -3.1033 -2.2028
  104OSM     O310535   6.688   4.621  10.416 -0.4772  0.6942 -0.1056
  104OSM    HO310536   6.702   4.654  10.505 -0.6397  1.1311 -0.2372
  104OSM    C4S10537   6.802   4.686  10.230 -0.9027  0.1070  1.2384
  104OSM    H4S10538   6.903   4.657  10.264 -0.3968 -0.6995 -0.8042
  104OSM    C5S10539   6.774   4.687  10.099 -0.1765  0.0623 -0.4197
  104OSM    H5S10540   6.675   4.723  10.068 -2.6514 -4.0973  1.7398
  104OSM    C6S10541   6.864   4.637   9.985 -0.3926 -0.2335  1.0459
  104OSM    H6S10542   6.896   4.722   9.921  2.5914 -1.3433  0.8805
  104OSM    H6T10543   6.800   4.578   9.917  0.8914  1.2690 -1.6151
  104OSM    C7S10544   6.984   4.554  10.029 -0.4074 -0.3641  0.3627
  104OSM    H7S10545   6.951   4.474  10.098  0.2313 -0.3150  0.7364
  104OSM    H7T10546   7.056   4.622  10.080 -0.9536  0.7579 -0.3247
  104OSM    C8S10547   7.051   4.493   9.900 -0.4730  0.1716  0.2904
  104OSM    H8S10548   6.970   4.446   9.841  0.5159 -0.5701 -0.5002
  104OSM    H8T10549   7.133   4.420   9.917 -0.0188  0.1127 -1.8736
  104OSM    C9S10550   7.119   4.599   9.815  0.6152 -0.4800 -0.0524
  104OSM    H9S10551   7.203   4.649   9.867  0.4639  0.3950 -0.6247
  104OSM    H9T10552   7.049   4.682   9.792  0.0138 -1.0899 -0.4611
  104OSM   C10S10553   7.175   4.552   9.679 -0.4323  0.0470  0.5003
  104OSM   H10S10554   7.092   4.512   9.617 -0.2166  0.4357 -0.0483
  104OSM   H10T10555   7.244   4.468   9.701  0.3639  0.8781  1.2729
  104OSM   C11S10556   7.237   4.661   9.588 -0.0621  0.0262  0.4185
  104OSM   H11S10557   7.284   4.606   9.503 -1.9916  1.3290 -1.6327
  104OSM   H11T10558   7.310   4.720   9.647 -0.3426 -0.2397  1.0301
  104OSM   C12S10559   7.137   4.757   9.521 -0.2063 -1.1707  0.5304
  104OSM   H12S10560   7.094   4.827   9.597  1.3480  1.4579 -0.8535
  104OSM   H12T10561   7.048   4.708   9.476 -0.4304  0.7203 -1.2479
  104OSM   C13S10562   7.181   4.850   9.400  0.0407  0.1847 -0.3846
  104OSM   H13S10563   7.171   4.786   9.310 -0.7366 -0.2112 -0.0330
  104OSM   H13T10564   7.283   4.892   9.406  0.6324 -1.3219  0.9254
  104OSM   C14S10565   7.088   4.969   9.389 -0.4536 -0.0528  0.3874
  104OSM   H14S10566   7.095   5.035   9.478  2.7355  0.1926  0.0543
  104OSM   H14T10567   6.982   4.934   9.392 -1.1191  1.8059 -0.0810
  104OSM   C15S10568   7.113   5.061   9.262  0.6182 -0.5946 -0.1015
  104OSM   H15S10569   7.075   5.160   9.294 -1.7360 -1.3237 -0.4094
  104OSM   H15T10570   7.041   5.032   9.182 -2.5211  1.6705  1.6595
  104OSM   C16S10571   7.256   5.065   9.208 -1.0804  0.6272  0.0877
  104OSM   H16S10572   7.297   4.963   9.196 -0.5470  0.9274 -0.7215
  104OSM   H16T10573   7.321   5.110   9.287  0.7262 -3.2594  1.0670
  104OSM   C17S10574   7.270   5.131   9.070  0.1191 -0.0824  0.0669
  104OSM   H17S10575   7.370   5.110   9.028  0.6670  2.6488 -0.1493
  104OSM   H17T10576   7.242   5.238   9.074 -3.7484 -0.9537 -0.1369
  104OSM   C18S10577   7.172   5.077   8.964  0.3925  0.1922  0.5800
  104OSM   H18S10578   7.068   5.113   8.981 -0.5780 -1.9426 -0.3363
  104OSM   H18T10579   7.162   4.966   8.962 -0.7703  0.2720  1.2025
  104OSM   H18U10580   7.194   5.097   8.857 -2.3189 -0.0761 -0.1200
  104OSM    C1F10581   6.779   5.104  10.319 -0.4427  0.3063 -0.5705
  104OSM     OF10582   6.868   5.131  10.408  0.7290  0.7386  0.1651
  104OSM    C2F10583   6.710   5.214  10.235  0.2123 -0.0490  0.1991
  104OSM    H2F10584   6.609   5.232  10.277  0.1721  0.5525 -0.1298
  104OSM    H2G10585   6.699   5.181  10.129 -0.7072  1.5428 -0.2495
  104OSM    C3F10586   6.793   5.336  10.251 -0.0511 -0.4249 -0.4030
  104OSM    H3F10587   6.893   5.340  10.202  1.1460  3.2761  1.9058
  104OSM    H3G10588   6.823   5.363  10.355 -2.2175  0.0251  0.1540
  104OSM    C4F10589   6.723   5.451  10.187  0.3599  0.1303 -0.0752
  104OSM    H4F10590   6.764   5.547  10.224 -1.0950  0.0604  1.9187
  104OSM    H4G10591   6.615   5.448  10.216  0.1731  3.2123 -0.0960
  104OSM    C5F10592   6.735   5.449  10.039  0.1186  0.0887  1.3048
  104OSM    H5F10593   6.693   5.355   9.998  1.8521 -0.9352  1.7751
  104OSM    H5G10594   6.838   5.464  10.000 -0.2853 -0.4377 -0.0432
  104OSM    C6F10595   6.645   5.562   9.983  0.1633  0.6839 -0.4737
  104OSM    H6F10596   6.681   5.659  10.024  2.0187  0.4327 -1.3725
  104OSM    H6G10597   6.541   5.546  10.018  0.0285  2.1781 -0.1157
  104OSM    C7F10598   6.648   5.577   9.829 -0.4048  0.2958 -0.5772
  104OSM    H7F10599   6.623   5.474   9.795  0.0837  0.0935 -0.3309
  104OSM    H7G10600   6.751   5.600   9.795  0.5357 -0.0895  1.7603
  104OSM    C8F10601   6.568   5.684   9.765 -0.2623  0.2958 -0.1263
  104OSM    H8F10602   6.624   5.779   9.775  0.0247  0.0459  0.7508
  104OSM    H8G10603   6.468   5.704   9.808 -1.0897  1.8918 -2.5782
  104OSM    C9F10604   6.556   5.647   9.619 -0.2612 -0.7136 -0.3828
  104OSM    H9F10605   6.466   5.589   9.596 -1.6457  0.9129  0.7367
  104OSM   C10F10606   6.647   5.677   9.520 -0.3057 -0.4528 -0.0325
  104OSM   H10F10607   6.612   5.639   9.423  1.4017  1.3058 -1.4194
  104OSM   C11F10608   6.776   5.754   9.530 -0.4609  0.2925  0.4127
  104OSM   H11F10609   6.858   5.682   9.548  0.9834  1.4103 -1.4278
  104OSM   H11G10610   6.793   5.804   9.628  1.0952 -0.7464  0.7106
  104OSM   C12F10611   6.808   5.843   9.408 -0.7312  0.0694  0.3745
  104OSM   H12F10612   6.916   5.866   9.397 -0.4760 -1.2428 -0.0485
  104OSM   H12G10613   6.759   5.941   9.424 -0.1199  0.3707  0.4299
  104OSM   C13F10614   6.763   5.782   9.276 -0.0247 -0.0340 -0.0408
  104OSM   H13F10615   6.653   5.762   9.272 -0.0575  0.2770 -0.9305
  104OSM   H13G10616   6.805   5.680   9.269  1.0253  0.3225  0.7956
  104OSM   C14F10617   6.801   5.860   9.147  0.6355 -0.2943 -0.7844
  104OSM   H14F10618   6.912   5.864   9.140  0.7482 -2.3156 -0.7010
  104OSM   H14G10619   6.758   5.963   9.155 -0.8257 -0.9206 -0.1329
  104OSM   C15F10620   6.741   5.801   9.024  0.0997  0.2525  0.4685
  104OSM   H15F10621   6.774   5.695   9.018  0.4295  0.3289  0.8758
  104OSM   H15G10622   6.788   5.844   8.933  0.2691 -3.8223 -1.5937
  104OSM   C16F10623   6.588   5.815   9.007  0.3656 -0.3337 -0.2569
  104OSM   H16F10624   6.555   5.915   9.041  0.8134  0.7588 -2.7855
  104OSM   H16G10625   6.529   5.738   9.062  0.3263  0.5821  1.0071
  104OSM   C17F10626   6.535   5.789   8.863  0.2442  0.1771 -0.6425
  104OSM   H17F10627   6.542   5.682   8.832 -1.9084  0.4940 -2.4936
  104OSM   H17G10628   6.589   5.844   8.783 -1.4904 -1.2936 -2.9641
  104OSM   C18F10629   6.397   5.824   8.849 -0.0588 -0.6411  0.5661
  104OSM   H18F10630   6.375   5.929   8.879 -1.7132 -0.2388 -1.7526
  104OSM   H18G10631   6.327   5.754   8.900 -0.4307 -0.9639 -0.3629
  104OSM   H18H10632   6.375   5.813   8.741  0.1234  0.3737  0.4145
  105OSM      N10633   2.988   1.151  11.256  0.3148  0.1957  0.0931
  105OSM    C1510634   2.981   1.124  11.405  0.2128 -0.3412  0.2010
  105OSM   H15A10635   3.070   1.133  11.465 -0.2424  2.4949  0.5965
  105OSM   H15B10636   2.940   1.025  11.418  2.4989 -1.4069 -0.1618
  105OSM   H15C10637   2.906   1.189  11.448  0.1862  1.3819 -2.2341
  105OSM    C1410638   3.028   1.291  11.232  0.4337 -0.0401 -0.1235
  105OSM   H14A10639   3.049   1.310  11.128 -1.6930  0.2295 -0.5622
  105OSM   H14B10640   3.112   1.316  11.294  2.5317 -1.7690 -2.0604
  105OSM   H14C10641   2.950   1.364  11.246 -0.0869 -0.4619 -0.7435
  105OSM    C1310642   3.089   1.051  11.214 -0.0472  0.2744  0.7507
  105OSM   H13A10643   3.081   1.042  11.107 -1.9654  1.2558  0.7717
  105OSM   H13B10644   3.066   0.954  11.257 -2.2191  0.0640 -0.7461
  105OSM   H13C10645   3.190   1.079  11.241  0.2601  1.9149 -1.7841
  105OSM    C1210646   2.853   1.128  11.190 -0.5006  0.0214 -0.2214
  105OSM   H12A10647   2.773   1.184  11.236  0.6327  1.1086  0.4865
  105OSM   H12B10648   2.832   1.023  11.199  1.6462 -0.5882 -1.5071
  105OSM    C1110649   2.848   1.153  11.040  0.6831  0.6470 -0.0007
  105OSM   H11A10650   2.881   1.255  11.010  1.6117  0.9306  1.8039
  105OSM   H11B10651   2.743   1.146  11.004  0.6804  0.0355  0.1151
  105OSM      P10652   2.886   0.915  10.929 -0.1462 -0.0261  0.1141
  105OSM    O1310653   3.008   0.845  10.884  0.2193 -0.1900 -0.0438
  105OSM    O1410654   2.817   0.867  11.047  0.4415 -0.4460 -0.0069
  105OSM    O1110655   2.786   0.912  10.803  0.2769 -0.2436  0.0373
  105OSM    O1210656   2.934   1.060  10.966  0.0953 -0.5853 -0.4623
  105OSM    C1S10657   2.774   1.033  10.725  0.0146  0.2799 -0.3304
  105OSM    H1S10658   2.865   1.097  10.723  0.4730 -0.0566  3.1237
  105OSM    H1T10659   2.686   1.089  10.763 -0.8837 -1.2995  0.0202
  105OSM     NF10660   2.713   1.121  10.507  0.2285 -0.6088  1.0879
  105OSM    HNF10661   2.619   1.154  10.500  0.4232  0.0325  1.4439
  105OSM    C2S10662   2.722   0.996  10.583 -0.4221  0.4003  1.0450
  105OSM    H2S10663   2.796   0.930  10.533 -1.7578 -0.4728  0.1305
  105OSM    C3S10664   2.586   0.918  10.597 -0.2473  0.1901  0.6093
  105OSM    H3S10665   2.513   0.985  10.647 -1.6141 -1.1703  0.4933
  105OSM     O310666   2.588   0.799  10.675  0.2699  0.0988  0.3604
  105OSM    HO310667   2.681   0.809  10.698  0.7023 -1.6078 -0.5155
  105OSM    C4S10668   2.528   0.901  10.454  0.3818 -0.1883 -0.5157
  105OSM    H4S10669   2.444   0.971  10.441 -0.3159 -0.8093  0.5001
  105OSM    C5S10670   2.573   0.818  10.357  0.2030 -0.9968  0.2235
  105OSM    H5S10671   2.664   0.757  10.369  2.2469  0.5063 -4.8501
  105OSM    C6S10672   2.491   0.817  10.229  0.2354  0.2854 -1.5266
  105OSM    H6S10673   2.394   0.871  10.234  0.8357  1.2960  3.0372
  105OSM    H6T10674   2.465   0.710  10.214  1.2738 -0.0837 -0.7828
  105OSM    C7S10675   2.582   0.846  10.105  0.5118  0.5560  0.2619
  105OSM    H7S10676   2.655   0.762  10.107  2.0199  1.8311  1.7204
  105OSM    H7T10677   2.638   0.941  10.112 -2.2089  2.1633  1.6223
  105OSM    C8S10678   2.495   0.842   9.978  0.8559  0.0946 -0.1242
  105OSM    H8S10679   2.400   0.897   9.996  1.4529  0.8553  0.8240
  105OSM    H8T10680   2.483   0.736   9.949  2.9528 -0.1806 -0.0954
  105OSM    C9S10681   2.568   0.910   9.859 -0.3462  0.2360 -0.2002
  105OSM    H9S10682   2.662   0.853   9.871  1.1764  2.8824  1.5109
  105OSM    H9T10683   2.597   1.009   9.900 -2.4838 -0.5448  3.7260
  105OSM   C10S10684   2.493   0.902   9.727  0.4679  0.0073  0.3706
  105OSM   H10S10685   2.391   0.946   9.730  0.8551  1.0221 -0.5964
  105OSM   H10T10686   2.473   0.794   9.716  1.3508 -0.0238 -1.2618
  105OSM   C11S10687   2.578   0.955   9.606 -0.1418 -0.1188 -0.2959
  105OSM   H11S10688   2.662   0.884   9.590  2.5173  2.6631  0.4720
  105OSM   H11T10689   2.617   1.055   9.636 -1.2554 -0.2729  1.9248
  105OSM   C12S10690   2.495   0.987   9.482  0.6109 -0.1956  0.4469
  105OSM   H12S10691   2.413   1.052   9.519  2.0607  1.8319  0.2941
  105OSM   H12T10692   2.461   0.895   9.430 -0.9909  0.9160 -0.5554
  105OSM   C13S10693   2.568   1.078   9.381 -0.2780  0.6249  0.2085
  105OSM   H13S10694   2.651   1.024   9.330  1.9969  4.2030 -0.2780
  105OSM   H13T10695   2.607   1.157   9.449 -1.1895  2.1080 -0.9300
  105OSM   C14S10696   2.482   1.143   9.271 -0.5226 -0.4700 -0.9766
  105OSM   H14S10697   2.389   1.176   9.323 -0.0992 -1.8583  0.7421
  105OSM   H14T10698   2.461   1.062   9.199 -0.3393 -2.5021  1.1424
  105OSM   C15S10699   2.543   1.267   9.204 -0.4305 -0.0530 -0.1121
  105OSM   H15S10700   2.630   1.232   9.145  0.2407  1.3886 -0.0161
  105OSM   H15T10701   2.585   1.330   9.286  0.5610 -0.6043 -0.1844
  105OSM   C16S10702   2.459   1.355   9.114  0.1522  0.4638 -0.5278
  105OSM   H16S10703   2.367   1.393   9.162 -0.8522  0.0414 -2.0587
  105OSM   H16T10704   2.431   1.289   9.029  2.3584 -1.6242  0.2487
  105OSM   C17S10705   2.561   1.451   9.050  0.0533 -0.4962  0.1181
  105OSM   H17S10706   2.508   1.481   8.958  0.9736 -0.1574 -0.3087
  105OSM   H17T10707   2.655   1.399   9.022  1.5521  1.8742  0.4888
  105OSM   C18S10708   2.606   1.569   9.136 -0.2415 -0.6846  0.1720
  105OSM   H18S10709   2.518   1.637   9.142 -1.2502 -1.9095 -0.2366
  105OSM   H18T10710   2.694   1.627   9.102  0.5997 -1.1870  1.4095
  105OSM   H18U10711   2.620   1.536   9.241 -0.3272  2.2131  1.1990
  105OSM    C1F10712   2.819   1.185  10.450  0.4794  0.5507  0.5294
  105OSM     OF10713   2.929   1.135  10.444  0.1160  0.0017 -0.5480
  105OSM    C2F10714   2.781   1.319  10.398  0.1518 -0.0977 -0.1133
  105OSM    H2F10715   2.764   1.391  10.482  1.7594  1.1501 -0.7965
  105OSM    H2G10716   2.681   1.306  10.352 -0.1926 -0.6929  0.7848
  105OSM    C3F10717   2.875   1.389  10.308 -0.2202  0.1392 -0.5443
  105OSM    H3F10718   2.976   1.408  10.351 -1.0879  0.8842  1.2419
  105OSM    H3G10719   2.848   1.495  10.294  1.3839  0.8501  1.3076
  105OSM    C4F10720   2.868   1.314  10.166 -0.4764 -0.6314  0.0205
  105OSM    H4F10721   2.763   1.322  10.131 -0.2277  0.8105 -0.4292
  105OSM    H4G10722   2.887   1.206  10.188 -2.0427 -1.0294 -0.4782
  105OSM    C5F10723   2.971   1.369  10.068 -0.5593 -0.4972 -0.5038
  105OSM    H5F10724   3.067   1.354  10.122 -0.7057 -0.7056 -0.2983
  105OSM    H5G10725   2.962   1.479  10.059  0.5943 -0.1850  1.5379
  105OSM    C6F10726   2.968   1.302   9.933 -1.0718 -0.4998  0.5385
  105OSM    H6F10727   2.921   1.205   9.960 -0.6507 -1.1703 -0.9859
  105OSM    H6G10728   3.067   1.287   9.883 -1.8819 -0.5352 -1.1176
  105OSM    C7F10729   2.878   1.375   9.829  0.0386 -0.1043  0.1637
  105OSM    H7F10730   2.899   1.480   9.801  0.0965 -0.4721 -1.2272
  105OSM    H7G10731   2.776   1.380   9.873 -0.4214 -0.2993 -0.8701
  105OSM    C8F10732   2.884   1.302   9.699  0.0086 -0.1931  0.4882
  105OSM    H8F10733   2.843   1.201   9.717 -0.8555  0.2608  1.1542
  105OSM    H8G10734   2.985   1.288   9.656 -0.1286  1.7859 -0.5891
  105OSM    C9F10735   2.786   1.364   9.603 -0.2916  0.3071  0.6817
  105OSM    H9F10736   2.678   1.350   9.620 -0.5293  0.6099 -0.5203
  105OSM   C10F10737   2.822   1.435   9.491  0.1538 -0.2218  0.1231
  105OSM   H10F10738   2.742   1.480   9.430 -0.9748  2.5753  3.2797
  105OSM   C11F10739   2.965   1.458   9.450  0.0571 -0.0627  0.0662
  105OSM   H11F10740   3.038   1.450   9.533  0.5953  2.9610 -0.0040
  105OSM   H11G10741   2.970   1.560   9.407 -0.7883 -1.2478 -3.1496
  105OSM   C12F10742   3.016   1.368   9.334 -0.6068 -0.0090  0.4441
  105OSM   H12F10743   3.012   1.262   9.366  1.5870 -0.2752 -0.0161
  105OSM   H12G10744   3.120   1.390   9.301 -1.5961  1.4666 -1.9273
  105OSM   C13F10745   2.930   1.388   9.207 -0.6081  0.1326 -0.3240
  105OSM   H13F10746   2.893   1.491   9.188 -2.6012 -0.2978  0.9467
  105OSM   H13G10747   2.839   1.326   9.224  0.2590 -0.4830  2.6675
  105OSM   C14F10748   3.005   1.343   9.083 -0.3859  0.2251  0.2276
  105OSM   H14F10749   3.033   1.236   9.099 -1.1541 -0.1803 -0.9900
  105OSM   H14G10750   3.090   1.414   9.075 -0.8528  0.7380 -0.2995
  105OSM   C15F10751   2.930   1.354   8.954 -0.0835  0.1256  0.6278
  105OSM   H15F10752   2.894   1.458   8.933 -1.2596 -0.8976 -3.0956
  105OSM   H15G10753   2.839   1.290   8.962 -0.2574  0.4230  1.1317
  105OSM   C16F10754   3.016   1.320   8.830  0.1717  0.4333 -0.3203
  105OSM   H16F10755   3.079   1.232   8.854  2.9288  2.1702 -0.7517
  105OSM   H16G10756   3.093   1.399   8.813 -0.2383  0.7987 -0.4840
  105OSM   C17F10757   2.950   1.295   8.696 -0.0325 -0.0084  0.0616
  105OSM   H17F10758   2.874   1.375   8.682  1.1896  1.2455  0.3407
  105OSM   H17G10759   2.897   1.197   8.699  0.2562 -0.1483  0.9002
  105OSM   C18F10760   3.048   1.313   8.582  0.2372  0.4161 -0.8034
  105OSM   H18F10761   3.065   1.420   8.557 -0.9137  0.9180  0.4288
  105OSM   H18G10762   3.003   1.280   8.486 -0.6926 -1.2182  0.1418
  105OSM   H18H10763   3.151   1.278   8.605 -0.5420 -0.3757  1.9772
  106OSM      N10764   2.016   5.715  11.013  0.2203  0.5043 -0.4016
  106OSM    C1510765   1.868   5.732  11.045 -0.6385 -0.0748  0.1707
  106OSM   H15A10766   1.820   5.805  10.983 -2.5584 -0.0268  1.6300
  106OSM   H15B10767   1.860   5.766  11.147 -1.8247  1.5803 -0.4426
  106OSM   H15C10768   1.818   5.638  11.028 -0.2563 -0.0076 -1.4631
  106OSM    C1410769   2.083   5.847  11.030  0.0067  0.2390 -0.3661
  106OSM   H14A10770   2.041   5.913  10.956  0.3092  0.3480 -0.4393
  106OSM   H14B10771   2.188   5.836  11.007  0.2877  1.6572  0.1231
  106OSM   H14C10772   2.068   5.887  11.129  0.4291  0.4429 -0.3818
  106OSM    C1310773   2.067   5.602  11.102 -0.8845 -0.2317 -0.8512
  106OSM   H13A10774   2.175   5.602  11.093 -0.7970  1.0241 -0.0007
  106OSM   H13B10775   2.018   5.511  11.072 -2.5871 -0.5229  2.4294
  106OSM   H13C10776   2.046   5.630  11.204  0.1020  0.4521 -0.8216
  106OSM    C1210777   2.027   5.669  10.871 -0.1178 -0.3330  0.3629
  106OSM   H12A10778   1.961   5.583  10.862 -0.5787 -0.0091  0.6459
  106OSM   H12B10779   2.131   5.643  10.851 -0.2419 -1.4405  1.0893
  106OSM    C1110780   1.986   5.763  10.754 -0.1786 -0.4914  0.7555
  106OSM   H11A10781   1.884   5.797  10.782 -0.6079 -0.6315 -0.5471
  106OSM   H11B10782   1.967   5.710  10.658  0.9991 -0.4574  0.4868
  106OSM      P10783   2.219   5.835  10.678 -0.2600 -0.2296  0.4953
  106OSM    O1310784   2.315   5.950  10.682  0.1522 -0.3292 -0.4082
  106OSM    O1410785   2.270   5.712  10.743  0.2613 -0.3726  0.8930
  106OSM    O1110786   2.184   5.811  10.525 -0.0011 -0.4926 -0.1111
  106OSM    O1210787   2.078   5.871  10.744 -0.3237 -0.1086 -0.1412
  106OSM    C1S10788   2.096   5.903  10.459  0.1625 -0.1972 -0.2499
  106OSM    H1S10789   2.154   5.997  10.447 -0.5538  0.1891 -0.7240
  106OSM    H1T10790   2.003   5.924  10.517  1.0031  0.0819  1.0470
  106OSM     NF10791   2.009   5.951  10.235 -0.5337 -0.1309 -0.1136
  106OSM    HNF10792   1.914   5.940  10.209  0.0206 -0.3387 -2.2543
  106OSM    C2S10793   2.060   5.847  10.319 -0.7210 -0.3073 -0.3129
  106OSM    H2S10794   2.158   5.814  10.279  0.0070 -0.6858  1.6554
  106OSM    C3S10795   1.979   5.714  10.335 -0.0453 -0.6704  0.5055
  106OSM    H3S10796   1.889   5.744  10.393 -0.5961  0.5736 -0.9123
  106OSM     O310797   2.045   5.616  10.405 -0.2666  0.6385  0.2080
  106OSM    HO310798   2.110   5.666  10.455  0.4247  0.5926 -0.6180
  106OSM    C4S10799   1.947   5.661  10.195 -0.0203  0.0184 -0.5501
  106OSM    H4S10800   2.021   5.595  10.149 -2.3230 -0.9069 -3.2132
  106OSM    C5S10801   1.823   5.664  10.137  0.0550 -0.4908 -0.1345
  106OSM    H5S10802   1.751   5.720  10.198  1.1371  1.5777 -0.6616
  106OSM    C6S10803   1.796   5.600   9.999 -0.2902 -0.9116 -1.3627
  106OSM    H6S10804   1.708   5.537  10.024  0.2456 -0.6991  1.3744
  106OSM    H6T10805   1.879   5.530   9.976  0.0008 -1.3494  0.8078
  106OSM    C7S10806   1.763   5.680   9.881  0.0780 -0.3514  0.2744
  106OSM    H7S10807   1.851   5.742   9.852 -0.7214  0.3112 -0.7992
  106OSM    H7T10808   1.680   5.752   9.901  0.1451  0.4257 -2.0244
  106OSM    C8S10809   1.702   5.594   9.769 -0.1609 -0.5915 -0.4639
  106OSM    H8S10810   1.606   5.555   9.809  0.4348 -1.8678 -0.2411
  106OSM    H8T10811   1.768   5.505   9.764  1.6924  0.6883  0.1894
  106OSM    C9S10812   1.685   5.665   9.634  0.0933  0.1090  0.6697
  106OSM    H9S10813   1.731   5.603   9.554  1.1885 -0.5941  1.8066
  106OSM    H9T10814   1.731   5.766   9.640 -1.4794  0.8422  0.7373
  106OSM   C10S10815   1.535   5.696   9.605 -0.4386  0.1167 -0.8095
  106OSM   H10S10816   1.475   5.723   9.694 -2.9117  0.6888 -2.5153
  106OSM   H10T10817   1.485   5.600   9.576  0.8518 -0.4094 -1.3743
  106OSM   C11S10818   1.513   5.798   9.493 -0.2004 -0.9108 -0.6912
  106OSM   H11S10819   1.602   5.810   9.426  0.5783 -1.2500  0.2539
  106OSM   H11T10820   1.495   5.903   9.526  0.9042  0.7801 -4.8127
  106OSM   C12S10821   1.394   5.771   9.399 -0.0763 -0.1763 -0.3660
  106OSM   H12S10822   1.305   5.788   9.463  1.1949 -1.8786  2.0336
  106OSM   H12T10823   1.395   5.661   9.379 -2.5665 -0.5492  1.1711
  106OSM   C13S10824   1.393   5.841   9.263 -0.1431  0.3924 -0.1375
  106OSM   H13S10825   1.499   5.821   9.236  0.0049 -1.6031  1.6266
  106OSM   H13T10826   1.373   5.950   9.258  2.3707  0.8960 -0.7978
  106OSM   C14S10827   1.286   5.782   9.160 -0.8262 -0.4565  0.1520
  106OSM   H14S10828   1.181   5.784   9.197 -0.8310  3.2543  0.2796
  106OSM   H14T10829   1.311   5.675   9.146  2.2669 -0.3090  3.3244
  106OSM   C15S10830   1.282   5.860   9.025  0.3792  0.2255  0.0219
  106OSM   H15S10831   1.231   5.788   8.957 -0.5197 -0.9041  1.8153
  106OSM   H15T10832   1.389   5.854   8.997  0.3808  0.8007 -0.0985
  106OSM   C16S10833   1.246   6.007   9.021  0.9426  0.5673  0.2997
  106OSM   H16S10834   1.294   6.059   9.107  2.7258 -1.9873  0.9844
  106OSM   H16T10835   1.137   6.015   9.043  1.0134  0.1681  0.8306
  106OSM   C17S10836   1.285   6.080   8.899 -0.1335 -0.3425  1.1783
  106OSM   H17S10837   1.219   6.169   8.882  1.4308  0.7215  0.4013
  106OSM   H17T10838   1.282   6.008   8.815  1.8805  0.6840  0.1350
  106OSM   C18S10839   1.440   6.119   8.904  0.3017 -0.6375  0.3740
  106OSM   H18S10840   1.501   6.034   8.942  1.3535  0.6699  1.7088
  106OSM   H18T10841   1.469   6.203   8.970  0.1184  0.1493 -0.5244
  106OSM   H18U10842   1.486   6.164   8.814  0.0065 -0.5414  0.2703
  106OSM    C1F10843   2.073   6.056  10.196 -0.2523  0.1253 -0.0993
  106OSM     OF10844   2.192   6.075  10.213  0.2337 -0.2252 -0.3191
  106OSM    C2F10845   1.996   6.172  10.150  0.2767  0.2576 -0.2263
  106OSM    H2F10846   2.030   6.268  10.195  3.7033 -0.4405 -1.0526
  106OSM    H2G10847   1.892   6.164  10.188  0.2885  0.0509 -0.2386
  106OSM    C3F10848   1.993   6.179   9.993 -0.0038 -0.0217 -0.5814
  106OSM    H3F10849   1.992   6.077   9.950  0.9309  1.1375 -3.6320
  106OSM    H3G10850   2.072   6.247   9.955 -0.4770  1.5407  1.0499
  106OSM    C4F10851   1.860   6.246   9.941  0.6871  0.1562 -0.7558
  106OSM    H4F10852   1.864   6.352   9.976 -0.7703  1.1056 -3.2449
  106OSM    H4G10853   1.772   6.200   9.991  0.6015  0.4992 -0.5807
  106OSM    C5F10854   1.836   6.238   9.788 -0.0652  0.8830  0.0429
  106OSM    H5F10855   1.900   6.312   9.735  1.7641 -1.1623 -0.7328
  106OSM    H5G10856   1.730   6.266   9.768 -0.1369 -1.2737 -3.5933
  106OSM    C6F10857   1.850   6.098   9.723 -0.0787 -0.9948  0.2572
  106OSM    H6F10858   1.826   6.031   9.808 -0.7186  0.5078  1.3246
  106OSM    H6G10859   1.960   6.087   9.714  0.1751  1.4180 -0.3515
  106OSM    C7F10860   1.763   6.062   9.605 -0.0529  0.2018 -0.0866
  106OSM    H7F10861   1.660   6.042   9.642  0.7063 -0.1366  2.0347
  106OSM    H7G10862   1.812   5.978   9.552  3.8341  1.2908  1.4335
  106OSM    C8F10863   1.753   6.173   9.503 -0.2483  0.2547  0.3667
  106OSM    H8F10864   1.858   6.193   9.472 -0.5836  0.3496 -0.7740
  106OSM    H8G10865   1.719   6.259   9.565  3.0190 -0.1219  2.9699
  106OSM    C9F10866   1.651   6.136   9.395 -0.2610  0.4825  0.4198
  106OSM    H9F10867   1.586   6.049   9.414  0.4680 -0.2228 -0.2677
  106OSM   C10F10868   1.649   6.184   9.271  0.4624 -0.0791  0.5437
  106OSM   H10F10869   1.565   6.164   9.203 -0.2418  2.3513  0.6124
  106OSM   C11F10870   1.741   6.290   9.215  0.1438  0.6478  0.5009
  106OSM   H11F10871   1.789   6.351   9.294 -1.1897  0.9999  1.0678
  106OSM   H11G10872   1.682   6.356   9.147  2.5211  1.8404 -0.5620
  106OSM   C12F10873   1.858   6.221   9.140 -0.0339  0.4337 -0.2410
  106OSM   H12F10874   1.916   6.146   9.197 -0.2773 -0.1023 -0.6883
  106OSM   H12G10875   1.927   6.301   9.106 -0.0210  0.9759  0.9969
  106OSM   C13F10876   1.803   6.152   9.017  0.7529  0.0104 -0.3876
  106OSM   H13F10877   1.739   6.224   8.961  0.4182  0.7168  0.8378
  106OSM   H13G10878   1.743   6.062   9.042  0.1817  0.6789  0.7779
  106OSM   C14F10879   1.908   6.104   8.918  0.4950 -0.1229 -0.0237
  106OSM   H14F10880   1.998   6.077   8.977  1.9318  0.7721 -1.6965
  106OSM   H14G10881   1.943   6.190   8.856 -0.6435  2.3307  2.4823
  106OSM   C15F10882   1.856   5.992   8.826 -0.4055  0.3319 -0.3211
  106OSM   H15F10883   1.787   5.934   8.890  1.1849  0.0251  1.1809
  106OSM   H15G10884   1.949   5.939   8.796 -0.8423 -0.6608  0.0263
  106OSM   C16F10885   1.778   6.031   8.702  0.0413 -0.0290  0.7227
  106OSM   H16F10886   1.829   6.127   8.676  4.2715 -1.5332  2.5191
  106OSM   H16G10887   1.673   6.049   8.732  0.1383 -0.0534  1.0865
  106OSM   C17F10888   1.802   5.930   8.591 -0.0839  0.6331  0.2884
  106OSM   H17F10889   1.911   5.914   8.575 -0.0145  0.4634  0.9080
  106OSM   H17G10890   1.761   5.952   8.490  2.0327  1.9717 -0.3480
  106OSM   C18F10891   1.737   5.801   8.634 -0.0043  0.1075  0.1173
  106OSM   H18F10892   1.627   5.794   8.626  0.1594 -0.8509 -2.0148
  106OSM   H18G10893   1.762   5.778   8.739  2.0529 -0.8820 -0.5325
  106OSM   H18H10894   1.790   5.721   8.578 -1.3359  0.2907 -1.4693
  107OSM      N10895   5.369   6.185  11.128  0.2402 -0.0115  0.2418
  107OSM    C1510896   5.319   6.282  11.027 -0.3977 -0.5127  0.5334
  107OSM   H15A10897   5.304   6.228  10.935  2.2216 -0.2869 -0.1166
  107OSM   H15B10898   5.386   6.365  11.009 -1.5241  0.1746 -0.7004
  107OSM   H15C10899   5.227   6.333  11.050 -0.8380 -0.7370 -0.6552
  107OSM    C1410900   5.386   6.260  11.260 -0.4866 -0.5994  0.8526
  107OSM   H14A10901   5.424   6.195  11.338 -0.6709  0.4898  1.8916
  107OSM   H14B10902   5.296   6.302  11.303 -1.1942 -1.5533  0.3219
  107OSM   H14C10903   5.455   6.342  11.244 -0.4793 -1.0916 -2.1249
  107OSM    C1310904   5.262   6.088  11.152 -0.4514  0.0965 -0.2957
  107OSM   H13A10905   5.282   6.034  11.243  0.7356  0.3289 -0.4026
  107OSM   H13B10906   5.254   6.012  11.075  2.0019  0.0833 -0.6106
  107OSM   H13C10907   5.169   6.141  11.160 -0.6773 -0.3257 -0.0582
  107OSM    C1210908   5.504   6.122  11.098  0.0341  0.3643 -0.0900
  107OSM   H12A10909   5.503   6.095  10.994 -0.1937 -1.5945  0.3870
  107OSM   H12B10910   5.515   6.027  11.147  1.3341  0.2378 -0.6106
  107OSM    C1110911   5.634   6.201  11.142 -0.5347  0.0134  0.5421
  107OSM   H11A10912   5.723   6.157  11.092 -0.1970  1.6106 -0.3423
  107OSM   H11B10913   5.653   6.188  11.250 -0.5798  1.5047  0.7453
  107OSM      P10914   5.658   6.399  10.974  0.0681  0.2192  0.6355
  107OSM    O1310915   5.735   6.523  10.994  0.0856 -0.9462 -0.4487
  107OSM    O1410916   5.738   6.291  10.902  0.6941 -0.7033  0.2451
  107OSM    O1110917   5.528   6.435  10.893 -0.2875 -0.3170 -0.2877
  107OSM    O1210918   5.606   6.340  11.108  0.2463  0.6814  0.2505
  107OSM    C1S10919   5.537   6.428  10.749 -0.3209  0.7406  0.0578
  107OSM    H1S10920   5.518   6.322  10.724  0.4882  1.0198 -1.9612
  107OSM    H1T10921   5.637   6.461  10.712  0.2207 -0.6281  0.2674
  107OSM     NF10922   5.436   6.500  10.534 -0.1712 -0.1829 -0.7246
  107OSM    HNF10923   5.462   6.582  10.484 -1.1423  0.3298 -0.4351
  107OSM    C2S10924   5.432   6.519  10.676  0.4562  0.2118  0.0101
  107OSM    H2S10925   5.329   6.488  10.704  0.2441  0.9861  0.1244
  107OSM    C3S10926   5.443   6.665  10.726  0.0877 -0.3671  0.0760
  107OSM    H3S10927   5.541   6.708  10.697  0.0838 -1.1038 -1.1220
  107OSM     O310928   5.435   6.677  10.865 -0.1117  0.9141 -0.4534
  107OSM    HO310929   5.466   6.589  10.888 -1.4289 -0.3818 -3.1531
  107OSM    C4S10930   5.342   6.757  10.666 -0.2107  0.1683 -0.0405
  107OSM    H4S10931   5.236   6.730  10.673 -0.1227  0.0304  0.8804
  107OSM    C5S10932   5.370   6.866  10.596  0.8729 -0.4786 -0.4858
  107OSM    H5S10933   5.476   6.892  10.588  1.3100 -2.1869 -0.4703
  107OSM    C6S10934   5.266   6.947  10.528 -0.1514 -0.8849 -0.8203
  107OSM    H6S10935   5.221   7.024  10.595  1.7761 -1.4914  1.2991
  107OSM    H6T10936   5.183   6.885  10.490 -0.0999 -1.4258 -0.0763
  107OSM    C7S10937   5.338   7.012  10.411 -0.1393 -0.2395  0.4023
  107OSM    H7S10938   5.375   6.932  10.343  2.1618  0.1714  1.0798
  107OSM    H7T10939   5.427   7.067  10.447  0.7404 -0.9443 -0.6163
  107OSM    C8S10940   5.230   7.088  10.328  0.2248  0.1967  0.5794
  107OSM    H8S10941   5.163   7.131  10.405 -1.6688 -3.3731  1.1506
  107OSM    H8T10942   5.174   7.015  10.265 -0.8982  0.5506  1.1515
  107OSM    C9S10943   5.281   7.200  10.239  0.0051 -0.2668 -0.3891
  107OSM    H9S10944   5.336   7.278  10.297 -0.9844  0.8754 -0.9563
  107OSM    H9T10945   5.190   7.250  10.201  0.8159  0.6739 -1.1668
  107OSM   C10S10946   5.372   7.145  10.127  0.4203 -0.2839  0.0645
  107OSM   H10S10947   5.324   7.051  10.091  1.1079 -1.0776  1.1529
  107OSM   H10T10948   5.473   7.111  10.159  0.4467 -1.3858 -1.1164
  107OSM   C11S10949   5.393   7.245  10.018 -0.5012 -0.0671 -0.0688
  107OSM   H11S10950   5.453   7.205   9.933 -1.0642 -2.7226  0.6833
  107OSM   H11T10951   5.443   7.335  10.060 -1.4656  0.0164  0.9163
  107OSM   C12S10952   5.270   7.300   9.955 -0.1364  0.0374 -0.1891
  107OSM   H12S10953   5.209   7.353  10.030 -0.2208  0.2444 -0.4013
  107OSM   H12T10954   5.208   7.218   9.913  0.1686  1.2690 -3.3398
  107OSM   C13S10955   5.292   7.400   9.837 -0.1569 -0.2063  0.7543
  107OSM   H13S10956   5.370   7.476   9.857  0.2212 -0.4868  0.3445
  107OSM   H13T10957   5.192   7.441   9.809  0.0195 -0.7810 -0.8265
  107OSM   C14S10958   5.319   7.321   9.708 -0.0097  0.6672  0.4769
  107OSM   H14S10959   5.261   7.227   9.716  2.2743 -0.7951  0.8558
  107OSM   H14T10960   5.426   7.293   9.697  0.2115  1.0138  1.6727
  107OSM   C15S10961   5.288   7.393   9.577  0.3477  0.0462  0.0064
  107OSM   H15S10962   5.329   7.496   9.586 -1.3204  0.9876 -2.2335
  107OSM   H15T10963   5.179   7.408   9.562  0.3054 -0.1758  0.0920
  107OSM   C16S10964   5.340   7.325   9.453 -0.0039  0.0015 -0.3108
  107OSM   H16S10965   5.266   7.265   9.395  1.3062 -0.1055 -1.9576
  107OSM   H16T10966   5.423   7.254   9.475 -0.3328 -0.1754  0.3879
  107OSM   C17S10967   5.363   7.416   9.330 -0.2969 -0.0903 -0.2097
  107OSM   H17S10968   5.393   7.363   9.237  0.1535  0.3295 -0.3046
  107OSM   H17T10969   5.449   7.472   9.372 -2.0637  2.1234  0.6633
  107OSM   C18S10970   5.249   7.524   9.307  0.7209  1.0139 -0.3466
  107OSM   H18S10971   5.274   7.603   9.232 -1.8517  1.6078 -0.6467
  107OSM   H18T10972   5.229   7.586   9.397 -1.8003 -1.7021  1.1058
  107OSM   H18U10973   5.163   7.470   9.262  0.9979  1.8012 -1.9245
  107OSM    C1F10974   5.406   6.381  10.481  0.5038  0.6487  1.0095
  107OSM     OF10975   5.377   6.287  10.555 -0.1870 -0.2140 -0.1490
  107OSM    C2F10976   5.402   6.367  10.332  0.3119 -0.7356  0.9841
  107OSM    H2F10977   5.504   6.373  10.288 -0.5571  0.3833 -1.0244
  107OSM    H2G10978   5.339   6.451  10.296  1.7272 -0.6715 -1.6088
  107OSM    C3F10979   5.334   6.247  10.274 -0.5092  0.4766 -0.3931
  107OSM    H3F10980   5.225   6.240  10.296  0.0062 -1.4915  1.8919
  107OSM    H3G10981   5.374   6.155  10.321 -1.5130 -1.0629 -2.3704
  107OSM    C4F10982   5.346   6.245  10.122  0.4528  0.8245 -0.0806
  107OSM    H4F10983   5.317   6.144  10.087 -0.0527  0.6135  0.9372
  107OSM    H4G10984   5.450   6.255  10.085  0.7693 -0.0013  0.5702
  107OSM    C5F10985   5.253   6.331  10.037  0.1655  0.0863  1.0491
  107OSM    H5F10986   5.269   6.439  10.060  1.8678  0.0942  0.0133
  107OSM    H5G10987   5.149   6.303  10.063 -0.5384  1.3401 -0.2307
  107OSM    C6F10988   5.276   6.309   9.885  0.5087  0.0160 -0.7482
  107OSM    H6F10989   5.193   6.360   9.831  0.6854  0.4485 -0.6160
  107OSM    H6G10990   5.271   6.202   9.856 -0.5710  0.3250 -1.7966
  107OSM    C7F10991   5.400   6.382   9.843  0.5590  0.6284  0.7381
  107OSM    H7F10992   5.487   6.353   9.905  0.8762  0.8271  0.3923
  107OSM    H7G10993   5.386   6.492   9.852 -0.0423  0.6724 -0.5271
  107OSM    C8F10994   5.437   6.351   9.696 -0.7313  0.3432 -0.4657
  107OSM    H8F10995   5.540   6.384   9.673 -0.8961  1.6607  0.5636
  107OSM    H8G10996   5.371   6.406   9.626  0.2005 -1.4910 -2.9230
  107OSM    C9F10997   5.434   6.203   9.663  0.0608 -0.3754 -0.3876
  107OSM    H9F10998   5.473   6.138   9.743 -0.8310  0.4194  0.7128
  107OSM   C10F10999   5.383   6.140   9.554  0.0831  0.5111 -0.4101
  107OSM   H10F11000   5.375   6.030   9.557 -1.0323  0.5393 -1.4328
  107OSM   C11F11001   5.325   6.203   9.424 -1.1675  0.9656  0.1407
  107OSM   H11F11002   5.333   6.314   9.432  0.2951  0.7617  2.6659
  107OSM   H11G11003   5.216   6.187   9.414 -0.9474 -1.0740  0.6258
  107OSM   C12F11004   5.393   6.153   9.301  0.6671 -0.4228 -0.2142
  107OSM   H12F11005   5.389   6.042   9.293 -0.6863 -0.3748 -0.4437
  107OSM   H12G11006   5.498   6.190   9.297  1.2738 -2.0057  0.2874
  107OSM   C13F11007   5.312   6.209   9.183 -0.1535  0.1670 -0.5153
  107OSM   H13F11008   5.328   6.319   9.177  0.5546  0.1584  0.8762
  107OSM   H13G11009   5.204   6.194   9.208 -0.6001 -1.5992 -3.1042
  107OSM   C14F11010   5.327   6.130   9.053 -0.3007 -0.6387  0.1032
  107OSM   H14F11011   5.336   6.025   9.087 -1.1363 -0.2659  1.5357
  107OSM   H14G11012   5.423   6.156   9.003  1.6862 -0.2983  3.6913
  107OSM   C15F11013   5.203   6.145   8.966 -0.3683 -0.1090 -1.1202
  107OSM   H15F11014   5.187   6.253   8.951  0.6290  0.3706  0.9503
  107OSM   H15G11015   5.116   6.102   9.019  0.6537  0.2470  0.9446
  107OSM   C16F11016   5.226   6.068   8.837  0.8915 -0.6261 -0.2116
  107OSM   H16F11017   5.315   6.003   8.847  2.8405  1.6707 -1.3193
  107OSM   H16G11018   5.275   6.130   8.758  0.1962  1.7789  1.1442
  107OSM   C17F11019   5.106   5.984   8.799 -0.4179 -0.4238  0.9352
  107OSM   H17F11020   5.095   5.901   8.872 -0.7342  0.2608  1.6784
  107OSM   H17G11021   5.120   5.946   8.696 -2.6082 -0.3358  0.5555
  107OSM   C18F11022   4.988   6.070   8.772  0.3021  0.5547 -0.7042
  107OSM   H18F11023   4.897   6.013   8.801  1.4749 -1.6600 -1.2244
  107OSM   H18G11024   4.979   6.106   8.667 -0.7846 -0.6533 -1.0607
  107OSM   H18H11025   4.998   6.160   8.837  2.3326 -1.0946  1.3978
  108OSM      N11026   1.233   5.821  11.052  0.1367  0.3878  0.1961
  108OSM    C1511027   1.183   5.942  11.112  0.0934 -0.2028 -0.4111
  108OSM   H15A11028   1.076   5.942  11.131  0.2028 -0.8988  0.2663
  108OSM   H15B11029   1.214   6.030  11.058 -1.3740  0.4160 -0.2877
  108OSM   H15C11030   1.231   5.966  11.206  0.9115  3.1026 -1.5636
  108OSM    C1411031   1.384   5.845  11.026 -0.6263 -0.6769  0.0452
  108OSM   H14A11032   1.439   5.852  11.119  0.5142  0.5058 -0.6899
  108OSM   H14B11033   1.391   5.938  10.972 -1.1680 -0.5296  0.2245
  108OSM   H14C11034   1.423   5.764  10.965 -1.3806 -1.1422  0.1682
  108OSM    C1311035   1.214   5.700  11.138  0.1333  0.0191 -0.6596
  108OSM   H13A11036   1.111   5.673  11.151  0.0817 -0.3048 -1.6215
  108OSM   H13B11037   1.247   5.714  11.240 -1.0868  3.5045 -0.6146
  108OSM   H13C11038   1.272   5.618  11.098  0.6985  0.3502 -0.5376
  108OSM    C1211039   1.162   5.794  10.913 -0.7234  0.1972 -0.5607
  108OSM   H12A11040   1.057   5.785  10.938 -0.3259  1.5276  1.8832
  108OSM   H12B11041   1.201   5.698  10.882  0.5864  0.7216 -0.5750
  108OSM    C1111042   1.176   5.890  10.788 -0.3159 -0.0809  0.3010
  108OSM   H11A11043   1.142   5.987  10.828 -0.1738  0.8516 -1.7023
  108OSM   H11B11044   1.105   5.848  10.713  0.5353  1.1102 -1.2453
  108OSM      P11045   1.390   5.789  10.670  0.4855  0.0192 -0.2685
  108OSM    O1311046   1.529   5.834  10.668 -0.3702  0.1202  0.0559
  108OSM    O1411047   1.358   5.668  10.739  0.6688  0.1869 -0.5956
  108OSM    O1111048   1.333   5.786  10.522 -0.9466 -0.1132 -0.6578
  108OSM    O1211049   1.313   5.902  10.744 -0.1883 -0.5221  0.0806
  108OSM    C1S11050   1.326   5.896  10.440 -0.0155  0.1771  0.3072
  108OSM    H1S11051   1.427   5.923  10.402 -0.3219 -0.6601 -1.1929
  108OSM    H1T11052   1.289   5.989  10.489  0.4929 -0.5498  2.1199
  108OSM     NF11053   1.275   5.979  10.208  0.3463 -0.0550  0.4601
  108OSM    HNF11054   1.209   6.053  10.210 -0.1395 -0.4518 -0.3970
  108OSM    C2S11055   1.246   5.871  10.306 -0.2568  0.2769 -0.8947
  108OSM    H2S11056   1.273   5.773  10.259 -1.1587  0.0795 -1.0129
  108OSM    C3S11057   1.095   5.852  10.342  0.9655  0.3035  0.6719
  108OSM    H3S11058   1.059   5.946  10.388  1.9870  2.1427 -2.0108
  108OSM     O311059   1.072   5.735  10.418 -0.0920 -0.1726 -0.3953
  108OSM    HO311060   1.151   5.727  10.472 -0.5234 -3.1856  0.0016
  108OSM    C4S11061   1.014   5.832  10.220  0.3684 -0.0165  0.6071
  108OSM    H4S11062   1.048   5.741  10.168 -0.8240 -1.0405  1.5781
  108OSM    C5S11063   0.905   5.902  10.165 -0.8384  0.4375 -0.3097
  108OSM    H5S11064   0.875   5.997  10.211 -0.1012  0.9125 -0.7841
  108OSM    C6S11065   0.831   5.867  10.038 -0.8061  0.5332 -0.8419
  108OSM    H6S11066   0.728   5.909  10.034 -1.6916 -1.5680 -1.0808
  108OSM    H6T11067   0.802   5.760  10.035  0.1632  0.2801 -2.8840
  108OSM    C7S11068   0.897   5.886   9.906 -0.4169 -0.5924 -0.1638
  108OSM    H7S11069   0.999   5.843   9.903 -0.8442 -1.5837 -1.2913
  108OSM    H7T11070   0.919   5.995   9.899 -0.1601 -0.5594  0.8822
  108OSM    C8S11071   0.824   5.832   9.781 -0.3007  0.2574  0.1383
  108OSM    H8S11072   0.718   5.866   9.778  0.1244  1.5553 -1.6739
  108OSM    H8T11073   0.828   5.723   9.805 -1.7201  0.6321  2.3405
  108OSM    C9S11074   0.897   5.885   9.653  0.0537 -0.4636  0.1226
  108OSM    H9S11075   0.997   5.838   9.661 -1.0184 -2.9430  0.1208
  108OSM    H9T11076   0.910   5.995   9.646 -4.9472  0.4504  1.3125
  108OSM   C10S11077   0.813   5.832   9.531 -0.2459 -0.6072 -0.0186
  108OSM   H10S11078   0.707   5.857   9.553 -0.1208  2.1111 -2.0238
  108OSM   H10T11079   0.831   5.723   9.541  1.6383 -0.2688  0.6990
  108OSM   C11S11080   0.856   5.885   9.388  0.7222  0.4624  0.0522
  108OSM   H11S11081   0.949   5.832   9.358  0.7278  1.3250 -1.5902
  108OSM   H11T11082   0.866   5.995   9.397 -0.5539  0.7611 -1.5933
  108OSM   C12S11083   0.753   5.861   9.280 -0.5652  0.5852  0.0507
  108OSM   H12S11084   0.660   5.921   9.299  0.3895  1.5893  1.8902
  108OSM   H12T11085   0.724   5.755   9.295  2.7174 -0.3426  0.6008
  108OSM   C13S11086   0.799   5.887   9.135 -0.3334  0.3698 -1.1614
  108OSM   H13S11087   0.856   5.982   9.127  0.0458  0.3504  0.8188
  108OSM   H13T11088   0.702   5.901   9.084 -1.2520 -0.6405  0.2515
  108OSM   C14S11089   0.871   5.767   9.062 -0.4026 -0.1863  0.9744
  108OSM   H14S11090   0.803   5.682   9.082 -1.4184 -0.0843 -1.6397
  108OSM   H14T11091   0.973   5.748   9.102  0.6675  0.5825 -1.2049
  108OSM   C15S11092   0.878   5.810   8.913  0.5403 -0.7198  0.2493
  108OSM   H15S11093   0.927   5.910   8.912  1.0744 -0.9284 -2.6935
  108OSM   H15T11094   0.770   5.814   8.887  0.0298 -0.5976  2.2106
  108OSM   C16S11095   0.944   5.733   8.811 -0.7518  0.0724 -0.1462
  108OSM   H16S11096   0.914   5.626   8.809  0.2683 -0.2200 -0.7523
  108OSM   H16T11097   1.052   5.739   8.839 -1.1878  0.5772  1.4926
  108OSM   C17S11098   0.920   5.793   8.672  0.2477  0.4172  0.1061
  108OSM   H17S11099   0.938   5.902   8.671  1.3726  0.2613  0.9743
  108OSM   H17T11100   0.813   5.775   8.648  0.0653  1.6420 -0.0335
  108OSM   C18S11101   1.014   5.738   8.566  0.2825 -0.3840  0.0495
  108OSM   H18S11102   1.021   5.627   8.568  1.1464 -0.3786 -1.3062
  108OSM   H18T11103   1.121   5.766   8.576  0.1868  0.0726 -0.1973
  108OSM   H18U11104   0.978   5.770   8.466  1.9549 -1.1808 -0.8611
  108OSM    C1F11105   1.393   5.989  10.139  0.1716 -0.7567  0.2568
  108OSM     OF11106   1.474   5.903  10.156  0.1657  0.0013 -0.0530
  108OSM    C2F11107   1.416   6.106  10.041  0.3820  0.4367  0.3238
  108OSM    H2F11108   1.510   6.152  10.079  0.7142  1.4946 -1.6824
  108OSM    H2G11109   1.341   6.187  10.050  0.4822  0.5819 -0.1234
  108OSM    C3F11110   1.446   6.048   9.897 -0.0235  0.2419 -0.1955
  108OSM    H3F11111   1.517   5.964   9.905 -0.3388  0.0751  1.0913
  108OSM    H3G11112   1.500   6.121   9.834  0.8636  1.4121  1.8012
  108OSM    C4F11113   1.316   6.010   9.821 -0.5483  0.0932  0.4082
  108OSM    H4F11114   1.272   5.924   9.876 -0.1661 -0.2665  0.1661
  108OSM    H4G11115   1.353   5.958   9.730 -3.1043 -1.0156 -0.0849
  108OSM    C5F11116   1.212   6.110   9.794 -1.3915  0.4550  0.7820
  108OSM    H5F11117   1.213   6.188   9.873  1.9441 -0.7464  2.0930
  108OSM    H5G11118   1.114   6.058   9.793 -0.6146 -1.1707 -1.5254
  108OSM    C6F11119   1.236   6.184   9.657  0.9743 -0.5402  0.2501
  108OSM    H6F11120   1.343   6.213   9.649  1.8230 -3.2600  0.6762
  108OSM    H6G11121   1.189   6.284   9.662  0.1186 -0.8831 -0.5824
  108OSM    C7F11122   1.187   6.109   9.535 -0.2777  0.5729  0.2220
  108OSM    H7F11123   1.081   6.084   9.558 -0.0591  0.6453  1.3966
  108OSM    H7G11124   1.257   6.029   9.502  0.4517  1.3937 -0.2409
  108OSM    C8F11125   1.169   6.206   9.419 -0.6477 -0.3357 -0.4277
  108OSM    H8F11126   1.105   6.283   9.467  1.0485  1.6751 -1.2391
  108OSM    H8G11127   1.091   6.169   9.350 -2.8037  0.0772  1.6536
  108OSM    C9F11128   1.290   6.269   9.362  0.1716  0.8937  0.0303
  108OSM    H9F11129   1.379   6.263   9.427  1.0343 -0.7336 -1.2377
  108OSM   C10F11130   1.286   6.344   9.254  0.2664  0.0805 -0.1103
  108OSM   H10F11131   1.380   6.386   9.215 -0.5631  1.2476 -0.9139
  108OSM   C11F11132   1.167   6.375   9.173  0.8483  0.4515 -0.4913
  108OSM   H11F11133   1.074   6.383   9.234  2.6858 -0.4354  2.6458
  108OSM   H11G11134   1.141   6.287   9.109 -0.8212  0.1221  0.5736
  108OSM   C12F11135   1.175   6.495   9.085  0.2919 -1.0881 -0.6152
  108OSM   H12F11136   1.180   6.591   9.140 -1.4916 -0.5938 -1.2156
  108OSM   H12G11137   1.075   6.493   9.036 -0.6027 -0.7415  1.1181
  108OSM   C13F11138   1.279   6.484   8.975 -0.3141  0.1217  0.5642
  108OSM   H13F11139   1.289   6.377   8.947 -2.5451 -0.3095  1.1577
  108OSM   H13G11140   1.377   6.511   9.019  0.1962 -1.8176  0.6997
  108OSM   C14F11141   1.250   6.571   8.855 -0.5038 -0.2364  0.0398
  108OSM   H14F11142   1.204   6.666   8.890  0.3537 -0.7235  2.7106
  108OSM   H14G11143   1.167   6.540   8.788  0.7717  0.9303 -2.2144
  108OSM   C15F11144   1.377   6.621   8.777  0.2701  0.1867  0.1822
  108OSM   H15F11145   1.465   6.641   8.842  1.3097  1.4790 -1.5209
  108OSM   H15G11146   1.356   6.714   8.721  0.2629  0.1771  0.1686
  108OSM   C16F11147   1.423   6.515   8.688  0.0434  0.6453  0.7083
  108OSM   H16F11148   1.430   6.421   8.746 -1.0450  0.0861 -0.0172
  108OSM   H16G11149   1.527   6.534   8.654  0.2404 -0.3545  0.7193
  108OSM   C17F11150   1.344   6.501   8.557 -0.1714 -0.3566 -0.2424
  108OSM   H17F11151   1.319   6.607   8.534 -2.6909 -1.0921 -1.2704
  108OSM   H17G11152   1.250   6.443   8.561 -0.6179  0.4380  2.3150
  108OSM   C18F11153   1.441   6.454   8.436 -0.4073 -0.2177 -0.2136
  108OSM   H18F11154   1.383   6.434   8.343 -0.2509 -0.6912 -0.2131
  108OSM   H18G11155   1.483   6.360   8.478 -0.4060  0.8369  2.3249
  108OSM   H18H11156   1.523   6.526   8.418 -2.3042  2.0676 -0.1492
  109OSM      N11157   1.045   2.959  10.448  0.2706  0.0142  0.0964
  109OSM    C1511158   1.004   2.819  10.474 -0.2043 -0.4713 -0.4864
  109OSM   H15A11159   1.065   2.771  10.549 -0.9984 -0.1975  0.3580
  109OSM   H15B11160   1.002   2.761  10.383 -2.3972 -1.4138  0.0964
  109OSM   H15C11161   0.902   2.817  10.511 -1.4309 -1.3505 -3.5465
  109OSM    C1411162   1.189   2.966  10.399 -0.0641 -0.5883 -1.4857
  109OSM   H14A11163   1.216   2.868  10.361 -0.3722 -1.2866  0.0083
  109OSM   H14B11164   1.251   2.987  10.485 -1.0076 -3.5811  0.0703
  109OSM   H14C11165   1.224   3.042  10.331  2.2563 -0.0675  0.1694
  109OSM    C1311166   0.974   3.001  10.322 -0.3636 -0.1910 -0.1528
  109OSM   H13A11167   0.869   2.982  10.341 -0.3221 -1.2547 -0.9013
  109OSM   H13B11168   1.013   2.932  10.249  0.5325  2.1863 -2.0324
  109OSM   H13C11169   0.998   3.102  10.295 -0.0354  0.9062  3.6290
  109OSM    C1211170   1.034   3.056  10.559 -0.1489 -0.8146 -0.2924
  109OSM   H12A11171   0.931   3.046  10.591 -0.2093 -0.8985 -0.5117
  109OSM   H12B11172   1.047   3.156  10.522 -0.5464  0.0549  1.7552
  109OSM    C1111173   1.116   3.033  10.683 -1.0556  0.0551 -0.0642
  109OSM   H11A11174   1.127   2.924  10.701  1.0610  0.2002 -0.2501
  109OSM   H11B11175   1.068   3.078  10.773  1.4030  1.9446  0.3946
  109OSM      P11176   1.280   3.233  10.698  0.0863 -0.0356 -0.0012
  109OSM    O1311177   1.203   3.278  10.813 -0.4296  0.2117 -0.3700
  109OSM    O1411178   1.426   3.255  10.700 -0.2342 -0.1580 -0.1396
  109OSM    O1111179   1.212   3.311  10.575  0.1272  0.5866 -0.2874
  109OSM    O1211180   1.250   3.079  10.669  0.2995  0.2204  0.2364
  109OSM    C1S11181   1.283   3.312  10.446  0.3565 -0.1433 -0.0989
  109OSM    H1S11182   1.310   3.211  10.411 -0.0833 -0.4338  0.3792
  109OSM    H1T11183   1.377   3.371  10.462  0.5392 -0.4980  0.1585
  109OSM     NF11184   1.256   3.381  10.211  0.0770  0.3757 -0.3597
  109OSM    HNF11185   1.321   3.451  10.181  0.1660 -0.3811 -2.0810
  109OSM    C2S11186   1.198   3.396  10.345  0.7837 -0.0750  0.3064
  109OSM    H2S11187   1.099   3.348  10.336 -0.2858  2.3414 -2.2674
  109OSM    C3S11188   1.193   3.545  10.404  0.1599  0.0526 -0.7136
  109OSM    H3S11189   1.297   3.585  10.404 -0.4115  1.6786  0.7545
  109OSM     O311190   1.155   3.565  10.536 -0.0988  0.6440 -0.0621
  109OSM    HO311191   1.172   3.474  10.562 -1.2884  0.0569 -1.2682
  109OSM    C4S11192   1.109   3.643  10.312 -0.0519  0.4643 -0.4380
  109OSM    H4S11193   1.015   3.590  10.290  1.0043 -1.2982 -0.9541
  109OSM    C5S11194   1.147   3.764  10.261  0.0174  0.9399  0.0252
  109OSM    H5S11195   1.241   3.813  10.290  0.2848  0.7348 -0.4729
  109OSM    C6S11196   1.068   3.854  10.167 -0.4056  0.8152  0.2112
  109OSM    H6S11197   1.123   3.947  10.141 -2.0852  2.1048  1.0467
  109OSM    H6T11198   0.979   3.889  10.224 -0.0597  1.8876  0.1123
  109OSM    C7S11199   0.995   3.782  10.052  0.3649 -0.4107  0.3972
  109OSM    H7S11200   0.941   3.696  10.096  2.2484 -0.9930  1.7125
  109OSM    H7T11201   1.067   3.751   9.973 -1.3905  3.0400 -2.8965
  109OSM    C8S11202   0.895   3.871   9.981  0.2041 -0.1642  0.0326
  109OSM    H8S11203   0.938   3.972   9.963  2.4036 -0.9645  0.4893
  109OSM    H8T11204   0.803   3.882  10.042 -1.3189 -0.0300 -2.1683
  109OSM    C9S11205   0.852   3.815   9.844 -0.7177  0.4438 -0.3140
  109OSM    H9S11206   0.818   3.709   9.846  0.3243  0.1074  0.4654
  109OSM    H9T11207   0.943   3.822   9.781 -3.3993 -1.1020 -4.8815
  109OSM   C10S11208   0.756   3.901   9.765  0.0955  0.1463  0.1771
  109OSM   H10S11209   0.794   4.005   9.772  1.1280 -0.1873 -0.2835
  109OSM   H10T11210   0.660   3.903   9.821  0.0528  0.1740  0.1031
  109OSM   C11S11211   0.754   3.872   9.617  0.4616  0.6134  0.4056
  109OSM   H11S11212   0.661   3.820   9.585  1.0430  0.1032 -0.4748
  109OSM   H11T11213   0.837   3.802   9.597 -0.0061 -0.1740  1.1539
  109OSM   C12S11214   0.777   3.995   9.524  0.6185  0.5845  0.0444
  109OSM   H12S11215   0.885   4.020   9.532  0.7865  0.5584 -1.6091
  109OSM   H12T11216   0.712   4.078   9.559  0.5378  0.3136  0.5355
  109OSM   C13S11217   0.736   3.973   9.376  0.7161  0.3736 -0.1398
  109OSM   H13S11218   0.799   3.895   9.329 -1.4935 -0.7568 -1.3610
  109OSM   H13T11219   0.768   4.066   9.323  0.3846  0.2867 -0.4906
  109OSM   C14S11220   0.582   3.949   9.361  0.1868  0.6282  0.4778
  109OSM   H14S11221   0.513   4.016   9.417 -1.4312 -0.6103  0.0413
  109OSM   H14T11222   0.548   3.845   9.380 -0.5221  0.7986  0.1968
  109OSM   C15S11223   0.516   3.963   9.218 -0.2224 -0.1533  0.6035
  109OSM   H15S11224   0.530   4.063   9.173  0.0766 -0.7808 -0.7646
  109OSM   H15T11225   0.406   3.956   9.231 -0.0379 -0.7617  2.0187
  109OSM   C16S11226   0.564   3.850   9.122 -0.0071 -0.3696 -0.5199
  109OSM   H16S11227   0.555   3.747   9.164 -0.9773 -0.0430  0.1197
  109OSM   H16T11228   0.670   3.853   9.089 -0.5828  1.4349 -2.3920
  109OSM   C17S11229   0.490   3.848   8.990 -0.4168 -0.4372  0.0174
  109OSM   H17S11230   0.518   3.940   8.935 -1.5656 -0.1610 -0.1360
  109OSM   H17T11231   0.381   3.849   9.013 -0.3484 -1.5597  0.4652
  109OSM   C18S11232   0.524   3.717   8.918  0.7081  0.2818 -0.2074
  109OSM   H18S11233   0.632   3.691   8.910  0.9407  1.1298  0.0997
  109OSM   H18T11234   0.476   3.718   8.818 -2.0662  0.5253  1.0418
  109OSM   H18U11235   0.472   3.636   8.974 -1.5895  1.9670  0.2199
  109OSM    C1F11236   1.251   3.264  10.147 -0.6724 -0.0272  0.7706
  109OSM     OF11237   1.161   3.191  10.180 -0.5927  0.3211 -1.0302
  109OSM    C2F11238   1.364   3.240  10.041 -0.0399 -0.1688  0.2223
  109OSM    H2F11239   1.449   3.221  10.110 -1.3105 -1.7143  1.4489
  109OSM    H2G11240   1.376   3.330   9.977  0.1569 -0.1745  0.2513
  109OSM    C3F11241   1.344   3.116   9.961  0.4829 -0.2343  0.0306
  109OSM    H3F11242   1.257   3.132   9.894  0.8468 -0.3857 -0.4866
  109OSM    H3G11243   1.330   3.024  10.021  0.3110 -0.2418 -0.0207
  109OSM    C4F11244   1.452   3.064   9.861  0.3875 -0.2227 -0.1653
  109OSM    H4F11245   1.404   2.992   9.791 -1.0560  2.9248 -2.7041
  109OSM    H4G11246   1.535   3.009   9.911  1.1858  1.0598 -0.0505
  109OSM    C5F11247   1.511   3.167   9.773 -0.6363 -0.3566  0.7187
  109OSM    H5F11248   1.588   3.112   9.713  0.1365  0.8884  0.5416
  109OSM    H5G11249   1.566   3.245   9.829  1.3229 -0.0809 -1.4219
  109OSM    C6F11250   1.410   3.240   9.681  0.6899  0.5436 -0.4154
  109OSM    H6F11251   1.344   3.302   9.746  0.6652 -1.7645  1.8862
  109OSM    H6G11252   1.349   3.161   9.634  0.0615  0.4641  0.5039
  109OSM    C7F11253   1.481   3.318   9.567  0.2316  0.1006  0.1466
  109OSM    H7F11254   1.546   3.242   9.519  0.3993 -0.1075  0.6915
  109OSM    H7G11255   1.546   3.391   9.620  2.4595 -1.1068 -0.7926
  109OSM    C8F11256   1.368   3.383   9.485  0.4707  0.7275  0.2775
  109OSM    H8F11257   1.292   3.424   9.555  1.4287  1.0983  1.1343
  109OSM    H8G11258   1.319   3.302   9.426  0.6641  1.7421 -1.3521
  109OSM    C9F11259   1.421   3.491   9.387  0.0454 -0.3353 -0.1920
  109OSM    H9F11260   1.408   3.595   9.422  2.0437 -1.0779  3.1826
  109OSM   C10F11261   1.484   3.471   9.270  0.9464 -0.0635 -0.9066
  109OSM   H10F11262   1.501   3.563   9.212  0.9757  1.4861  1.4325
  109OSM   C11F11263   1.522   3.339   9.203  0.1137  0.3865  0.5084
  109OSM   H11F11264   1.505   3.254   9.273 -0.8181  0.2013  0.0811
  109OSM   H11G11265   1.630   3.339   9.177 -0.2122  4.5402 -1.5862
  109OSM   C12F11266   1.454   3.293   9.071 -0.4620  0.9026 -0.1544
  109OSM   H12F11267   1.520   3.214   9.029 -0.5950 -1.1445  3.1226
  109OSM   H12G11268   1.454   3.379   9.001 -1.2244 -0.4918 -1.9530
  109OSM   C13F11269   1.304   3.251   9.078  0.2797 -0.3605 -0.8240
  109OSM   H13F11270   1.250   3.311   9.154  0.9444 -0.3548 -0.3492
  109OSM   H13G11271   1.303   3.142   9.100 -0.5864  0.0659  1.5855
  109OSM   C14F11272   1.232   3.283   8.946  0.2908  1.2006 -0.1810
  109OSM   H14F11273   1.275   3.207   8.878  1.9685  1.4919  0.5147
  109OSM   H14G11274   1.245   3.388   8.910 -2.2828  1.7658  0.3065
  109OSM   C15F11275   1.076   3.278   8.953 -0.9572  0.2807  0.3879
  109OSM   H15F11276   1.024   3.338   9.031 -1.0216 -0.4068  0.8794
  109OSM   H15G11277   1.048   3.171   8.965 -1.0898 -0.0460 -2.2778
  109OSM   C16F11278   0.998   3.316   8.823  0.9451  0.8784  0.3185
  109OSM   H16F11279   1.007   3.242   8.741 -0.3410  1.1747 -0.1005
  109OSM   H16G11280   1.024   3.408   8.767  0.9247  0.0773 -1.0437
  109OSM   C17F11281   0.846   3.335   8.841 -0.2255 -0.0142  0.0953
  109OSM   H17F11282   0.811   3.242   8.890  1.2397 -0.1082  1.0627
  109OSM   H17G11283   0.782   3.349   8.752 -2.4497  2.6914  1.9220
  109OSM   C18F11284   0.804   3.455   8.938  0.5217 -0.1266 -0.4108
  109OSM   H18F11285   0.840   3.549   8.891  0.9040  0.6460  1.3396
  109OSM   H18G11286   0.834   3.439   9.044  0.7412 -0.9947 -0.5899
  109OSM   H18H11287   0.694   3.468   8.928  0.5396 -1.5076 -3.4797
  110OSM      N11288   3.228   1.991  11.212 -0.4284  0.2582 -0.1530
  110OSM    C1511289   3.276   2.127  11.251  0.1422  0.6946 -0.9120
  110OSM   H15A11290   3.189   2.192  11.252  0.3944  1.0388 -1.1289
  110OSM   H15B11291   3.343   2.155  11.171  2.2782  0.2098  0.6125
  110OSM   H15C11292   3.330   2.120  11.344 -1.7451 -1.1136  0.1286
  110OSM    C1411293   3.350   1.912  11.199  0.6272  0.2813  0.6689
  110OSM   H14A11294   3.319   1.808  11.191 -3.0910  1.3599 -1.3087
  110OSM   H14B11295   3.420   1.917  11.282  1.8295 -0.2438 -0.2915
  110OSM   H14C11296   3.407   1.931  11.110 -1.1385  2.5379 -0.0741
  110OSM    C1311297   3.143   1.930  11.325 -0.5058  0.5143  0.0591
  110OSM   H13A11298   3.080   2.010  11.361  1.9930  1.8017  1.9071
  110OSM   H13B11299   3.209   1.889  11.400 -0.4999  1.0480  0.3499
  110OSM   H13C11300   3.083   1.847  11.291  2.0679 -2.0986  1.4283
  110OSM    C1211301   3.140   1.985  11.084  0.5604  0.1023 -0.9296
  110OSM   H12A11302   3.045   2.029  11.108  0.6582 -1.2087  2.2309
  110OSM   H12B11303   3.111   1.881  11.077 -2.7722  0.8300  0.4400
  110OSM    C1111304   3.199   2.036  10.953  0.2715  0.4581 -0.4300
  110OSM   H11A11305   3.250   2.135  10.959 -0.4970  0.9067 -1.1174
  110OSM   H11B11306   3.116   2.048  10.881 -1.2347  0.9688  1.3234
  110OSM      P11307   3.261   1.794  10.866 -0.1511  0.0379  0.1795
  110OSM    O1311308   3.357   1.736  10.766 -0.6185 -0.0171 -0.5587
  110OSM    O1411309   3.251   1.718  10.991  0.2356 -0.0676 -0.1522
  110OSM    O1111310   3.108   1.800  10.808  0.1508  0.1768  0.0611
  110OSM    O1211311   3.297   1.942  10.897 -0.1073 -0.0628 -0.0716
  110OSM    C1S11312   3.097   1.840  10.674 -0.0539  0.0477  0.0239
  110OSM    H1S11313   3.159   1.783  10.602  0.0583  2.6961 -2.1253
  110OSM    H1T11314   3.127   1.946  10.659 -2.3404  0.6957 -0.3354
  110OSM     NF11315   2.931   1.846  10.486  0.1212 -0.0952 -0.7031
  110OSM    HNF11316   2.920   1.943  10.465  0.4115  0.0411 -0.2518
  110OSM    C2S11317   2.951   1.827  10.634 -0.0661  0.0088 -0.1002
  110OSM    H2S11318   2.920   1.725  10.663 -0.9515  0.7489  1.7015
  110OSM    C3S11319   2.859   1.915  10.722  0.2608 -0.4805  0.5711
  110OSM    H3S11320   2.847   2.021  10.694 -0.6703 -0.5679  0.6121
  110OSM     O311321   2.898   1.910  10.859  0.2947  0.3730  0.4549
  110OSM    HO311322   2.978   1.857  10.850 -0.0365 -0.2284  0.9243
  110OSM    C4S11323   2.723   1.857  10.706  1.1928  0.4549 -0.0366
  110OSM    H4S11324   2.689   1.805  10.797  0.2682  0.2602 -0.4790
  110OSM    C5S11325   2.632   1.874  10.611  0.3804 -0.1936 -0.3573
  110OSM    H5S11326   2.649   1.943  10.527 -0.5743 -0.0316 -0.4324
  110OSM    C6S11327   2.492   1.816  10.606 -0.6099  0.0511 -0.2791
  110OSM    H6S11328   2.422   1.891  10.649 -0.8103 -0.3204  0.0540
  110OSM    H6T11329   2.483   1.723  10.666 -1.1191  0.3148  0.0560
  110OSM    C7S11330   2.468   1.770  10.464 -0.4636  0.3167  0.3851
  110OSM    H7S11331   2.485   1.850  10.389 -2.4228 -0.0898 -0.5730
  110OSM    H7T11332   2.359   1.748  10.458 -0.4823 -0.8737  3.4334
  110OSM    C8S11333   2.536   1.641  10.423 -0.7719  0.2726  0.7619
  110OSM    H8S11334   2.507   1.563  10.497 -3.0687  3.1186  3.1306
  110OSM    H8T11335   2.645   1.662  10.432 -1.0021  1.6839  0.4780
  110OSM    C9S11336   2.494   1.598  10.282  0.1633 -0.5865  0.5867
  110OSM    H9S11337   2.385   1.615  10.278  0.0095 -1.6936 -0.2997
  110OSM    H9T11338   2.516   1.490  10.271 -1.0567 -0.6125 -2.4161
  110OSM   C10S11339   2.568   1.676  10.173 -0.0582 -0.3805  0.0433
  110OSM   H10S11340   2.677   1.690  10.189 -0.0060 -0.2384 -0.4116
  110OSM   H10T11341   2.521   1.777  10.164  0.5540 -0.2666 -3.3063
  110OSM   C11S11342   2.569   1.615  10.032  0.5652 -0.6877  0.1910
  110OSM   H11S11343   2.467   1.607   9.988  0.3768 -0.8867  0.6505
  110OSM   H11T11344   2.620   1.517  10.040  1.0488 -0.3730  1.1119
  110OSM   C12S11345   2.663   1.680   9.929 -0.2743  0.6495 -0.6956
  110OSM   H12S11346   2.768   1.667   9.962 -0.8571  2.4410  2.2592
  110OSM   H12T11347   2.640   1.788   9.940 -1.1968  0.5089 -1.1505
  110OSM   C13S11348   2.634   1.643   9.782 -0.0149  0.1478 -0.4879
  110OSM   H13S11349   2.532   1.684   9.764  0.7614  2.6032  0.4017
  110OSM   H13T11350   2.636   1.532   9.789 -2.1401  0.0915  0.0347
  110OSM   C14S11351   2.735   1.701   9.683 -0.2672 -0.1792 -0.0857
  110OSM   H14S11352   2.704   1.674   9.580  0.2645 -0.4922 -0.1662
  110OSM   H14T11353   2.839   1.662   9.695 -0.9190 -2.0275 -0.1131
  110OSM   C15S11354   2.754   1.853   9.680  0.1485  0.4420  0.6844
  110OSM   H15S11355   2.808   1.879   9.774 -1.3221  0.2112  1.6291
  110OSM   H15T11356   2.651   1.893   9.688 -0.1009 -0.3109  1.3600
  110OSM   C16S11357   2.840   1.903   9.559  0.0855 -1.0537  0.3425
  110OSM   H16S11358   2.938   1.855   9.580  0.9437  0.8201  0.8081
  110OSM   H16T11359   2.845   2.013   9.572 -1.3900 -1.2060  2.7904
  110OSM   C17S11360   2.795   1.872   9.415 -0.2991  0.6536  0.7902
  110OSM   H17S11361   2.687   1.895   9.401 -0.7180 -0.0920  2.4992
  110OSM   H17T11362   2.806   1.762   9.402 -0.8294  0.5281  1.3033
  110OSM   C18S11363   2.870   1.934   9.296 -0.7864  0.1405 -0.1984
  110OSM   H18S11364   2.839   2.040   9.281 -0.5114  0.4198  1.1368
  110OSM   H18T11365   2.850   1.870   9.207 -0.1348  0.7940 -0.8281
  110OSM   H18U11366   2.980   1.925   9.302 -0.8087  0.3873  0.6552
  110OSM    C1F11367   2.985   1.763  10.398 -0.2114 -0.2479  0.0243
  110OSM     OF11368   3.020   1.651  10.425 -0.0235 -0.1863  0.2971
  110OSM    C2F11369   2.992   1.832  10.262  0.1857  0.2956  0.8875
  110OSM    H2F11370   3.054   1.924  10.255  1.2779 -0.5474 -1.5884
  110OSM    H2G11371   2.890   1.863  10.230  0.0291  0.4467  1.5190
  110OSM    C3F11372   3.040   1.745  10.147  0.0030  0.1036 -0.9743
  110OSM    H3F11373   2.955   1.677  10.124  0.1073 -0.7705  1.0258
  110OSM    H3G11374   3.123   1.685  10.190 -2.8055 -2.4437  1.4073
  110OSM    C4F11375   3.064   1.805  10.006  0.1421 -0.3113 -0.0944
  110OSM    H4F11376   3.120   1.899  10.024  1.7595 -0.6581 -2.6814
  110OSM    H4G11377   2.969   1.830   9.955  0.8863  1.2578 -0.7572
  110OSM    C5F11378   3.140   1.716   9.908 -0.6798  0.1115  0.2518
  110OSM    H5F11379   3.081   1.623   9.892  0.8090 -0.6555 -1.1704
  110OSM    H5G11380   3.240   1.682   9.942 -0.8742 -2.7282 -1.5919
  110OSM    C6F11381   3.174   1.785   9.773 -0.2740  0.1815 -0.7268
  110OSM    H6F11382   3.247   1.869   9.777 -0.6337  0.4526  0.9141
  110OSM    H6G11383   3.081   1.823   9.726 -0.5173 -1.4072 -1.6020
  110OSM    C7F11384   3.227   1.684   9.667  0.3784 -0.2282 -0.2160
  110OSM    H7F11385   3.156   1.600   9.685 -0.3555  0.7300  1.6904
  110OSM    H7G11386   3.323   1.641   9.701  1.1731  2.2751  0.9562
  110OSM    C8F11387   3.237   1.731   9.523  0.0632 -0.4245 -0.1650
  110OSM    H8F11388   3.147   1.792   9.505 -0.1730 -0.1854  1.6711
  110OSM    H8G11389   3.227   1.642   9.458  0.9430  0.1829 -1.1646
  110OSM    C9F11390   3.356   1.806   9.493 -0.0240  0.7274  0.3711
  110OSM    H9F11391   3.377   1.895   9.553  1.6578 -1.6461  3.6546
  110OSM   C10F11392   3.441   1.772   9.392 -0.3688  0.4183 -0.3685
  110OSM   H10F11393   3.530   1.831   9.368 -0.5437  0.9092  0.1618
  110OSM   C11F11394   3.415   1.652   9.307  0.2975 -0.5218  0.4099
  110OSM   H11F11395   3.359   1.565   9.347 -1.4780  0.6890  0.6773
  110OSM   H11G11396   3.516   1.620   9.275  0.2164  1.3566 -2.0806
  110OSM   C12F11397   3.349   1.701   9.170  0.7778  0.1597  0.5683
  110OSM   H12F11398   3.367   1.621   9.095  1.4478  0.1523  0.7335
  110OSM   H12G11399   3.379   1.799   9.128 -4.0749  1.7312  0.1059
  110OSM   C13F11400   3.196   1.730   9.189 -0.0483 -0.2551 -0.0072
  110OSM   H13F11401   3.180   1.834   9.224 -0.6419 -0.7731  1.3171
  110OSM   H13G11402   3.158   1.666   9.272  2.1974 -0.9831  0.5234
  110OSM   C14F11403   3.109   1.708   9.062  0.8444  0.0830  0.3289
  110OSM   H14F11404   3.003   1.689   9.089  1.2668 -1.3524  1.0728
  110OSM   H14G11405   3.138   1.611   9.015  0.4398  0.3810 -0.5423
  110OSM   C15F11406   3.116   1.829   8.970 -0.6534  0.3186  0.2223
  110OSM   H15F11407   3.210   1.835   8.910  1.1229  0.7873  2.8332
  110OSM   H15G11408   3.124   1.920   9.034  2.9746 -0.0054  0.4487
  110OSM   C16F11409   2.988   1.853   8.883 -0.4038  0.0055  0.0497
  110OSM   H16F11410   2.974   1.958   8.849  0.7574 -0.1766 -1.0554
  110OSM   H16G11411   2.906   1.832   8.955 -0.9688 -0.8240 -0.8220
  110OSM   C17F11412   2.973   1.759   8.758 -0.5577  0.4643 -1.0014
  110OSM   H17F11413   2.864   1.769   8.734 -0.9868  1.6565  1.2586
  110OSM   H17G11414   2.989   1.653   8.786  2.1161  0.9454 -0.5160
  110OSM   C18F11415   3.039   1.806   8.631 -0.1740 -0.0518 -0.2861
  110OSM   H18F11416   3.013   1.739   8.547 -1.1163 -1.0515  0.7606
  110OSM   H18G11417   3.148   1.791   8.646 -0.1994 -1.8212 -1.6227
  110OSM   H18H11418   3.023   1.914   8.609  2.0824  0.1042 -1.4261
  111OSM      N11419   1.990   0.457  11.066  0.0581  0.2407 -0.2133
  111OSM    C1511420   2.057   0.581  11.009 -0.3610  0.1079 -0.6877
  111OSM   H15A11421   2.161   0.555  10.994  0.1077 -1.0513  3.3357
  111OSM   H15B11422   2.050   0.669  11.070 -0.0767 -0.5758  0.3548
  111OSM   H15C11423   2.016   0.614  10.915  0.8404  0.2395 -1.1850
  111OSM    C1411424   2.064   0.411  11.187 -0.1035 -0.2744 -0.5238
  111OSM   H14A11425   2.021   0.322  11.231 -1.9687 -0.3737 -2.3821
  111OSM   H14B11426   2.048   0.482  11.266  2.6476  1.2030 -1.1953
  111OSM   H14C11427   2.170   0.398  11.169 -0.2106 -1.2873 -0.5205
  111OSM    C1311428   1.848   0.496  11.106  0.6843 -0.2046 -0.7529
  111OSM   H13A11429   1.861   0.577  11.176 -1.8580 -0.6778  0.3889
  111OSM   H13B11430   1.800   0.413  11.156  1.1565  0.2189  0.4353
  111OSM   H13C11431   1.790   0.540  11.026 -1.2412 -0.0157  0.6755
  111OSM    C1211432   1.983   0.349  10.958 -0.4614  0.2730  0.8400
  111OSM   H12A11433   1.894   0.291  10.975 -2.2121  3.1216  2.1216
  111OSM   H12B11434   2.070   0.285  10.953 -0.6026  0.0696  0.9620
  111OSM    C1111435   1.953   0.377  10.808 -0.1413  0.1281 -0.2155
  111OSM   H11A11436   1.949   0.283  10.750  1.4586 -0.6318  0.8303
  111OSM   H11B11437   2.042   0.429  10.766  0.9878 -0.3750  1.4771
  111OSM      P11438   1.825   0.579  10.690 -0.5458  0.3241  0.0253
  111OSM    O1311439   1.686   0.595  10.666 -0.1403  0.3351 -0.2862
  111OSM    O1411440   1.886   0.688  10.774 -0.0527 -0.0905 -0.3926
  111OSM    O1111441   1.917   0.541  10.567  1.1598 -0.0933  0.5528
  111OSM    O1211442   1.835   0.445  10.782 -0.6423 -0.4418  0.1004
  111OSM    C1S11443   1.859   0.470  10.454  0.0102  0.4517  0.6574
  111OSM    H1S11444   1.748   0.467  10.462  0.1381 -1.4113  2.5732
  111OSM    H1T11445   1.896   0.365  10.459 -2.1187 -0.3517  1.0619
  111OSM     NF11446   1.843   0.415  10.221 -0.5684  0.2320  0.1452
  111OSM    HNF11447   1.907   0.348  10.183  0.0908  1.3996 -0.8853
  111OSM    C2S11448   1.895   0.516  10.311 -0.0961 -0.1149  0.2189
  111OSM    H2S11449   1.838   0.610  10.297  1.4650  0.9710  0.8030
  111OSM    C3S11450   2.045   0.547  10.289  0.9991  0.0060 -0.9006
  111OSM    H3S11451   2.109   0.458  10.304 -0.0909 -1.0195 -2.0824
  111OSM     O311452   2.102   0.643  10.384  0.1485  0.0178 -0.1940
  111OSM    HO311453   2.052   0.647  10.466  0.8591 -0.7968  0.2896
  111OSM    C4S11454   2.060   0.611  10.153  0.0349  0.2134  0.6505
  111OSM    H4S11455   2.036   0.536  10.076 -0.6187  0.1729  0.8869
  111OSM    C5S11456   2.089   0.738  10.117  0.2669  0.5581  0.2345
  111OSM    H5S11457   2.117   0.808  10.197  1.4787 -0.0649  0.3759
  111OSM    C6S11458   2.090   0.779   9.971  0.3054 -0.3320 -0.5990
  111OSM    H6S11459   2.196   0.795   9.942  0.1247  1.3012 -0.4623
  111OSM    H6T11460   2.043   0.880   9.967 -0.1398 -0.5834 -2.8035
  111OSM    C7S11461   2.023   0.692   9.862 -0.0215 -0.0930 -0.0248
  111OSM    H7S11462   1.918   0.667   9.888 -0.2418 -1.0785 -1.6768
  111OSM    H7T11463   2.065   0.592   9.841 -0.5624 -0.5186  0.8640
  111OSM    C8S11464   2.026   0.772   9.737  0.5083  0.1537 -0.0907
  111OSM    H8S11465   2.128   0.816   9.723  1.3533 -0.6588  2.8608
  111OSM    H8T11466   1.945   0.848   9.732 -0.8201 -1.1064  1.2822
  111OSM    C9S11467   1.991   0.678   9.619 -0.5818  0.0604  0.4843
  111OSM    H9S11468   1.892   0.637   9.645 -0.8387 -0.8391 -1.7578
  111OSM    H9T11469   2.067   0.597   9.615  0.7660  1.2154  1.2586
  111OSM   C10S11470   1.988   0.743   9.479  0.2604  0.6323  0.1015
  111OSM   H10S11471   2.092   0.760   9.445  0.2438  0.3316 -0.1073
  111OSM   H10T11472   1.923   0.832   9.492  0.2191  1.1351 -3.0014
  111OSM   C11S11473   1.916   0.655   9.380  0.1155  0.6703  0.1832
  111OSM   H11S11474   1.818   0.615   9.414  0.1892  0.4593  0.1537
  111OSM   H11T11475   1.983   0.573   9.345 -1.7330 -0.1887 -1.5449
  111OSM   C12S11476   1.869   0.738   9.261  0.3405  0.1736 -0.7132
  111OSM   H12S11477   1.804   0.821   9.294  0.7379  0.8388 -1.5598
  111OSM   H12T11478   1.791   0.680   9.207 -2.3854  1.4905  1.5697
  111OSM   C13S11479   1.987   0.798   9.177 -0.0186  0.2991  0.2365
  111OSM   H13S11480   2.065   0.720   9.163  1.2670  1.2987  1.6386
  111OSM   H13T11481   2.035   0.869   9.247  0.7821 -1.3456  1.4446
  111OSM   C14S11482   1.943   0.876   9.048 -0.2498  0.0661  0.7599
  111OSM   H14S11483   1.858   0.943   9.074  0.4353  1.5165 -0.5911
  111OSM   H14T11484   1.903   0.805   8.973  0.4261  1.2445 -0.7783
  111OSM   C15S11485   2.041   0.962   8.966  0.1640  0.1692 -0.1098
  111OSM   H15S11486   2.119   0.903   8.912  0.7228  0.7267  0.0711
  111OSM   H15T11487   2.088   1.030   9.041 -0.0045 -1.6815  1.7828
  111OSM   C16S11488   1.974   1.059   8.863  0.0750  0.2111 -0.1921
  111OSM   H16S11489   1.905   1.134   8.908  1.7449 -1.4953  6.2323
  111OSM   H16T11490   1.911   0.991   8.801  0.8082 -0.4566 -0.2151
  111OSM   C17S11491   2.080   1.111   8.769 -0.2133  0.4928 -0.2019
  111OSM   H17S11492   2.029   1.177   8.696 -1.3004 -0.3810 -0.2606
  111OSM   H17T11493   2.124   1.034   8.703  0.0748 -0.3567  0.9499
  111OSM   C18S11494   2.196   1.200   8.831 -0.0957  0.4946  0.3206
  111OSM   H18S11495   2.272   1.212   8.751  0.7766 -0.1155  1.0461
  111OSM   H18T11496   2.242   1.152   8.920 -0.1137 -0.0322  0.0485
  111OSM   H18U11497   2.173   1.303   8.866 -1.8021  0.9817 -1.9750
  111OSM    C1F11498   1.718   0.396  10.186 -0.2993  0.3859 -0.2356
  111OSM     OF11499   1.633   0.472  10.224 -0.1296  0.4603  0.0013
  111OSM    C2F11500   1.681   0.280  10.105  0.2123 -0.2534 -0.2751
  111OSM    H2F11501   1.615   0.216  10.167 -0.7166  1.2297  0.3132
  111OSM    H2G11502   1.768   0.225  10.063  1.8260  0.4573  1.9248
  111OSM    C3F11503   1.598   0.312   9.981 -0.2461 -0.2420  0.0309
  111OSM    H3F11504   1.496   0.351  10.003 -0.7159 -1.6536  0.4821
  111OSM    H3G11505   1.577   0.208   9.947 -0.4448 -0.0284 -0.5215
  111OSM    C4F11506   1.661   0.405   9.875  0.4270 -0.0967 -0.0592
  111OSM    H4F11507   1.764   0.368   9.859  0.1308 -1.5306  1.1666
  111OSM    H4G11508   1.666   0.507   9.919 -3.1971  0.1968 -0.0372
  111OSM    C5F11509   1.577   0.407   9.740  0.6214  0.2814 -0.4146
  111OSM    H5F11510   1.482   0.458   9.771  0.9004  0.9617 -0.6554
  111OSM    H5G11511   1.566   0.304   9.702  0.4585 -0.4759  1.5653
  111OSM    C6F11512   1.650   0.495   9.641 -0.2960 -0.0848 -0.2308
  111OSM    H6F11513   1.755   0.472   9.615  0.7476 -0.2264  3.5335
  111OSM    H6G11514   1.653   0.595   9.690 -2.5763 -0.6531  1.2773
  111OSM    C7F11515   1.556   0.506   9.519 -0.4276  0.3264 -0.0329
  111OSM    H7F11516   1.582   0.604   9.473  0.3102  0.6073  0.9426
  111OSM    H7G11517   1.451   0.515   9.554 -0.9088 -2.0616 -0.7307
  111OSM    C8F11518   1.567   0.389   9.417  0.4313 -0.0876  0.3898
  111OSM    H8F11519   1.470   0.403   9.364 -0.4711 -0.7508  1.7990
  111OSM    H8G11520   1.543   0.297   9.473  1.0298  0.6211  1.8599
  111OSM    C9F11521   1.690   0.388   9.331  0.8187 -0.4510  0.4775
  111OSM    H9F11522   1.788   0.402   9.378  1.4611  0.8038 -1.1787
  111OSM   C10F11523   1.696   0.384   9.197 -0.1889 -0.0675  0.0945
  111OSM   H10F11524   1.791   0.400   9.143 -0.8177 -0.1260 -1.0796
  111OSM   C11F11525   1.573   0.367   9.104  0.6836 -0.4036 -0.3733
  111OSM   H11F11526   1.476   0.333   9.146  2.2111 -2.3492  1.9430
  111OSM   H11G11527   1.600   0.288   9.031  4.9182  0.7624 -0.3356
  111OSM   C12F11528   1.548   0.497   9.024  0.2180  0.4905 -0.0047
  111OSM   H12F11529   1.527   0.588   9.084 -0.2716  0.7750 -0.6018
  111OSM   H12G11530   1.462   0.474   8.958  0.9238 -1.9737 -0.1776
  111OSM   C13F11531   1.663   0.535   8.927 -0.0463 -0.1660  0.4185
  111OSM   H13F11532   1.688   0.444   8.869  1.5401 -0.8586  2.0882
  111OSM   H13G11533   1.754   0.575   8.976 -0.5778  1.9100 -0.1786
  111OSM   C14F11534   1.623   0.646   8.825  0.4439 -0.4497  0.4263
  111OSM   H14F11535   1.565   0.725   8.876 -0.9958 -0.1329 -1.5693
  111OSM   H14G11536   1.543   0.596   8.766 -0.1779 -0.5030  1.2962
  111OSM   C15F11537   1.730   0.684   8.730 -0.0248 -0.1345  0.0448
  111OSM   H15F11538   1.818   0.621   8.755 -1.2509 -2.3674 -0.9466
  111OSM   H15G11539   1.765   0.787   8.748  1.3184 -0.1311 -2.2206
  111OSM   C16F11540   1.688   0.674   8.578 -0.0756  0.5764 -0.0322
  111OSM   H16F11541   1.600   0.741   8.567  0.9278  1.7910 -0.9831
  111OSM   H16G11542   1.671   0.566   8.555  1.2350  0.0159  1.4718
  111OSM   C17F11543   1.805   0.717   8.486  0.0022 -0.7941  0.4774
  111OSM   H17F11544   1.800   0.828   8.483 -0.2983 -0.8113  0.2176
  111OSM   H17G11545   1.783   0.677   8.385 -0.2863  2.2760 -0.7903
  111OSM   C18F11546   1.946   0.682   8.519 -0.2196  0.4869 -0.4692
  111OSM   H18F11547   2.012   0.720   8.438  1.8570  0.8572  1.3020
  111OSM   H18G11548   1.968   0.575   8.536 -1.8130  0.3912  1.3289
  111OSM   H18H11549   1.973   0.730   8.616  0.4535 -1.2264  0.2315
  112OSM      N11550   6.834   5.971  11.085  0.3157 -0.1135 -0.4898
  112OSM    C1511551   6.929   6.078  11.106 -0.4045  0.9958 -0.7980
  112OSM   H15A11552   6.951   6.087  11.211  1.2594  1.3925 -1.1557
  112OSM   H15B11553   6.887   6.170  11.068  0.2384  2.0468  0.9358
  112OSM   H15C11554   7.020   6.055  11.053 -0.4787 -2.5780  0.3992
  112OSM    C1411555   6.898   5.845  11.143  0.0713 -0.4759 -0.0182
  112OSM   H14A11556   6.824   5.778  11.186 -0.6045 -1.0961 -2.0159
  112OSM   H14B11557   6.980   5.865  11.209  1.2801 -0.3176 -1.5249
  112OSM   H14C11558   6.938   5.786  11.062 -1.1833  1.3042 -2.0524
  112OSM    C1311559   6.722   5.996  11.180 -0.8230  0.1159  0.2418
  112OSM   H13A11560   6.750   5.996  11.284 -0.9536 -1.0119  0.2908
  112OSM   H13B11561   6.645   5.920  11.178 -0.2013 -0.5160 -0.3523
  112OSM   H13C11562   6.682   6.094  11.160 -1.0933 -0.6506 -3.6119
  112OSM    C1211563   6.783   5.953  10.942 -0.1030  0.9904  0.4352
  112OSM   H12A11564   6.725   6.041  10.921 -1.5721  0.5318  2.2843
  112OSM   H12B11565   6.717   5.868  10.934  2.3551 -0.9821 -0.1936
  112OSM    C1111566   6.895   5.949  10.830  0.4914  0.0641  0.4317
  112OSM   H11A11567   6.838   5.937  10.735 -1.7467  0.3926  1.6630
  112OSM   H11B11568   6.956   5.856  10.840  3.0209  1.4357 -1.1370
  112OSM      P11569   7.138   6.046  10.805 -0.1894 -0.0244 -0.3187
  112OSM    O1311570   7.212   6.168  10.796 -0.4707  0.2745  0.3785
  112OSM    O1411571   7.201   5.944  10.896  1.1859  0.1467 -0.1871
  112OSM    O1111572   7.141   5.987  10.655 -0.5415 -0.2972  0.3418
  112OSM    O1211573   6.983   6.061  10.837 -0.1880 -0.3998  0.6132
  112OSM    C1S11574   7.081   6.067  10.548  0.5920  0.5469 -0.8933
  112OSM    H1S11575   7.122   6.170  10.550 -0.3132  0.9283 -1.3463
  112OSM    H1T11576   6.972   6.088  10.551  0.7412  1.3618 -1.0310
  112OSM     NF11577   7.084   6.101  10.299  0.4147 -0.0556 -0.2933
  112OSM    HNF11578   6.993   6.095  10.260  0.9356 -1.2349 -1.3901
  112OSM    C2S11579   7.120   6.013  10.406  0.7368  0.2870 -1.0829
  112OSM    H2S11580   7.229   5.996  10.413  0.4772 -0.7906  1.0920
  112OSM    C3S11581   7.047   5.875  10.388 -0.4320 -0.5553  0.0778
  112OSM    H3S11582   6.939   5.901  10.393 -0.5890 -1.1908  0.1262
  112OSM     O311583   7.066   5.785  10.494  0.2738  0.6682 -0.3408
  112OSM    HO311584   7.097   5.834  10.571  0.8318 -0.3889  0.1208
  112OSM    C4S11585   7.077   5.810  10.257 -0.7831  0.0503 -0.2516
  112OSM    H4S11586   7.014   5.861  10.182 -0.5294  0.9268  0.1153
  112OSM    C5S11587   7.179   5.726  10.229 -0.1995  0.1770 -0.3842
  112OSM    H5S11588   7.258   5.710  10.304 -1.8108 -1.7439  1.0497
  112OSM    C6S11589   7.207   5.665  10.095  0.0567 -0.0185  0.0162
  112OSM    H6S11590   7.243   5.561  10.109 -2.3566 -0.5262  3.6224
  112OSM    H6T11591   7.286   5.728  10.047 -2.1153  2.2107 -0.8399
  112OSM    C7S11592   7.089   5.662   9.994 -0.3178  0.2942  0.4868
  112OSM    H7S11593   7.002   5.624  10.051 -1.6757  1.2896 -0.8503
  112OSM    H7T11594   7.113   5.592   9.911  0.3377 -0.7600  1.5313
  112OSM    C8S11595   7.040   5.798   9.936  0.1811  0.8079 -0.5650
  112OSM    H8S11596   7.064   5.894   9.987  0.0899  0.4306  0.2041
  112OSM    H8T11597   6.929   5.793   9.937  0.2157 -1.5986  1.3016
  112OSM    C9S11598   7.088   5.825   9.796  0.2800 -0.2063 -0.0729
  112OSM    H9S11599   7.015   5.904   9.767  0.4062 -0.6223 -1.6346
  112OSM    H9T11600   7.093   5.727   9.745  5.0075 -1.7368  2.6579
  112OSM   C10S11601   7.219   5.902   9.770 -0.0162  0.0081 -0.9597
  112OSM   H10S11602   7.304   5.849   9.819 -2.1925 -3.0262 -0.2048
  112OSM   H10T11603   7.223   6.008   9.805  2.3695 -1.1049  2.7484
  112OSM   C11S11604   7.242   5.898   9.615 -0.8809 -0.4983  0.9241
  112OSM   H11S11605   7.236   5.793   9.579  1.8174 -0.1972 -0.6696
  112OSM   H11T11606   7.349   5.927   9.602 -1.0195  0.3846  1.6545
  112OSM   C12S11607   7.152   5.996   9.539 -0.1532 -0.1853  0.2269
  112OSM   H12S11608   7.172   6.102   9.566  0.9554 -0.8156  2.0088
  112OSM   H12T11609   7.044   5.974   9.553 -0.2329 -0.9501 -1.3149
  112OSM   C13S11610   7.183   5.995   9.395 -0.1994  0.0884  0.9343
  112OSM   H13S11611   7.157   5.897   9.348  1.0954 -0.9184  2.1993
  112OSM   H13T11612   7.290   5.995   9.367 -0.7300 -0.0265 -1.2538
  112OSM   C14S11613   7.125   6.111   9.313 -0.4457  0.1829  0.2068
  112OSM   H14S11614   7.185   6.200   9.339  0.3131 -0.3584  0.3464
  112OSM   H14T11615   7.020   6.131   9.342 -0.0680  3.2594 -0.2501
  112OSM   C15S11616   7.145   6.087   9.161  1.0101 -0.0638 -0.3357
  112OSM   H15S11617   7.116   5.981   9.143  0.3508  0.1084 -0.3279
  112OSM   H15T11618   7.251   6.113   9.142  1.0669  0.4598  0.6532
  112OSM   C16S11619   7.052   6.180   9.083  0.1229 -0.0435 -0.4342
  112OSM   H16S11620   7.049   6.278   9.135  2.0577 -0.0054 -0.3431
  112OSM   H16T11621   6.950   6.135   9.091  0.0924 -0.1703 -1.4117
  112OSM   C17S11622   7.081   6.196   8.936 -0.2439  0.4574 -0.2301
  112OSM   H17S11623   7.125   6.100   8.903 -0.8539  0.4587 -1.0997
  112OSM   H17T11624   7.156   6.278   8.930 -1.3435  1.5833  0.8027
  112OSM   C18S11625   6.959   6.231   8.847  0.5175 -0.6450 -1.0574
  112OSM   H18S11626   6.993   6.289   8.758  0.8377 -0.7126 -0.9800
  112OSM   H18T11627   6.902   6.308   8.903  0.1942  0.3209 -2.6469
  112OSM   H18U11628   6.887   6.153   8.818 -2.4946  1.3878  0.4615
  112OSM    C1F11629   7.151   6.213  10.277 -0.1881 -0.0460 -0.2697
  112OSM     OF11630   7.233   6.247  10.363  0.4673  0.1238  0.0138
  112OSM    C2F11631   7.125   6.289  10.153 -0.0811 -0.3608  0.1518
  112OSM    H2F11632   7.124   6.399  10.172 -1.0551 -0.4123  0.4615
  112OSM    H2G11633   7.020   6.260  10.131 -0.1272 -0.1302  0.0681
  112OSM    C3F11634   7.217   6.257  10.034  0.4592 -0.3045  0.9933
  112OSM    H3F11635   7.170   6.280   9.936 -0.0200 -4.5566  0.0287
  112OSM    H3G11636   7.225   6.148  10.014 -0.2999 -0.0600 -0.8323
  112OSM    C4F11637   7.354   6.316  10.037  0.1407  0.0909  0.6191
  112OSM    H4F11638   7.400   6.281  10.132  0.7967  2.9188  1.4571
  112OSM    H4G11639   7.355   6.427  10.026 -0.0172  0.1092  0.7868
  112OSM    C5F11640   7.456   6.256   9.933  0.1979 -0.6846  0.1825
  112OSM    H5F11641   7.463   6.147   9.952 -2.2089 -1.0252 -0.5472
  112OSM    H5G11642   7.559   6.295   9.945 -0.0516 -0.2099  0.8545
  112OSM    C6F11643   7.404   6.276   9.789  0.0258  0.3380  0.3803
  112OSM    H6F11644   7.381   6.381   9.760 -0.2931  0.6610  1.7663
  112OSM    H6G11645   7.308   6.226   9.767  0.7497 -0.3478 -1.4752
  112OSM    C7F11646   7.496   6.206   9.685  0.6218 -1.0087  0.4307
  112OSM    H7F11647   7.441   6.184   9.591 -2.0411  3.0180  0.8231
  112OSM    H7G11648   7.529   6.107   9.724  0.5351 -1.7176 -1.2114
  112OSM    C8F11649   7.621   6.298   9.648  0.7287 -0.1145 -0.5482
  112OSM    H8F11650   7.691   6.233   9.591  1.2152  0.5768 -0.7537
  112OSM    H8G11651   7.672   6.325   9.743 -1.1984 -0.0081  0.5066
  112OSM    C9F11652   7.575   6.417   9.574 -0.1148 -0.1588  0.5824
  112OSM    H9F11653   7.527   6.500   9.628 -3.3770 -1.3302 -0.2953
  112OSM   C10F11654   7.584   6.430   9.438 -0.6152 -0.7536  0.1655
  112OSM   H10F11655   7.545   6.521   9.391  1.2189  0.1816  0.3793
  112OSM   C11F11656   7.642   6.328   9.347  0.4134 -0.3332 -0.3096
  112OSM   H11F11657   7.707   6.259   9.404  2.6989  1.9399  0.0161
  112OSM   H11G11658   7.718   6.373   9.280  0.1014  0.5790 -0.0623
  112OSM   C12F11659   7.541   6.247   9.266  0.5748  0.0925 -0.5848
  112OSM   H12F11660   7.463   6.203   9.332 -0.7786  2.4137 -0.5432
  112OSM   H12G11661   7.609   6.165   9.236 -0.0218 -0.6728  0.0974
  112OSM   C13F11662   7.480   6.314   9.140 -0.7399  0.0194  0.1107
  112OSM   H13F11663   7.429   6.407   9.175  1.6485  0.6832  2.1530
  112OSM   H13G11664   7.404   6.241   9.106 -0.5845 -0.9371  1.6836
  112OSM   C14F11665   7.588   6.326   9.034  0.3780 -0.0655 -0.2898
  112OSM   H14F11666   7.662   6.243   9.040  1.1900  0.6429 -0.3954
  112OSM   H14G11667   7.636   6.421   9.067 -2.4887  1.1978  0.5189
  112OSM   C15F11668   7.528   6.337   8.901  0.2973  0.7080 -0.2448
  112OSM   H15F11669   7.592   6.403   8.840  0.5311  0.5182 -0.2079
  112OSM   H15G11670   7.428   6.383   8.890 -0.6216 -1.0049  0.4554
  112OSM   C16F11671   7.532   6.209   8.823  0.1803  0.8354  0.1726
  112OSM   H16F11672   7.468   6.128   8.864  1.2014  0.2218  0.5939
  112OSM   H16G11673   7.640   6.180   8.821  0.2773  1.2327 -1.3279
  112OSM   C17F11674   7.489   6.233   8.678  0.1444  0.5518 -0.4098
  112OSM   H17F11675   7.559   6.292   8.615 -1.2161  1.3225 -1.2430
  112OSM   H17G11676   7.392   6.287   8.677  0.1081  0.7221  2.8134
  112OSM   C18F11677   7.459   6.095   8.610 -0.1376  0.4496 -0.4885
  112OSM   H18F11678   7.551   6.033   8.602  1.5095  2.3045  2.2925
  112OSM   H18G11679   7.424   6.121   8.508  1.4850  2.3123 -0.6256
  112OSM   H18H11680   7.385   6.026   8.657  0.7401  1.2307  2.2244
  113OSM      N11681   1.455   4.271  11.158 -0.1001  0.8038  0.1276
  113OSM    C1511682   1.533   4.189  11.252 -0.7171  0.4465 -0.1592
  113OSM   H15A11683   1.610   4.238  11.310 -0.7354  0.3110 -0.0202
  113OSM   H15B11684   1.578   4.106  11.201 -0.9727  0.7632 -0.9030
  113OSM   H15C11685   1.473   4.134  11.323 -0.2658 -0.2397 -0.2998
  113OSM    C1411686   1.327   4.195  11.139 -0.0781 -0.4162 -0.1641
  113OSM   H14A11687   1.266   4.178  11.227 -0.1639 -1.3488 -0.3923
  113OSM   H14B11688   1.352   4.098  11.099  1.0754 -1.0104  1.8626
  113OSM   H14C11689   1.258   4.237  11.067 -0.2156  1.3972  0.9398
  113OSM    C1311690   1.442   4.401  11.223  0.5253 -0.0677  0.7320
  113OSM   H13A11691   1.404   4.386  11.322  2.7765 -1.5018  1.4610
  113OSM   H13B11692   1.383   4.471  11.166  2.1207  0.4389 -0.4019
  113OSM   H13C11693   1.538   4.448  11.239 -0.0123  2.0654 -1.5572
  113OSM    C1211694   1.540   4.280  11.031  0.0885 -1.2321 -0.1466
  113OSM   H12A11695   1.578   4.183  11.003 -1.0054 -1.1453 -2.1791
  113OSM   H12B11696   1.628   4.334  11.061 -0.6349  0.4538 -0.9016
  113OSM    C1111697   1.486   4.349  10.905  0.0920  0.0125 -0.0595
  113OSM   H11A11698   1.378   4.324  10.901  0.6049 -4.5126  4.0836
  113OSM   H11B11699   1.537   4.320  10.811  1.3448 -1.5286  1.0318
  113OSM      P11700   1.437   4.599  10.861  0.4941 -0.0918  0.3330
  113OSM    O1311701   1.289   4.579  10.876 -0.0488 -0.2943 -0.1777
  113OSM    O1411702   1.486   4.729  10.914 -0.0506 -0.3462 -0.4071
  113OSM    O1111703   1.462   4.590  10.704  0.4286 -0.1230 -0.2113
  113OSM    O1211704   1.509   4.481  10.928 -0.3965 -0.3478 -0.0121
  113OSM    C1S11705   1.597   4.606  10.655 -0.4508  0.2710 -0.0562
  113OSM    H1S11706   1.649   4.509  10.674 -1.3600 -0.5977 -1.7739
  113OSM    H1T11707   1.660   4.688  10.696 -1.0796  1.3137 -1.1422
  113OSM     NF11708   1.739   4.619  10.441  0.3137  0.1609  0.1514
  113OSM    HNF11709   1.779   4.708  10.423  2.3409 -0.3853  1.6316
  113OSM    C2S11710   1.599   4.615  10.499 -0.3398  0.6871 -0.5108
  113OSM    H2S11711   1.556   4.523  10.451 -1.2821  1.4332 -1.1456
  113OSM    C3S11712   1.528   4.739  10.447 -0.2558  0.2277 -0.2930
  113OSM    H3S11713   1.589   4.829  10.470  0.7762 -0.5369  0.0227
  113OSM     O311714   1.404   4.758  10.507  0.2456 -0.3636 -0.6315
  113OSM    HO311715   1.398   4.678  10.560 -1.0344  0.9205  1.3024
  113OSM    C4S11716   1.507   4.722  10.301 -0.4455  0.1643 -0.0985
  113OSM    H4S11717   1.554   4.807  10.249  0.4133  0.0980  0.5545
  113OSM    C5S11718   1.417   4.647  10.233  0.4621  0.3252 -0.1472
  113OSM    H5S11719   1.342   4.594  10.292  1.1194 -1.1953 -0.6186
  113OSM    C6S11720   1.410   4.636  10.084 -0.1677 -0.2258  0.2421
  113OSM    H6S11721   1.310   4.673  10.053  0.1067 -0.3594 -0.8462
  113OSM    H6T11722   1.411   4.530  10.051 -3.0600 -0.3018  0.1609
  113OSM    C7S11723   1.516   4.712   9.995  0.1978  1.3580  1.2993
  113OSM    H7S11724   1.619   4.701  10.037  1.1065  4.3699  0.1211
  113OSM    H7T11725   1.511   4.822  10.008  1.2304  1.4012  1.3926
  113OSM    C8S11726   1.507   4.677   9.852 -0.7102  0.0831 -0.3797
  113OSM    H8S11727   1.519   4.570   9.829  1.1950 -0.0604  1.0263
  113OSM    H8T11728   1.601   4.717   9.809 -1.4984  2.2580 -0.2554
  113OSM    C9S11729   1.387   4.735   9.777  0.2098  0.5174 -0.0619
  113OSM    H9S11730   1.361   4.829   9.832 -1.0114 -0.3864  0.9982
  113OSM    H9T11731   1.303   4.667   9.803 -1.3189  2.2615 -0.1769
  113OSM   C10S11732   1.398   4.753   9.627  0.2156  0.6384  0.2091
  113OSM   H10S11733   1.433   4.653   9.592  0.1561  0.6971 -0.0213
  113OSM   H10T11734   1.471   4.835   9.611 -0.8436  2.0471  2.2281
  113OSM   C11S11735   1.261   4.785   9.572 -0.5321 -0.0159  0.8776
  113OSM   H11S11736   1.230   4.882   9.617 -1.4812 -0.1611  0.5419
  113OSM   H11T11737   1.183   4.710   9.597 -0.0877 -0.9949 -0.5558
  113OSM   C12S11738   1.266   4.813   9.418  0.5091 -0.5879  0.2887
  113OSM   H12S11739   1.336   4.740   9.373  0.4126 -0.2992 -0.3444
  113OSM   H12T11740   1.307   4.916   9.404 -3.9994  1.5583  1.0742
  113OSM   C13S11741   1.130   4.806   9.349  0.2535 -0.0341  0.1360
  113OSM   H13S11742   1.078   4.902   9.366 -1.2792 -0.8947  0.5097
  113OSM   H13T11743   1.066   4.730   9.400 -0.0582 -0.1646 -0.4371
  113OSM   C14S11744   1.147   4.787   9.202  0.3204 -0.4654  0.4195
  113OSM   H14S11745   1.210   4.697   9.184  0.9274  0.4141 -2.3847
  113OSM   H14T11746   1.196   4.876   9.156 -3.4304  1.5917 -0.0596
  113OSM   C15S11747   1.015   4.754   9.138 -0.4805 -0.4640 -0.4297
  113OSM   H15S11748   0.936   4.824   9.175 -1.0505 -1.4368  0.2556
  113OSM   H15T11749   0.993   4.650   9.170 -1.2068 -0.1874  0.0248
  113OSM   C16S11750   1.015   4.756   8.981 -0.2635 -0.0376 -0.5641
  113OSM   H16S11751   1.039   4.858   8.945 -0.7805  0.8719  1.4723
  113OSM   H16T11752   0.909   4.737   8.953 -0.3614 -0.3293 -0.0224
  113OSM   C17S11753   1.121   4.667   8.929  0.6551  0.7212 -0.2542
  113OSM   H17S11754   1.105   4.569   8.978 -1.3541  1.2714  0.3363
  113OSM   H17T11755   1.224   4.703   8.951  0.5822  1.2492 -0.7428
  113OSM   C18S11756   1.110   4.639   8.781 -0.6322 -0.2134 -0.3594
  113OSM   H18S11757   1.178   4.555   8.756  0.9958  1.1589 -0.7211
  113OSM   H18T11758   1.141   4.731   8.726  0.1407  0.0916  0.5541
  113OSM   H18U11759   1.004   4.611   8.760 -1.1932  1.4650  0.0363
  113OSM    C1F11760   1.815   4.510  10.438 -0.4058  0.1262  0.2191
  113OSM     OF11761   1.767   4.399  10.452  0.6545 -0.6903  0.3102
  113OSM    C2F11762   1.964   4.529  10.434 -0.2710  0.3106 -0.1255
  113OSM    H2F11763   2.010   4.449  10.494  1.9667  2.2040  0.8297
  113OSM    H2G11764   1.989   4.625  10.484 -0.5169 -0.4816  1.6117
  113OSM    C3F11765   2.010   4.549  10.286 -0.6175  0.2257 -0.1961
  113OSM    H3F11766   1.968   4.641  10.239 -1.6162 -0.5496 -0.8862
  113OSM    H3G11767   1.970   4.469  10.220 -0.0849 -0.5170  0.3701
  113OSM    C4F11768   2.162   4.544  10.257 -0.3074 -0.4522  0.4959
  113OSM    H4F11769   2.214   4.458  10.304  1.2364 -1.6130 -3.0266
  113OSM    H4G11770   2.216   4.637  10.286  2.0641 -1.5452 -0.1741
  113OSM    C5F11771   2.180   4.551  10.103  0.0934  0.0051 -0.0502
  113OSM    H5F11772   2.132   4.646  10.071 -1.0170 -0.3981  0.4013
  113OSM    H5G11773   2.117   4.470  10.061 -2.7996  1.8160  0.5575
  113OSM    C6F11774   2.320   4.535  10.052 -0.0018 -0.1682 -0.0537
  113OSM    H6F11775   2.361   4.438  10.085  0.3830 -0.1518 -0.4776
  113OSM    H6G11776   2.383   4.609  10.106  0.3454 -1.1953  0.9707
  113OSM    C7F11777   2.347   4.557   9.901 -0.4977  0.4028  0.9211
  113OSM    H7F11778   2.456   4.542   9.888 -0.5398  0.4131  0.5281
  113OSM    H7G11779   2.334   4.660   9.861 -1.1979 -0.5129 -1.4219
  113OSM    C8F11780   2.269   4.470   9.803  0.1770 -0.0430  0.7203
  113OSM    H8F11781   2.186   4.529   9.757  1.3260  0.5962 -0.6133
  113OSM    H8G11782   2.218   4.385   9.853  0.8985 -1.1094 -0.3115
  113OSM    C9F11783   2.355   4.418   9.697 -0.0966  0.2586  1.0937
  113OSM    H9F11784   2.430   4.341   9.721  2.1587  2.0145  0.0246
  113OSM   C10F11785   2.358   4.469   9.568  1.0366  0.1300  0.1636
  113OSM   H10F11786   2.435   4.441   9.494 -0.9156  0.6572 -2.2134
  113OSM   C11F11787   2.260   4.577   9.515 -0.1663 -0.1261  0.0930
  113OSM   H11F11788   2.192   4.624   9.590  0.7821 -0.9763  1.5515
  113OSM   H11G11789   2.196   4.536   9.434 -2.1915  0.8958  1.1017
  113OSM   C12F11790   2.346   4.697   9.462  0.4482 -0.2009  1.0248
  113OSM   H12F11791   2.388   4.680   9.361  1.4648 -0.1412  1.4277
  113OSM   H12G11792   2.434   4.718   9.525 -0.1000  0.9253  1.4370
  113OSM   C13F11793   2.266   4.828   9.443  0.0618  0.0783 -0.1898
  113OSM   H13F11794   2.343   4.906   9.459  1.5990 -1.7135  1.6928
  113OSM   H13G11795   2.190   4.834   9.524  1.1351 -1.1839  0.9426
  113OSM   C14F11796   2.189   4.847   9.307 -0.1418  1.0126 -0.5341
  113OSM   H14F11797   2.135   4.752   9.286  2.6666 -0.5648 -1.2493
  113OSM   H14G11798   2.257   4.850   9.219 -0.8765 -0.7700 -1.2106
  113OSM   C15F11799   2.084   4.961   9.317  0.1845  0.2892  0.5005
  113OSM   H15F11800   2.000   4.937   9.386  0.6467  2.2123  1.8011
  113OSM   H15G11801   2.041   4.979   9.216 -2.0858 -3.4024  0.6002
  113OSM   C16F11802   2.139   5.087   9.373  0.0975 -1.1840  0.3809
  113OSM   H16F11803   2.131   5.159   9.289  0.7903  0.4443  1.6702
  113OSM   H16G11804   2.250   5.083   9.385  0.2473 -1.3129 -0.8461
  113OSM   C17F11805   2.068   5.145   9.499  0.5740  0.3590  0.0383
  113OSM   H17F11806   2.085   5.074   9.583 -1.9460 -3.8208 -2.6305
  113OSM   H17G11807   1.959   5.138   9.479  0.4087  0.4494  0.8697
  113OSM   C18F11808   2.082   5.290   9.529  0.3544  0.3509  0.1683
  113OSM   H18F11809   1.993   5.333   9.578  0.3923 -1.1513  1.6112
  113OSM   H18G11810   2.085   5.340   9.429 -2.3703  1.1450  0.4016
  113OSM   H18H11811   2.174   5.316   9.585  1.1982 -1.0814 -0.4927
  114OSM      N11812   2.615   3.662  11.365 -0.2626 -0.4511  0.4484
  114OSM    C1511813   2.750   3.605  11.402 -0.5423 -0.6454 -0.3061
  114OSM   H15A11814   2.735   3.525  11.473  0.0373 -0.1223  0.4181
  114OSM   H15B11815   2.806   3.668  11.470 -0.3340 -0.3095 -0.7799
  114OSM   H15C11816   2.815   3.582  11.319 -0.3847 -1.1222 -0.0481
  114OSM    C1411817   2.531   3.561  11.296 -0.5852  0.2535  0.2495
  114OSM   H14A11818   2.438   3.603  11.263  0.7384  2.1638 -1.2298
  114OSM   H14B11819   2.520   3.474  11.359 -0.8086  0.8400  1.0382
  114OSM   H14C11820   2.588   3.531  11.210 -1.5420  0.1363 -0.3610
  114OSM    C1311821   2.542   3.705  11.487  0.7930  0.2250  0.0578
  114OSM   H13A11822   2.461   3.774  11.472  0.5943 -0.0168  0.0097
  114OSM   H13B11823   2.604   3.730  11.572 -1.5279 -2.0808  2.6029
  114OSM   H13C11824   2.496   3.614  11.522  0.8017  0.1367 -0.1586
  114OSM    C1211825   2.633   3.782  11.270  0.6924 -0.4747 -0.7475
  114OSM   H12A11826   2.676   3.869  11.317  1.1809  0.1601 -2.2946
  114OSM   H12B11827   2.531   3.810  11.247  0.1676  0.2911  2.1593
  114OSM    C1111828   2.720   3.745  11.147  0.7195 -0.4048 -0.5321
  114OSM   H11A11829   2.689   3.812  11.064  1.1523 -0.7695 -1.0016
  114OSM   H11B11830   2.697   3.643  11.109 -0.6723 -0.2812 -0.0791
  114OSM      P11831   2.927   3.897  11.201  0.0930  0.1271 -0.2110
  114OSM    O1311832   2.864   3.962  11.316  0.3170  0.2855 -0.5689
  114OSM    O1411833   3.078   3.885  11.211  0.8563 -0.1730  0.3059
  114OSM    O1111834   2.882   3.969  11.071  0.0822 -0.0700 -0.4479
  114OSM    O1211835   2.861   3.751  11.178  0.2942 -0.1571 -0.0651
  114OSM    C1S11836   2.914   3.922  10.945 -0.6819  0.8911 -1.0386
  114OSM    H1S11837   2.878   3.817  10.935  1.8396 -0.0881 -0.5312
  114OSM    H1T11838   3.023   3.925  10.924  0.2029  2.4613  2.8659
  114OSM     NF11839   2.857   3.927  10.712 -0.4626 -0.1252 -0.3237
  114OSM    HNF11840   2.909   3.964  10.635 -3.6189 -0.0736 -2.6488
  114OSM    C2S11841   2.851   4.001  10.833  0.1757 -1.1155  0.3630
  114OSM    H2S11842   2.743   4.019  10.850 -0.4767 -1.0615 -3.0448
  114OSM    C3S11843   2.927   4.141  10.824  0.1179 -0.2710 -0.1746
  114OSM    H3S11844   3.030   4.118  10.789 -0.1919 -0.2319 -1.1366
  114OSM     O311845   2.936   4.205  10.958 -0.6207  0.5811  0.2066
  114OSM    HO311846   2.910   4.132  11.015 -1.0839  1.7889  1.6262
  114OSM    C4S11847   2.860   4.226  10.721 -0.8285  0.0357  0.1232
  114OSM    H4S11848   2.767   4.268  10.762 -0.2977  0.9198  0.4280
  114OSM    C5S11849   2.913   4.294  10.612 -0.3799  0.2750  0.0306
  114OSM    H5S11850   3.021   4.288  10.591 -0.4872 -0.5795 -0.3448
  114OSM    C6S11851   2.830   4.379  10.521 -0.3259  0.1783  0.0966
  114OSM    H6S11852   2.882   4.366  10.424 -1.9677 -0.6075 -0.7198
  114OSM    H6T11853   2.843   4.486  10.548  2.6287  0.4770 -2.0493
  114OSM    C7S11854   2.680   4.346  10.489 -0.2245 -0.2265 -0.3625
  114OSM    H7S11855   2.631   4.360  10.588  0.6469  2.7732 -0.2553
  114OSM    H7T11856   2.666   4.238  10.467  0.7561 -0.5314  0.4247
  114OSM    C8S11857   2.622   4.446  10.386 -0.3974 -0.4345  0.1016
  114OSM    H8S11858   2.641   4.546  10.431  2.4002 -0.7378 -0.2099
  114OSM    H8T11859   2.516   4.415  10.372 -1.6326  1.9176  3.1938
  114OSM    C9S11860   2.688   4.438  10.256 -0.7864 -0.5148 -0.3334
  114OSM    H9S11861   2.793   4.472  10.272 -0.9052 -0.7159  0.9274
  114OSM    H9T11862   2.638   4.510  10.187 -1.8226 -0.9200 -0.0261
  114OSM   C10S11863   2.698   4.304  10.189  0.3593  0.3973  0.2633
  114OSM   H10S11864   2.606   4.250  10.219  1.6562 -2.1744 -0.0140
  114OSM   H10T11865   2.784   4.248  10.232  0.1608 -0.9128 -0.9573
  114OSM   C11S11866   2.706   4.318  10.035 -0.1495 -0.2572  0.0060
  114OSM   H11S11867   2.624   4.387  10.007  0.3676  1.7107  2.9474
  114OSM   H11T11868   2.682   4.214  10.005  0.2163  0.1106 -1.6727
  114OSM   C12S11869   2.830   4.371   9.978 -1.0145 -0.5375 -0.7946
  114OSM   H12S11870   2.912   4.307  10.018 -2.1557 -1.7369 -0.2932
  114OSM   H12T11871   2.845   4.474  10.016 -2.9560  0.0810 -1.5745
  114OSM   C13S11872   2.856   4.376   9.827  1.1709 -0.9294  0.1067
  114OSM   H13S11873   2.791   4.298   9.782  2.7941 -3.3513  1.7107
  114OSM   H13T11874   2.964   4.372   9.802  1.1212  0.1417 -0.3240
  114OSM   C14S11875   2.807   4.514   9.776 -0.7581 -0.2781  0.5755
  114OSM   H14S11876   2.874   4.589   9.824  0.6198  0.3382 -2.0845
  114OSM   H14T11877   2.702   4.535   9.803 -0.4554  2.3887 -0.0479
  114OSM   C15S11878   2.817   4.525   9.623 -0.7780 -0.3479  0.7052
  114OSM   H15S11879   2.748   4.444   9.589 -0.7789  0.3779 -1.1390
  114OSM   H15T11880   2.918   4.494   9.588 -0.7024 -2.1236  2.3651
  114OSM   C16S11881   2.783   4.653   9.554  0.2878 -1.1502  0.6246
  114OSM   H16S11882   2.829   4.736   9.613 -2.2394  1.4047 -0.7810
  114OSM   H16T11883   2.674   4.666   9.572  0.1989 -1.2476  0.1513
  114OSM   C17S11884   2.816   4.662   9.406  0.3118  0.3515  0.4200
  114OSM   H17S11885   2.749   4.597   9.346 -1.5207  0.7701  1.9295
  114OSM   H17T11886   2.923   4.637   9.393  0.3165  1.2078 -1.5182
  114OSM   C18S11887   2.808   4.806   9.357 -0.9251  0.6979  0.1515
  114OSM   H18S11888   2.860   4.819   9.260 -0.1517  0.0542  0.4708
  114OSM   H18T11889   2.869   4.869   9.426 -3.0531  2.3287  0.6578
  114OSM   H18U11890   2.713   4.863   9.349  0.9830  4.1782  0.2098
  114OSM    C1F11891   2.779   3.820  10.686 -0.2389 -0.6283  0.1793
  114OSM     OF11892   2.699   3.773  10.762 -0.1472 -0.5239 -0.0622
  114OSM    C2F11893   2.780   3.776  10.537 -0.3426  0.2336 -0.3161
  114OSM    H2F11894   2.676   3.750  10.509 -0.3406 -0.2462  0.1112
  114OSM    H2G11895   2.839   3.684  10.516 -1.3843 -0.0882 -1.9733
  114OSM    C3F11896   2.833   3.886  10.445  0.2767  0.6828 -0.6688
  114OSM    H3F11897   2.943   3.878  10.452  0.4456  0.6612 -2.6897
  114OSM    H3G11898   2.802   3.992  10.456 -0.1269  0.4686  0.3185
  114OSM    C4F11899   2.796   3.852  10.292 -0.2147  0.2098 -0.1434
  114OSM    H4F11900   2.686   3.860  10.279 -0.7234  1.7003  3.6307
  114OSM    H4G11901   2.815   3.746  10.263 -0.8794  0.3527 -1.1432
  114OSM    C5F11902   2.867   3.950  10.195 -0.2593  0.0841  0.0586
  114OSM    H5F11903   2.976   3.930  10.199 -0.4482 -0.8180  1.2146
  114OSM    H5G11904   2.861   4.061  10.209 -0.5936  0.1495 -0.5775
  114OSM    C6F11905   2.821   3.940  10.050 -0.5460  0.1367  0.2823
  114OSM    H6F11906   2.747   4.020  10.026 -2.3940 -1.2794  1.0139
  114OSM    H6G11907   2.766   3.845  10.036  0.3163 -0.7512  2.5493
  114OSM    C7F11908   2.926   3.958   9.934 -0.2292  0.5485 -0.1124
  114OSM    H7F11909   3.002   3.878   9.946 -0.7615 -0.1639 -1.3048
  114OSM    H7G11910   2.978   4.056   9.935  0.4428  0.2174 -0.9993
  114OSM    C8F11911   2.870   3.933   9.793 -0.8546 -0.4155 -0.0392
  114OSM    H8F11912   2.812   4.026   9.774  0.6806 -0.1258 -4.3849
  114OSM    H8G11913   2.805   3.844   9.800 -0.3984 -0.6092  2.9561
  114OSM    C9F11914   2.983   3.925   9.691 -0.0014  0.7137  0.5149
  114OSM    H9F11915   3.078   3.875   9.715  2.2355  3.0011 -2.7143
  114OSM   C10F11916   2.987   3.988   9.571 -0.3492 -0.3783 -0.3556
  114OSM   H10F11917   3.074   3.972   9.506 -0.7654  0.9317 -1.2702
  114OSM   C11F11918   2.873   4.074   9.514 -0.9241 -0.3719  0.2795
  114OSM   H11F11919   2.789   4.066   9.587 -2.7468 -1.6957 -1.8340
  114OSM   H11G11920   2.825   4.036   9.422  1.5815 -3.0328 -0.0803
  114OSM   C12F11921   2.911   4.219   9.491  0.5713  0.0094 -0.9204
  114OSM   H12F11922   2.966   4.262   9.577  0.4351  0.1333 -0.8945
  114OSM   H12G11923   2.820   4.281   9.480 -0.1091  0.4140  4.4703
  114OSM   C13F11924   2.986   4.232   9.356  0.2917  0.1300  0.7496
  114OSM   H13F11925   2.991   4.137   9.300 -1.3282  0.3924  0.0967
  114OSM   H13G11926   3.090   4.252   9.391  0.6027 -2.4712  1.4601
  114OSM   C14F11927   2.948   4.352   9.273 -0.9501 -0.1460  1.0281
  114OSM   H14F11928   2.971   4.440   9.337  1.2224 -1.5950  2.3694
  114OSM   H14G11929   2.840   4.343   9.248 -1.0357 -0.0531  1.3664
  114OSM   C15F11930   3.021   4.367   9.139 -0.3012 -0.7295  0.0656
  114OSM   H15F11931   3.018   4.273   9.079 -0.1823 -0.3365 -0.5578
  114OSM   H15G11932   3.130   4.375   9.156 -0.0913 -0.6824 -1.2230
  114OSM   C16F11933   2.974   4.482   9.042  0.0731  0.4919 -0.1070
  114OSM   H16F11934   2.988   4.589   9.070  2.2038  0.2895 -0.2420
  114OSM   H16G11935   2.864   4.473   9.038  0.2433 -2.7066  0.0801
  114OSM   C17F11936   3.037   4.460   8.904 -0.1130 -0.9101 -0.2120
  114OSM   H17F11937   3.023   4.355   8.872 -0.0480 -2.2636  3.6274
  114OSM   H17G11938   3.145   4.486   8.908 -0.6037  1.1999  1.1556
  114OSM   C18F11939   2.974   4.564   8.811 -0.4779  0.2956 -0.5314
  114OSM   H18F11940   3.017   4.549   8.710  0.0610 -1.3853 -0.0906
  114OSM   H18G11941   2.991   4.666   8.852  1.3599 -0.7070  1.3712
  114OSM   H18H11942   2.865   4.544   8.805 -1.0734  1.5572  3.3340
  115OSM      N11943   3.712   0.857   6.297  0.2258  0.1181  0.0582
  115OSM    C1511944   3.846   0.892   6.229 -0.7149  0.1840 -0.1636
  115OSM   H15A11945   3.840   0.919   6.124  1.4429 -1.5454 -0.8041
  115OSM   H15B11946   3.916   0.810   6.236  0.8592  1.4666 -0.1412
  115OSM   H15C11947   3.889   0.965   6.296 -1.1167 -0.3591  0.6980
  115OSM    C1411948   3.649   0.748   6.216 -0.9622 -0.5225 -0.0688
  115OSM   H14A11949   3.614   0.772   6.117 -1.8201 -1.2684  0.0381
  115OSM   H14B11950   3.561   0.715   6.269 -0.9796 -1.1783 -0.4960
  115OSM   H14C11951   3.728   0.676   6.202 -0.5706  0.1999 -1.7692
  115OSM    C1311952   3.747   0.814   6.434  0.1595  0.7975 -0.1225
  115OSM   H13A11953   3.799   0.885   6.496 -0.4182 -0.0054  1.3499
  115OSM   H13B11954   3.811   0.727   6.441  1.7333  1.9252 -0.1013
  115OSM   H13C11955   3.666   0.780   6.498 -0.2264 -0.2525 -1.1491
  115OSM    C1211956   3.622   0.981   6.286 -0.3269  0.1895  0.3446
  115OSM   H12A11957   3.616   1.015   6.183 -2.4004  1.6939  0.8925
  115OSM   H12B11958   3.674   1.062   6.335 -0.2582  0.0622  0.4829
  115OSM    C1111959   3.478   0.968   6.343  0.0910 -0.8235  0.2150
  115OSM   H11A11960   3.429   1.067   6.338  2.0458  0.1623 -0.1201
  115OSM   H11B11961   3.490   0.946   6.452 -1.0886  1.5142  0.8878
  115OSM      P11962   3.300   0.872   6.185  0.2825  0.0604 -0.2722
  115OSM    O1311963   3.353   0.955   6.071  0.2246 -0.7354 -0.0820
  115OSM    O1411964   3.246   0.736   6.146  0.1271  0.1116 -0.1233
  115OSM    O1111965   3.188   0.952   6.262 -0.6215  0.3155  0.1526
  115OSM    O1211966   3.416   0.856   6.283  0.7351 -0.3067 -0.4481
  115OSM    C1S11967   3.103   0.870   6.349 -0.3455  0.0944  0.1819
  115OSM    H1S11968   3.140   0.766   6.357  1.3980  0.6938  0.3566
  115OSM    H1T11969   2.996   0.869   6.319 -0.7991  1.1958  1.6350
  115OSM     NF11970   3.011   0.817   6.575 -0.2902  1.2204 -0.5213
  115OSM    HNF11971   2.920   0.848   6.605  0.2897  0.4108  2.4635
  115OSM    C2S11972   3.103   0.908   6.500  0.5107 -0.4300  0.3259
  115OSM    H2S11973   3.208   0.904   6.535  0.7085 -0.3690 -0.2473
  115OSM    C3S11974   3.062   1.056   6.512 -0.1642 -0.0419 -0.5324
  115OSM    H3S11975   2.965   1.079   6.461  0.1019  0.5467 -0.7785
  115OSM     O311976   3.142   1.148   6.432 -0.1494  0.5159 -0.3760
  115OSM    HO311977   3.199   1.097   6.374  0.1634 -1.2117  1.3603
  115OSM    C4S11978   3.056   1.105   6.655  1.3258 -0.7541 -0.1778
  115OSM    H4S11979   2.961   1.087   6.708  0.9351  1.0975 -0.1795
  115OSM    C5S11980   3.150   1.168   6.724 -0.3737  0.7696  0.0622
  115OSM    H5S11981   3.250   1.173   6.679 -0.7410 -0.4076 -0.9294
  115OSM    C6S11982   3.146   1.206   6.867  0.2312 -0.6715 -0.3059
  115OSM    H6S11983   3.096   1.305   6.869 -1.4268 -1.4860 -0.6020
  115OSM    H6T11984   3.244   1.233   6.914 -0.5094  0.6029  0.5736
  115OSM    C7S11985   3.061   1.126   6.962  0.4441  0.2946  0.1933
  115OSM    H7S11986   3.104   1.023   6.967 -0.2530  0.0490  2.0284
  115OSM    H7T11987   2.960   1.124   6.916 -0.0334 -0.0559  1.2155
  115OSM    C8S11988   3.050   1.188   7.104  0.3572  0.5316 -0.2050
  115OSM    H8S11989   2.990   1.281   7.106 -1.0215 -0.2902  2.1951
  115OSM    H8T11990   3.146   1.191   7.161 -0.4699 -1.3088  1.4307
  115OSM    C9S11991   2.954   1.108   7.205 -0.0082 -0.0238 -0.4220
  115OSM    H9S11992   2.995   1.006   7.220 -3.1756 -1.4058 -0.3492
  115OSM    H9T11993   2.849   1.100   7.171 -0.2313 -0.1747  0.2912
  115OSM   C10S11994   2.958   1.179   7.339 -0.0858 -0.4189  0.4122
  115OSM   H10S11995   2.900   1.273   7.326 -0.4394 -0.6328  0.4250
  115OSM   H10T11996   3.064   1.211   7.349  0.0038 -0.1958 -1.0503
  115OSM   C11S11997   2.917   1.085   7.453 -0.4696  0.5999  0.7504
  115OSM   H11S11998   2.959   0.983   7.439 -2.6441 -0.1166 -1.2026
  115OSM   H11T11999   2.806   1.083   7.460 -0.4639  1.5689  1.2426
  115OSM   C12S12000   2.965   1.135   7.592 -0.0617  0.2752 -0.1457
  115OSM   H12S12001   2.895   1.210   7.635  0.5696  0.2956  0.8787
  115OSM   H12T12002   3.065   1.182   7.589  0.1139  0.2147  2.3109
  115OSM   C13S12003   2.970   1.015   7.687  0.1480 -0.0379 -0.2321
  115OSM   H13S12004   2.996   0.922   7.632  0.3130 -1.5426  2.2806
  115OSM   H13T12005   2.872   0.996   7.734  1.0055 -3.8076  0.3924
  115OSM   C14S12006   3.067   1.035   7.809 -0.0712  0.8742 -0.1943
  115OSM   H14S12007   3.043   1.136   7.847 -0.8841 -0.1473  2.2166
  115OSM   H14T12008   3.174   1.036   7.778 -0.4846  1.6451 -1.6922
  115OSM   C15S12009   3.055   0.933   7.926  0.1019 -0.8430  0.5162
  115OSM   H15S12010   3.132   0.854   7.915  0.1866 -0.7573  0.4969
  115OSM   H15T12011   2.959   0.878   7.915 -1.0054  0.9527  0.7985
  115OSM   C16S12012   3.048   1.003   8.066 -0.0938  0.0667  0.2238
  115OSM   H16S12013   2.958   1.065   8.052  0.6651  0.9875 -0.7621
  115OSM   H16T12014   3.137   1.068   8.082 -1.3336  1.5191  1.4261
  115OSM   C17S12015   3.040   0.913   8.188  0.2704  0.5093  0.3950
  115OSM   H17S12016   2.960   0.838   8.170  1.7527 -0.5690 -2.1225
  115OSM   H17T12017   3.014   0.977   8.275 -0.4892 -1.3899  1.6266
  115OSM   C18S12018   3.172   0.827   8.210  0.2055 -0.1923  0.0199
  115OSM   H18S12019   3.171   0.772   8.306  2.5684 -0.1243  0.1307
  115OSM   H18T12020   3.262   0.891   8.213  0.9739 -1.0703 -2.2787
  115OSM   H18U12021   3.186   0.765   8.119 -0.2043  0.6438 -0.6300
  115OSM    C1F12022   3.045   0.691   6.583 -0.4016  1.0334  0.4647
  115OSM     OF12023   3.163   0.664   6.559 -0.5790 -0.3870  0.4937
  115OSM    C2F12024   2.935   0.582   6.616 -0.4359 -0.1377 -0.1857
  115OSM    H2F12025   2.941   0.500   6.542  1.4920  0.3574 -0.6077
  115OSM    H2G12026   2.838   0.636   6.630 -0.1292  0.5130 -0.5551
  115OSM    C3F12027   2.989   0.522   6.746 -0.1145 -0.3731  0.4030
  115OSM    H3F12028   3.091   0.477   6.742 -0.8249 -2.0494  0.3605
  115OSM    H3G12029   2.913   0.447   6.778 -0.1954 -1.3524 -1.8709
  115OSM    C4F12030   3.007   0.623   6.861 -0.3287  0.4393  0.0040
  115OSM    H4F12031   2.914   0.683   6.873 -0.1740  0.1846  3.5583
  115OSM    H4G12032   3.088   0.690   6.827  0.4835 -0.4595  0.1217
  115OSM    C5F12033   3.055   0.561   6.992 -0.3583  0.2600  0.3071
  115OSM    H5F12034   3.162   0.533   6.990 -0.3768 -0.0693  1.9264
  115OSM    H5G12035   2.990   0.472   7.006 -1.0849  0.2260 -2.6556
  115OSM    C6F12036   3.048   0.672   7.098  0.1030 -0.8834  0.1546
  115OSM    H6F12037   2.943   0.706   7.109  0.5598  0.8193 -0.4794
  115OSM    H6G12038   3.098   0.759   7.052  0.1236 -0.9180  0.1116
  115OSM    C7F12039   3.106   0.627   7.230  0.2813 -0.1590 -0.2077
  115OSM    H7F12040   3.216   0.629   7.214  0.2204  1.1049 -0.5329
  115OSM    H7G12041   3.083   0.526   7.270  1.2717 -0.0421  0.6881
  115OSM    C8F12042   3.088   0.722   7.353 -0.5283  0.4029  0.3131
  115OSM    H8F12043   3.075   0.827   7.320 -1.4815 -0.0536 -0.8504
  115OSM    H8G12044   3.181   0.709   7.412  0.0243  0.5727 -0.5080
  115OSM    C9F12045   2.962   0.678   7.434 -0.3447  0.0199 -0.0565
  115OSM    H9F12046   2.873   0.691   7.371 -0.4291 -0.1911  0.0166
  115OSM   C10F12047   2.962   0.641   7.561  0.4463  0.2644 -0.6068
  115OSM   H10F12048   2.869   0.615   7.613  0.6963  3.2229  1.6153
  115OSM   C11F12049   3.082   0.624   7.644 -0.2953  1.0478 -0.2627
  115OSM   H11F12050   3.050   0.667   7.742  0.9572  0.4443  0.4357
  115OSM   H11G12051   3.170   0.685   7.614 -0.8947  1.9092 -0.3115
  115OSM   C12F12052   3.122   0.479   7.672 -0.5781  0.0718 -0.0674
  115OSM   H12F12053   3.127   0.416   7.580  2.5247  1.0498 -0.7245
  115OSM   H12G12054   3.035   0.441   7.729 -1.2918  2.9613  0.8889
  115OSM   C13F12055   3.250   0.481   7.758  0.6890  0.3937 -0.3279
  115OSM   H13F12056   3.233   0.547   7.846 -1.9301 -1.2387  0.5026
  115OSM   H13G12057   3.341   0.505   7.699  0.4610 -0.4816 -1.0528
  115OSM   C14F12058   3.301   0.344   7.812 -0.4053 -0.0394 -0.0526
  115OSM   H14F12059   3.310   0.286   7.717  0.8562 -0.0497  0.0524
  115OSM   H14G12060   3.225   0.287   7.870  0.0459 -0.4370  0.1514
  115OSM   C15F12061   3.441   0.349   7.874 -0.9749  0.2434 -0.1270
  115OSM   H15F12062   3.445   0.426   7.954  1.0307 -1.1930  1.2553
  115OSM   H15G12063   3.502   0.400   7.796 -0.3900  0.8777  0.7317
  115OSM   C16F12064   3.512   0.213   7.900  0.1150  0.7976 -0.3706
  115OSM   H16F12065   3.509   0.154   7.806 -3.3817 -0.4072  0.3498
  115OSM   H16G12066   3.459   0.160   7.982  0.0497 -0.1541 -1.0181
  115OSM   C17F12067   3.658   0.245   7.924 -0.4455 -0.3507  0.7239
  115OSM   H17F12068   3.672   0.321   8.004  2.0599 -0.9488  0.9510
  115OSM   H17G12069   3.703   0.279   7.829  1.9345 -3.8727  0.3845
  115OSM   C18F12070   3.745   0.131   7.988  0.0509  0.3053 -0.1178
  115OSM   H18F12071   3.853   0.159   7.988 -0.0652  0.9710  2.2228
  115OSM   H18G12072   3.727   0.036   7.932 -0.1125  0.8763 -1.0666
  115OSM   H18H12073   3.709   0.111   8.091 -0.3164 -0.0526 -0.3162
  116OSM      N12074   5.822   6.723   5.830 -0.1773 -0.3534 -0.1673
  116OSM    C1512075   5.830   6.778   5.688 -0.6708 -0.7997 -0.2911
  116OSM   H15A12076   5.734   6.781   5.639 -0.3124  0.4411 -0.9595
  116OSM   H15B12077   5.901   6.728   5.623 -0.4919  0.9217 -1.4797
  116OSM   H15C12078   5.853   6.883   5.684  0.5667 -1.0858 -1.9992
  116OSM    C1412079   5.767   6.583   5.802 -0.4260  1.0712 -0.1001
  116OSM   H14A12080   5.763   6.522   5.892  0.5551  0.8186 -0.2126
  116OSM   H14B12081   5.844   6.537   5.742 -0.4486 -0.3809  0.9341
  116OSM   H14C12082   5.686   6.578   5.731  1.3055  2.9771 -2.3533
  116OSM    C1312083   5.959   6.720   5.890  0.0033 -0.1050 -0.8869
  116OSM   H13A12084   5.999   6.821   5.895  1.1743 -0.5771 -0.2778
  116OSM   H13B12085   6.024   6.672   5.818  1.1780 -0.6236  0.4881
  116OSM   H13C12086   5.954   6.667   5.983 -0.8727 -0.4788 -1.1355
  116OSM    C1212087   5.720   6.798   5.912  0.3291 -0.2414  0.4696
  116OSM   H12A12088   5.629   6.808   5.855 -0.2606  1.4155  1.6017
  116OSM   H12B12089   5.751   6.901   5.905  1.2105 -0.6020 -1.6437
  116OSM    C1112090   5.692   6.755   6.054  0.7964 -0.4208  0.1993
  116OSM   H11A12091   5.646   6.846   6.099  2.1104 -0.2017  1.1673
  116OSM   H11B12092   5.783   6.729   6.112 -0.5482  0.2564  2.7897
  116OSM      P12093   5.449   6.656   6.075 -0.1072 -0.3612  0.3391
  116OSM    O1312094   5.412   6.777   6.001 -0.3617 -0.0367 -0.7816
  116OSM    O1412095   5.399   6.522   6.028 -0.3976 -0.4986  0.7064
  116OSM    O1112096   5.428   6.663   6.226 -0.2002 -0.2460 -0.2796
  116OSM    O1212097   5.604   6.641   6.061  0.5124  0.4518 -0.0008
  116OSM    C1S12098   5.520   6.594   6.320 -0.4238  0.1916 -0.1430
  116OSM    H1S12099   5.604   6.654   6.362 -2.4076  1.3326  2.4969
  116OSM    H1T12100   5.560   6.498   6.279  1.8724 -1.0506  4.3537
  116OSM     NF12101   5.566   6.452   6.513  0.6020 -0.6532  0.2188
  116OSM    HNF12102   5.556   6.353   6.519  0.2114 -0.7250 -1.2190
  116OSM    C2S12103   5.466   6.539   6.453 -0.6743 -0.6923  0.1745
  116OSM    H2S12104   5.454   6.625   6.523  1.5834 -0.7368  0.6889
  116OSM    C3S12105   5.328   6.467   6.429  0.0796  0.6047 -0.7023
  116OSM    H3S12106   5.348   6.381   6.361 -1.5091 -2.7183  2.6781
  116OSM     O312107   5.227   6.546   6.362 -0.2813 -1.2678  0.3244
  116OSM    HO312108   5.283   6.610   6.317 -0.1908 -1.2692  0.4343
  116OSM    C4S12109   5.290   6.410   6.570 -0.1479  0.3369 -0.1035
  116OSM    H4S12110   5.336   6.314   6.596 -0.6604  0.0859 -0.1241
  116OSM    C5S12111   5.211   6.467   6.664  0.7095  0.0944  0.0914
  116OSM    H5S12112   5.168   6.568   6.654 -0.5101 -0.2065  1.8820
  116OSM    C6S12113   5.184   6.421   6.806 -0.0354  0.2350  0.1204
  116OSM    H6S12114   5.230   6.321   6.824  0.3234  0.7037  1.9324
  116OSM    H6T12115   5.078   6.430   6.837  0.2219  0.9684  0.8185
  116OSM    C7S12116   5.269   6.488   6.915  1.0340  0.2753  0.3337
  116OSM    H7S12117   5.227   6.591   6.925 -0.1735 -0.2740  1.1381
  116OSM    H7T12118   5.375   6.497   6.885  1.5485 -0.1253  1.9180
  116OSM    C8S12119   5.266   6.427   7.061  0.3219  0.1400 -0.4004
  116OSM    H8S12120   5.310   6.325   7.063  0.2506  0.0942  2.2978
  116OSM    H8T12121   5.162   6.426   7.101  0.5193 -0.6668  0.1228
  116OSM    C9S12122   5.362   6.499   7.164  0.7455 -0.0389 -1.1037
  116OSM    H9S12123   5.315   6.597   7.186  1.4191  0.2974 -1.1403
  116OSM    H9T12124   5.466   6.511   7.129  1.6185  1.0907  1.5924
  116OSM   C10S12125   5.381   6.438   7.303  0.3983  0.4940  0.0252
  116OSM   H10S12126   5.433   6.342   7.282 -1.5296 -0.4678 -0.6232
  116OSM   H10T12127   5.277   6.417   7.336  0.4621  1.0431  0.5804
  116OSM   C11S12128   5.461   6.517   7.412 -0.4015  0.7202  0.1661
  116OSM   H11S12129   5.419   6.615   7.442 -0.3736  0.5264  0.8687
  116OSM   H11T12130   5.559   6.549   7.372 -0.0818  0.8841  1.0525
  116OSM   C12S12131   5.475   6.433   7.541  0.2757 -0.7413 -0.2798
  116OSM   H12S12132   5.540   6.344   7.532 -0.2502 -1.1149 -0.4278
  116OSM   H12T12133   5.371   6.401   7.563 -0.7016  1.8817 -0.6754
  116OSM   C13S12134   5.532   6.518   7.659 -0.3012 -0.0034  0.3237
  116OSM   H13S12135   5.478   6.615   7.660  0.9972  0.7219  1.0264
  116OSM   H13T12136   5.637   6.543   7.634  0.5041 -1.8680  1.6088
  116OSM   C14S12137   5.526   6.436   7.788 -0.2697  0.4056  0.0738
  116OSM   H14S12138   5.609   6.363   7.782  0.4711  1.2462 -0.2119
  116OSM   H14T12139   5.430   6.381   7.786 -0.9132  1.4377 -2.7450
  116OSM   C15S12140   5.529   6.517   7.917 -0.1200  0.1296 -0.0641
  116OSM   H15S12141   5.523   6.439   7.996  0.0257 -0.0177 -0.1952
  116OSM   H15T12142   5.442   6.585   7.919  0.1579  0.4922 -0.3049
  116OSM   C16S12143   5.660   6.591   7.938 -0.7943 -0.7119  0.1536
  116OSM   H16S12144   5.654   6.670   7.861  0.0361 -1.2771 -0.5069
  116OSM   H16T12145   5.754   6.535   7.918  0.2140  0.5862  1.0968
  116OSM   C17S12146   5.684   6.669   8.069  0.1149  1.0652  0.2673
  116OSM   H17S12147   5.584   6.710   8.096  0.4940  2.4058 -0.2565
  116OSM   H17T12148   5.757   6.751   8.049  2.2135 -0.9462 -0.7658
  116OSM   C18S12149   5.743   6.583   8.182 -0.1433  0.1009 -0.3405
  116OSM   H18S12150   5.687   6.490   8.205 -0.1205  0.8538  3.3703
  116OSM   H18T12151   5.730   6.638   8.278 -1.4774 -0.8263  0.0436
  116OSM   H18U12152   5.850   6.560   8.165 -0.7245 -2.6715 -0.6921
  116OSM    C1F12153   5.684   6.495   6.569  0.3443 -0.3034  0.5559
  116OSM     OF12154   5.730   6.604   6.557  0.1265 -0.5549  0.1923
  116OSM    C2F12155   5.757   6.396   6.640  0.1163  0.3732 -0.4918
  116OSM    H2F12156   5.750   6.303   6.579  1.9340  0.0482 -0.2672
  116OSM    H2G12157   5.708   6.376   6.738 -0.8944  0.4699 -0.9596
  116OSM    C3F12158   5.906   6.434   6.664 -0.1610  0.4486  0.3409
  116OSM    H3F12159   5.899   6.489   6.760 -1.4092  3.5336 -1.3699
  116OSM    H3G12160   5.951   6.492   6.581  0.8976 -1.6758 -0.6737
  116OSM    C4F12161   6.005   6.316   6.674  0.4967 -0.2897  0.2981
  116OSM    H4F12162   6.111   6.351   6.670  0.2837  0.4937  1.0212
  116OSM    H4G12163   5.994   6.257   6.581 -0.8960 -1.7124  1.3269
  116OSM    C5F12164   5.979   6.222   6.792  0.0849  0.6762  0.1569
  116OSM    H5F12165   6.064   6.150   6.800  0.2494  0.8074 -0.3238
  116OSM    H5G12166   5.884   6.173   6.762  0.0102  0.0001  1.4354
  116OSM    C6F12167   5.967   6.292   6.933 -0.2706  0.3847  0.1550
  116OSM    H6F12168   5.889   6.371   6.931 -0.5682  0.1175  0.8761
  116OSM    H6G12169   6.069   6.328   6.961  0.2179  0.4179 -1.5694
  116OSM    C7F12170   5.934   6.178   7.031 -0.4295  0.2764  0.5800
  116OSM    H7F12171   6.002   6.093   7.009  0.2921  0.7643  0.8907
  116OSM    H7G12172   5.834   6.145   6.998  0.1197  1.6362 -2.8622
  116OSM    C8F12173   5.939   6.213   7.182  0.3098  0.1789  0.1330
  116OSM    H8F12174   6.047   6.223   7.206  0.3627  2.0509 -0.7700
  116OSM    H8G12175   5.905   6.124   7.239  0.8325  0.7440  1.3602
  116OSM    C9F12176   5.873   6.342   7.217 -0.2849 -0.4042  0.4280
  116OSM    H9F12177   5.867   6.416   7.135 -3.1187 -0.0997  0.8026
  116OSM   C10F12178   5.836   6.385   7.340  0.4858  0.3396 -0.0960
  116OSM   H10F12179   5.810   6.492   7.340 -0.5620  0.1052 -0.5552
  116OSM   C11F12180   5.838   6.308   7.473  0.0289 -0.0299 -0.4829
  116OSM   H11F12181   5.789   6.209   7.467  1.5981 -0.8670 -0.1479
  116OSM   H11G12182   5.778   6.365   7.547  1.8708  0.9266  0.3333
  116OSM   C12F12183   5.980   6.291   7.532  0.0382  0.0857  0.9965
  116OSM   H12F12184   6.028   6.386   7.564  3.2602 -0.4235 -1.8163
  116OSM   H12G12185   6.045   6.260   7.448 -0.5662  0.5821  0.3301
  116OSM   C13F12186   5.978   6.184   7.643 -0.6068  0.2528 -0.3577
  116OSM   H13F12187   6.083   6.148   7.648  1.2581  4.9903 -0.4852
  116OSM   H13G12188   5.915   6.095   7.624  1.9574 -1.7437 -0.0594
  116OSM   C14F12189   5.942   6.239   7.782 -0.3026 -0.2899  0.3011
  116OSM   H14F12190   5.840   6.282   7.778 -1.4632 -2.9352 -0.3246
  116OSM   H14G12191   6.013   6.323   7.799 -1.4718  0.8552 -0.2350
  116OSM   C15F12192   5.935   6.123   7.878 -0.1168  0.2209  0.1498
  116OSM   H15F12193   6.043   6.097   7.892  0.4714  0.2683 -3.3447
  116OSM   H15G12194   5.882   6.035   7.837  2.7161 -1.1450 -0.9151
  116OSM   C16F12195   5.908   6.164   8.024 -0.0218  0.7220  0.5331
  116OSM   H16F12196   5.958   6.256   8.060 -1.3990  1.3825  0.8279
  116OSM   H16G12197   5.949   6.078   8.081  1.1980  0.8208 -0.1718
  116OSM   C17F12198   5.759   6.175   8.057 -0.3635  0.4299 -0.1858
  116OSM   H17F12199   5.707   6.086   8.015 -2.2489  2.0086 -1.3455
  116OSM   H17G12200   5.728   6.263   7.997  2.2406  0.5836 -1.4362
  116OSM   C18F12201   5.724   6.183   8.204 -0.3397  0.4957 -0.6971
  116OSM   H18F12202   5.616   6.166   8.218 -0.1984 -0.5881 -0.8389
  116OSM   H18G12203   5.762   6.278   8.248 -1.1092  0.0825  0.9609
  116OSM   H18H12204   5.766   6.095   8.257 -0.6813  0.6389 -0.1811
  117OSM      N12205   1.073   1.469   6.065  0.5415  0.2297 -0.6535
  117OSM    C1512206   1.095   1.608   6.014 -0.2419 -0.3696 -0.4887
  117OSM   H15A12207   1.194   1.628   5.975 -0.0443  3.1899  1.4015
  117OSM   H15B12208   1.098   1.683   6.092  2.5886 -1.1491  0.2737
  117OSM   H15C12209   1.018   1.644   5.947  0.5752  1.1921 -0.6432
  117OSM    C1412210   1.191   1.420   6.159 -0.4095 -0.1633  0.8119
  117OSM   H14A12211   1.284   1.402   6.106 -0.9450  1.4618 -0.7883
  117OSM   H14B12212   1.157   1.326   6.200 -1.9144  0.6581  1.5314
  117OSM   H14C12213   1.217   1.481   6.244  2.1181  0.3917 -0.2521
  117OSM    C1312214   0.945   1.489   6.142  0.1824  0.2094 -0.0478
  117OSM   H13A12215   0.871   1.498   6.064  0.5540 -2.0274 -0.7332
  117OSM   H13B12216   0.949   1.575   6.207  1.3715  0.4469 -0.4262
  117OSM   H13C12217   0.918   1.398   6.194 -1.0332  1.3033  1.3153
  117OSM    C1212218   1.054   1.367   5.961 -0.1321  0.4067  0.4233
  117OSM   H12A12219   1.137   1.373   5.893  0.3840 -0.6670  0.9322
  117OSM   H12B12220   0.970   1.391   5.897 -0.4196 -1.0916  0.2047
  117OSM    C1112221   1.035   1.218   5.999  0.4864 -0.2623  0.0957
  117OSM   H11A12222   1.110   1.173   6.068 -0.3004 -1.3142  0.2807
  117OSM   H11B12223   1.045   1.153   5.910 -0.0054  0.5751 -0.5848
  117OSM      P12224   0.879   1.074   6.155  0.3980  0.0072 -0.3556
  117OSM    O1312225   0.734   1.062   6.179 -0.1455 -0.6625  0.1542
  117OSM    O1412226   0.954   0.963   6.104 -0.0374 -0.1629  0.2475
  117OSM    O1112227   0.954   1.108   6.288 -0.4049  0.1260  0.3201
  117OSM    O1212228   0.903   1.197   6.058 -0.0812  0.9489 -0.7727
  117OSM    C1S12229   0.892   1.142   6.414  0.3799 -0.5069 -0.3208
  117OSM    H1S12230   0.801   1.080   6.425 -0.8728  0.9371 -1.9102
  117OSM    H1T12231   0.867   1.250   6.417  1.2389 -0.2380  4.0148
  117OSM     NF12232   0.912   1.122   6.654 -0.1782 -0.3482  0.0134
  117OSM    HNF12233   0.936   1.197   6.716 -1.5589 -2.1408  2.9353
  117OSM    C2S12234   0.984   1.109   6.532 -0.6012 -0.3058  0.7104
  117OSM    H2S12235   1.016   1.003   6.524  1.3026  0.2231  0.8924
  117OSM    C3S12236   1.105   1.203   6.519 -0.4313 -0.0729 -0.5950
  117OSM    H3S12237   1.063   1.305   6.531 -0.1248 -0.0990  0.8199
  117OSM     O312238   1.172   1.193   6.396 -0.1316 -0.2639  0.5214
  117OSM    HO312239   1.100   1.158   6.343 -1.9128 -1.4590  3.4372
  117OSM    C4S12240   1.200   1.189   6.636  0.6793  0.1366 -0.6772
  117OSM    H4S12241   1.182   1.270   6.709  3.0231  1.1217 -1.1029
  117OSM    C5S12242   1.310   1.106   6.648  0.5236 -0.0017 -0.3072
  117OSM    H5S12243   1.333   1.029   6.572 -1.0686 -0.8288 -0.0138
  117OSM    C6S12244   1.391   1.110   6.778  0.6778 -0.5549  0.0943
  117OSM    H6S12245   1.483   1.170   6.761 -0.5763  0.9835 -1.6141
  117OSM    H6T12246   1.415   1.005   6.805  0.6684 -0.3420  0.9596
  117OSM    C7S12247   1.327   1.169   6.902  0.1270  0.1383 -0.6052
  117OSM    H7S12248   1.230   1.119   6.925 -0.2177  1.5534  1.3595
  117OSM    H7T12249   1.290   1.273   6.887 -1.5059 -0.1847  0.8272
  117OSM    C8S12250   1.414   1.176   7.027  0.1117 -0.2520  0.6233
  117OSM    H8S12251   1.478   1.265   7.009 -1.3259  0.8103  0.6087
  117OSM    H8T12252   1.480   1.086   7.025 -2.2590 -2.1159  0.5959
  117OSM    C9S12253   1.347   1.193   7.160  0.3216 -0.1826 -0.1995
  117OSM    H9S12254   1.411   1.227   7.245 -2.5212 -0.0730  2.0470
  117OSM    H9T12255   1.313   1.089   7.179 -0.1221 -0.3328 -1.7402
  117OSM   C10S12256   1.228   1.288   7.157  0.6739  0.1258  0.0923
  117OSM   H10S12257   1.163   1.238   7.082 -0.4679  1.7514 -0.0469
  117OSM   H10T12258   1.251   1.389   7.116 -1.2552  0.9402  0.8835
  117OSM   C11S12259   1.143   1.302   7.285  0.8084  0.9572  0.2963
  117OSM   H11S12260   1.083   1.209   7.290  1.2125  0.6631 -0.2608
  117OSM   H11T12261   1.064   1.380   7.285 -0.2017  0.0580  2.6771
  117OSM   C12S12262   1.224   1.296   7.416 -0.4218  0.0825  0.0069
  117OSM   H12S12263   1.287   1.388   7.424  1.0980 -0.8641 -0.6417
  117OSM   H12T12264   1.290   1.207   7.408 -1.5701 -0.7453 -0.4295
  117OSM   C13S12265   1.124   1.271   7.532 -0.7207 -0.2872  0.0384
  117OSM   H13S12266   1.185   1.260   7.625  1.0588  0.6868 -0.9518
  117OSM   H13T12267   1.068   1.176   7.528  2.1472 -2.0589 -1.9662
  117OSM   C14S12268   1.038   1.403   7.551 -0.3907 -0.1990  0.3775
  117OSM   H14S12269   0.949   1.395   7.485  0.9956  0.9055 -1.7539
  117OSM   H14T12270   1.101   1.494   7.535 -0.1346 -0.6371 -1.2487
  117OSM   C15S12271   0.992   1.410   7.704  0.3426  0.2405  0.0824
  117OSM   H15S12272   1.066   1.375   7.778  1.3737 -2.1642 -1.9257
  117OSM   H15T12273   0.903   1.344   7.711  0.1054  0.1932 -2.3078
  117OSM   C16S12274   0.946   1.555   7.732  0.1557 -0.2811 -0.2892
  117OSM   H16S12275   0.861   1.587   7.668  0.0714  0.6821  0.2772
  117OSM   H16T12276   1.034   1.620   7.716 -1.6246  2.1076 -0.9423
  117OSM   C17S12277   0.898   1.574   7.880  0.3054  0.9346 -0.3285
  117OSM   H17S12278   0.971   1.519   7.944 -0.3178  0.8949  0.3536
  117OSM   H17T12279   0.794   1.539   7.889  0.1862  1.1569 -0.8034
  117OSM   C18S12280   0.903   1.720   7.921  0.1621 -0.2026  0.5090
  117OSM   H18S12281   0.866   1.744   8.023 -2.1551  0.1022 -0.3572
  117OSM   H18T12282   0.845   1.781   7.849  1.1466 -1.1888 -1.1554
  117OSM   H18U12283   1.008   1.757   7.921  0.2142 -0.2393  2.2863
  117OSM    C1F12284   0.822   1.034   6.702 -0.0791 -0.3855 -0.1903
  117OSM     OF12285   0.791   0.930   6.648 -0.0687  0.6413 -0.6343
  117OSM    C2F12286   0.746   1.079   6.822  0.2988  0.0350  0.5385
  117OSM    H2F12287   0.646   1.033   6.818 -0.4845  1.5049  2.0647
  117OSM    H2G12288   0.745   1.190   6.832  2.5109  0.3614 -1.8134
  117OSM    C3F12289   0.808   1.040   6.954 -0.6239 -0.1411 -0.1392
  117OSM    H3F12290   0.914   1.069   6.939 -0.6276  0.8343  1.5177
  117OSM    H3G12291   0.799   0.929   6.962 -1.3088 -0.0083  1.2950
  117OSM    C4F12292   0.736   1.105   7.072 -0.0540  0.0920  0.2549
  117OSM    H4F12293   0.628   1.078   7.073 -0.7893  2.7627  0.4477
  117OSM    H4G12294   0.737   1.215   7.053  1.5046  0.0678  0.0875
  117OSM    C5F12295   0.792   1.064   7.202  0.1560  0.2805 -0.3016
  117OSM    H5F12296   0.897   1.094   7.220  0.9695 -1.5789 -1.6203
  117OSM    H5G12297   0.806   0.954   7.207  1.3136  0.4521  0.5605
  117OSM    C6F12298   0.697   1.118   7.306 -0.0374  0.7380  0.0212
  117OSM    H6F12299   0.612   1.047   7.312 -0.0848  0.8089  0.1601
  117OSM    H6G12300   0.655   1.216   7.276 -1.2167  0.1829 -0.2001
  117OSM    C7F12301   0.770   1.117   7.440  0.5065  0.5502  0.0053
  117OSM    H7F12302   0.704   1.166   7.515  1.4633 -0.3205  1.4696
  117OSM    H7G12303   0.862   1.178   7.428  1.0622 -0.5539 -1.7028
  117OSM    C8F12304   0.808   0.978   7.480 -0.5078  0.9172  0.3205
  117OSM    H8F12305   0.892   0.951   7.412 -1.2308  2.6747 -1.3373
  117OSM    H8G12306   0.725   0.907   7.461 -0.9046  0.8228  2.1665
  117OSM    C9F12307   0.858   0.953   7.619  0.2865 -0.3515 -0.6190
  117OSM    H9F12308   0.965   0.963   7.643 -0.2706 -1.5252  3.1384
  117OSM   C10F12309   0.782   0.902   7.718  0.5070 -0.1066  0.8947
  117OSM   H10F12310   0.827   0.890   7.818  0.9672 -1.5632  0.5343
  117OSM   C11F12311   0.633   0.870   7.715  0.0340  0.8435  0.2641
  117OSM   H11F12312   0.606   0.780   7.656 -1.0467 -0.0667  2.0789
  117OSM   H11G12313   0.580   0.960   7.677 -1.4026  0.5123  1.3910
  117OSM   C12F12314   0.572   0.839   7.849 -0.6485 -0.4263 -0.2193
  117OSM   H12F12315   0.465   0.820   7.827 -0.4334 -1.1047 -0.7207
  117OSM   H12G12316   0.573   0.929   7.914 -0.2679 -0.1080 -0.6597
  117OSM   C13F12317   0.621   0.715   7.921  0.0877  0.4468  0.4441
  117OSM   H13F12318   0.722   0.730   7.965 -0.3379 -2.1121  2.6186
  117OSM   H13G12319   0.636   0.636   7.844 -1.9805 -1.2354  1.6488
  117OSM   C14F12320   0.526   0.666   8.024  1.1105  0.2806  0.1889
  117OSM   H14F12321   0.557   0.569   8.068 -0.4729 -1.1536 -1.7179
  117OSM   H14G12322   0.425   0.649   7.983  1.1604  2.9347 -1.2424
  117OSM   C15F12323   0.518   0.759   8.141  0.1409  0.2823  0.7694
  117OSM   H15F12324   0.492   0.865   8.117 -2.9745 -0.4515  0.4427
  117OSM   H15G12325   0.616   0.766   8.193 -0.5527  1.3799  1.9949
  117OSM   C16F12326   0.415   0.719   8.246  0.0112  0.4960 -0.5758
  117OSM   H16F12327   0.421   0.609   8.264  2.3761  0.7606  0.6580
  117OSM   H16G12328   0.319   0.745   8.198  0.6493  0.7087 -1.7660
  117OSM   C17F12329   0.451   0.781   8.380  0.1218  0.4079  0.0286
  117OSM   H17F12330   0.558   0.773   8.410 -0.7358 -0.9300  3.1656
  117OSM   H17G12331   0.419   0.886   8.367 -0.2124  0.0872 -2.2576
  117OSM   C18F12332   0.368   0.724   8.494  0.0301 -0.5450 -0.0086
  117OSM   H18F12333   0.402   0.621   8.518 -1.1442 -0.7414  0.9758
  117OSM   H18G12334   0.262   0.704   8.465 -0.1664  1.3372 -0.7128
  117OSM   H18H12335   0.378   0.790   8.583  1.3507  1.0405 -1.2814
  118OSM      N12336   4.039   0.917   5.755 -0.0219  0.3481  0.1624
  118OSM    C1512337   4.060   1.037   5.673 -0.4700  0.2993  0.1842
  118OSM   H15A12338   4.046   1.024   5.566  1.6485 -1.1745  0.0208
  118OSM   H15B12339   4.167   1.053   5.677 -0.2417 -1.2219  1.5398
  118OSM   H15C12340   4.005   1.124   5.705 -0.0771  0.7882 -0.4382
  118OSM    C1412341   3.901   0.866   5.751  0.4243  0.0657 -0.5267
  118OSM   H14A12342   3.885   0.759   5.753 -1.5671  0.3379  1.7869
  118OSM   H14B12343   3.858   0.901   5.658 -0.1560  1.1554  0.1371
  118OSM   H14C12344   3.842   0.909   5.830  1.9233  0.2462  0.5159
  118OSM    C1312345   4.129   0.806   5.715 -0.5057 -0.2802  0.2268
  118OSM   H13A12346   4.119   0.790   5.608  2.9606  1.3910 -0.4768
  118OSM   H13B12347   4.114   0.717   5.773 -1.8817  0.9875  1.9275
  118OSM   H13C12348   4.233   0.832   5.720 -1.3425  3.4687  1.1465
  118OSM    C1212349   4.057   0.949   5.902 -0.3843 -0.0806  0.1534
  118OSM   H12A12350   4.161   0.933   5.928 -0.6459 -0.0960  1.2523
  118OSM   H12B12351   4.008   0.869   5.957  0.8492 -1.2539 -0.3977
  118OSM    C1112352   4.012   1.086   5.957 -0.0278  0.5988  0.6534
  118OSM   H11A12353   4.047   1.168   5.891  1.8466 -1.5679 -1.2304
  118OSM   H11B12354   4.051   1.103   6.060 -1.3651  1.4055  1.0512
  118OSM      P12355   3.784   1.221   5.979  0.2142  0.4394  0.4363
  118OSM    O1312356   3.794   1.294   5.849 -0.0594 -0.6794 -0.1187
  118OSM    O1412357   3.645   1.191   6.025 -0.5354  0.9987 -0.4066
  118OSM    O1112358   3.868   1.299   6.086  0.1800  0.4346 -0.3786
  118OSM    O1212359   3.868   1.084   5.960 -0.2852 -0.4484  0.3140
  118OSM    C1S12360   3.849   1.306   6.219 -0.4961  0.6350 -0.0454
  118OSM    H1S12361   3.820   1.207   6.262 -1.6155  1.5152  1.3398
  118OSM    H1T12362   3.773   1.383   6.247 -0.7981  0.8229 -1.3333
  118OSM     NF12363   3.970   1.322   6.438 -0.5414  0.9873  0.4982
  118OSM    HNF12364   3.995   1.406   6.487  2.3196 -0.1350  1.1816
  118OSM    C2S12365   3.988   1.330   6.294  0.9312  0.5049  0.0203
  118OSM    H2S12366   4.061   1.251   6.268 -1.0427 -2.1955  2.0931
  118OSM    C3S12367   4.045   1.465   6.239 -0.1762  0.2094 -0.1566
  118OSM    H3S12368   3.968   1.545   6.252 -2.6489 -1.9582 -0.7615
  118OSM     O312369   4.077   1.478   6.102  0.2614 -0.0928 -0.2893
  118OSM    HO312370   4.006   1.428   6.061  0.6575 -0.5229 -0.4603
  118OSM    C4S12371   4.172   1.504   6.307 -0.4687 -0.6330  0.3280
  118OSM    H4S12372   4.255   1.433   6.298 -1.2620 -1.5551  0.0486
  118OSM    C5S12373   4.194   1.613   6.379 -0.0970  0.2386 -0.4149
  118OSM    H5S12374   4.133   1.704   6.390  1.8442  1.6975 -1.1482
  118OSM    C6S12375   4.328   1.644   6.447 -0.8130  0.3696  0.0241
  118OSM    H6S12376   4.344   1.754   6.445  0.8339  0.1908  1.4477
  118OSM    H6T12377   4.413   1.601   6.391  0.2898 -1.3252  2.8225
  118OSM    C7S12378   4.343   1.582   6.586 -0.3389 -0.1893 -0.1794
  118OSM    H7S12379   4.451   1.586   6.608 -0.3734  3.1252 -0.1333
  118OSM    H7T12380   4.307   1.477   6.580  1.1364 -0.9464  2.4319
  118OSM    C8S12381   4.258   1.648   6.699  0.5768  0.0383 -0.5922
  118OSM    H8S12382   4.152   1.633   6.670 -0.5505  2.2746  1.8724
  118OSM    H8T12383   4.267   1.759   6.692 -2.2887  0.3611 -0.2463
  118OSM    C9S12384   4.277   1.598   6.839 -0.4568  0.0837  0.3798
  118OSM    H9S12385   4.379   1.613   6.882  0.5898 -0.5248 -1.7550
  118OSM    H9T12386   4.252   1.491   6.826 -1.4432  0.5797 -2.6287
  118OSM   C10S12387   4.179   1.653   6.944 -0.5798 -0.3273  0.6975
  118OSM   H10S12388   4.075   1.651   6.904  0.6014  0.0699 -2.7887
  118OSM   H10T12389   4.211   1.759   6.954  1.9529 -1.1672  2.7867
  118OSM   C11S12390   4.200   1.596   7.086 -0.0956 -0.1588 -0.6365
  118OSM   H11S12391   4.216   1.489   7.062  0.9986 -0.2341  0.3608
  118OSM   H11T12392   4.103   1.614   7.138  0.6752 -2.0241  1.6350
  118OSM   C12S12393   4.315   1.659   7.166  0.0579 -0.1932  0.3268
  118OSM   H12S12394   4.341   1.765   7.145  1.1100 -0.1857  1.5291
  118OSM   H12T12395   4.410   1.623   7.121  1.7561  3.0787  0.9995
  118OSM   C13S12396   4.304   1.621   7.313  0.1841 -0.1219  0.4793
  118OSM   H13S12397   4.407   1.636   7.353  0.6972 -1.8157 -0.1385
  118OSM   H13T12398   4.274   1.515   7.324 -3.5371  0.9129  1.6478
  118OSM   C14S12399   4.201   1.704   7.396  0.4822 -0.1160 -0.0161
  118OSM   H14S12400   4.098   1.671   7.370 -1.9623  2.3491  5.1663
  118OSM   H14T12401   4.209   1.807   7.355  0.6943 -0.2670 -0.3564
  118OSM   C15S12402   4.218   1.691   7.551 -0.1194 -0.1971 -0.4518
  118OSM   H15S12403   4.317   1.726   7.587 -0.3968  0.1306 -0.0025
  118OSM   H15T12404   4.218   1.581   7.571  1.8096 -0.1345  0.1502
  118OSM   C16S12405   4.115   1.779   7.627  0.2057  0.1937 -0.0516
  118OSM   H16S12406   4.020   1.727   7.602  0.6805 -0.2975 -0.9110
  118OSM   H16T12407   4.109   1.885   7.594  0.9500  0.9735  2.1287
  118OSM   C17S12408   4.121   1.764   7.771  0.1819  0.1503 -0.1914
  118OSM   H17S12409   4.222   1.800   7.799  1.0718 -1.1769 -1.5561
  118OSM   H17T12410   4.116   1.656   7.799 -0.2656  0.9814  3.5433
  118OSM   C18S12411   4.018   1.840   7.851  0.4114 -0.4173  0.0001
  118OSM   H18S12412   3.918   1.793   7.838 -0.4249  0.7592  1.8023
  118OSM   H18T12413   4.010   1.935   7.794 -0.5060  0.3644  1.3899
  118OSM   H18U12414   4.028   1.848   7.961 -0.6224 -0.2299  0.0895
  118OSM    C1F12415   3.937   1.207   6.502  0.4887 -0.1824 -0.6403
  118OSM     OF12416   3.937   1.091   6.450  0.1506 -0.5347  0.0999
  118OSM    C2F12417   3.904   1.245   6.642  0.2530 -0.2835 -0.3622
  118OSM    H2F12418   3.833   1.331   6.639  2.8554  2.1729  2.4319
  118OSM    H2G12419   3.994   1.274   6.699  0.6075  1.3261 -1.6525
  118OSM    C3F12420   3.842   1.128   6.717  0.2855  0.2861  0.0634
  118OSM    H3F12421   3.862   1.152   6.823  0.5147 -3.0209  0.8702
  118OSM    H3G12422   3.889   1.029   6.699 -0.0150  0.2587 -0.6369
  118OSM    C4F12423   3.691   1.120   6.685 -0.8017  0.2526 -0.3388
  118OSM    H4F12424   3.681   1.083   6.580 -0.4282  1.2245 -0.7289
  118OSM    H4G12425   3.649   1.222   6.698 -2.5509 -0.5988  1.2504
  118OSM    C5F12426   3.624   1.018   6.782  0.0354 -0.0056  0.6944
  118OSM    H5F12427   3.649   1.058   6.882 -0.0942 -1.4719  1.3269
  118OSM    H5G12428   3.682   0.924   6.771  1.3082  0.7723  0.6219
  118OSM    C6F12429   3.481   1.014   6.759 -0.3707  0.1930  0.2552
  118OSM    H6F12430   3.471   0.975   6.656 -0.6963  0.3128  0.2398
  118OSM    H6G12431   3.427   1.112   6.760 -0.6981  0.0194 -0.2410
  118OSM    C7F12432   3.408   0.917   6.851  0.6606  0.1700  0.1220
  118OSM    H7F12433   3.413   0.816   6.806 -0.3924 -0.2137  0.8313
  118OSM    H7G12434   3.300   0.940   6.851  0.4726 -0.6588  0.7305
  118OSM    C8F12435   3.426   0.916   7.007  0.1586  0.1335 -0.0928
  118OSM    H8F12436   3.530   0.891   7.034  0.3668  0.8719 -0.1993
  118OSM    H8G12437   3.375   0.830   7.056  0.4465  0.1287  0.1941
  118OSM    C9F12438   3.415   1.059   7.065  0.0201  0.1044  0.5361
  118OSM    H9F12439   3.466   1.133   7.003 -0.7087  2.6832  2.8224
  118OSM   C10F12440   3.373   1.100   7.183 -0.4240 -0.1334  0.1145
  118OSM   H10F12441   3.390   1.206   7.205 -0.7210  0.2368 -1.3268
  118OSM   C11F12442   3.325   1.004   7.294 -0.1564 -0.0198  0.2210
  118OSM   H11F12443   3.332   0.897   7.265  1.8915  0.0478  0.3268
  118OSM   H11G12444   3.218   1.023   7.319 -0.6447  1.6489 -2.7245
  118OSM   C12F12445   3.412   1.015   7.420 -0.4928  0.0845  0.9444
  118OSM   H12F12446   3.397   1.122   7.447 -1.2635  0.5549 -1.1914
  118OSM   H12G12447   3.521   1.002   7.402 -0.9156 -2.5997 -0.1270
  118OSM   C13F12448   3.368   0.923   7.537  0.1043  0.1734 -0.1601
  118OSM   H13F12449   3.365   0.816   7.507 -3.7203 -0.1958  0.9502
  118OSM   H13G12450   3.266   0.953   7.568  0.2067 -1.9941  2.6971
  118OSM   C14F12451   3.456   0.949   7.658  0.3073  0.1637 -0.3645
  118OSM   H14F12452   3.437   1.053   7.692 -0.9090  0.7307 -2.6234
  118OSM   H14G12453   3.564   0.946   7.634  0.5872 -0.5371  0.8541
  118OSM   C15F12454   3.421   0.852   7.770 -0.3313 -0.2073 -0.7020
  118OSM   H15F12455   3.448   0.748   7.741  1.4878 -0.0056  0.0876
  118OSM   H15G12456   3.313   0.871   7.787 -0.1683  2.1678 -1.8914
  118OSM   C16F12457   3.494   0.883   7.900 -0.4477 -1.0789  0.0314
  118OSM   H16F12458   3.459   0.982   7.937 -1.2137 -0.7177 -1.5751
  118OSM   H16G12459   3.601   0.901   7.879 -1.3070  2.2775 -2.1050
  118OSM   C17F12460   3.487   0.776   8.013 -0.4022 -0.1700  0.7573
  118OSM   H17F12461   3.533   0.687   7.965 -0.0994  1.1705 -1.5815
  118OSM   H17G12462   3.380   0.758   8.037 -0.6907  0.3599 -0.0939
  118OSM   C18F12463   3.560   0.793   8.142 -0.3266 -0.4756 -0.0369
  118OSM   H18F12464   3.563   0.705   8.209  1.3350 -0.5076 -0.1118
  118OSM   H18G12465   3.522   0.877   8.204 -0.0011  0.3638 -0.9398
  118OSM   H18H12466   3.665   0.802   8.108 -1.0703  1.9022 -2.0277
  119OSM      N12467   6.694   4.119   5.729  0.6937 -0.3085 -0.1528
  119OSM    C1512468   6.650   4.120   5.584 -0.4332 -0.1634 -0.0214
  119OSM   H15A12469   6.708   4.060   5.516  0.3019 -0.3912  0.7851
  119OSM   H15B12470   6.654   4.217   5.536  1.6956  0.7941  1.9081
  119OSM   H15C12471   6.548   4.085   5.575 -0.1623 -0.4106 -2.9057
  119OSM    C1412472   6.822   4.185   5.744 -0.6986 -0.0532  0.3342
  119OSM   H14A12473   6.896   4.143   5.676  0.1653  2.2938 -0.2917
  119OSM   H14B12474   6.859   4.169   5.844  0.8888  1.7731  0.1108
  119OSM   H14C12475   6.822   4.292   5.725 -0.9493 -0.5130 -2.7803
  119OSM    C1312476   6.586   4.201   5.805 -0.7165 -0.1811  0.9609
  119OSM   H13A12477   6.617   4.225   5.906 -0.9428 -0.5497  1.1210
  119OSM   H13B12478   6.487   4.160   5.796 -1.0126  0.6567  0.3023
  119OSM   H13C12479   6.595   4.298   5.757  0.4787  0.6666  2.7567
  119OSM    C1212480   6.706   3.976   5.776 -0.0796 -0.7450 -0.4759
  119OSM   H12A12481   6.766   3.910   5.715  0.7068 -1.3706  0.9205
  119OSM   H12B12482   6.611   3.926   5.760  0.3112 -1.1890 -1.4989
  119OSM    C1112483   6.764   3.958   5.918  0.4129  0.8177 -0.4140
  119OSM   H11A12484   6.733   3.853   5.938  0.5375  1.0092  0.8540
  119OSM   H11B12485   6.708   4.022   5.989  0.7674 -1.3516  1.9541
  119OSM      P12486   6.997   3.856   5.873  0.1529  0.0794  0.5114
  119OSM    O1312487   6.930   3.787   5.759 -0.1906 -0.0283  0.2622
  119OSM    O1412488   7.138   3.896   5.853  0.4966 -0.4584  0.1357
  119OSM    O1112489   6.982   3.756   5.992 -0.0372 -1.1536  0.3606
  119OSM    O1212490   6.908   3.975   5.921  0.1634 -0.5213 -1.0610
  119OSM    C1S12491   7.048   3.762   6.122 -0.7595 -0.9662 -0.2824
  119OSM    H1S12492   7.080   3.866   6.143 -1.3016 -0.6355 -1.0371
  119OSM    H1T12493   7.143   3.705   6.122 -0.0541  0.1702 -0.7555
  119OSM     NF12494   7.007   3.746   6.363  0.0657 -0.0530  0.6701
  119OSM    HNF12495   7.045   3.664   6.404  0.4462 -0.8577 -1.1572
  119OSM    C2S12496   6.946   3.726   6.227 -1.1397  0.2769 -0.6305
  119OSM    H2S12497   6.853   3.785   6.208 -0.1880  2.0898  0.0511
  119OSM    C3S12498   6.911   3.571   6.210  1.0064 -0.5040 -0.5772
  119OSM    H3S12499   7.012   3.524   6.207  1.3365  0.2197 -3.6465
  119OSM     O312500   6.853   3.544   6.085 -0.0051  0.4540 -0.2443
  119OSM    HO312501   6.865   3.629   6.041  0.1589  0.0849 -0.9331
  119OSM    C4S12502   6.813   3.520   6.314 -0.1099 -0.2054  0.2352
  119OSM    H4S12503   6.761   3.606   6.357 -0.8191 -0.6164  0.2256
  119OSM    C5S12504   6.794   3.395   6.363 -0.0421 -0.5499 -0.8759
  119OSM    H5S12505   6.869   3.319   6.337  1.3750  0.5614 -0.2004
  119OSM    C6S12506   6.692   3.347   6.463 -0.2247 -0.2321  0.2461
  119OSM    H6S12507   6.659   3.243   6.438 -2.2035  0.8276 -1.9558
  119OSM    H6T12508   6.596   3.399   6.444 -0.0489  1.6967  3.9318
  119OSM    C7S12509   6.728   3.372   6.608 -0.4003 -0.0303  0.4892
  119OSM    H7S12510   6.765   3.475   6.627  0.7830 -0.6157  1.5158
  119OSM    H7T12511   6.809   3.301   6.636 -0.4879  0.8132  3.1708
  119OSM    C8S12512   6.618   3.328   6.701 -0.7063  0.8210  0.0386
  119OSM    H8S12513   6.591   3.222   6.682  1.9085  0.1510 -0.3215
  119OSM    H8T12514   6.526   3.385   6.676  0.2221  2.5325  0.3580
  119OSM    C9S12515   6.664   3.347   6.850 -0.3943 -0.7473  0.0641
  119OSM    H9S12516   6.682   3.452   6.880 -0.4199 -1.1426  1.5337
  119OSM    H9T12517   6.761   3.296   6.869 -0.2073  0.1666  1.7287
  119OSM   C10S12518   6.564   3.285   6.949 -0.3698 -0.0934 -0.3122
  119OSM   H10S12519   6.518   3.193   6.906 -1.9907 -0.9014  2.8695
  119OSM   H10T12520   6.480   3.349   6.983  0.3788  1.2008 -0.8154
  119OSM   C11S12521   6.642   3.257   7.080  0.0560 -0.2438 -0.6455
  119OSM   H11S12522   6.711   3.342   7.101 -2.0513  1.7509 -1.3513
  119OSM   H11T12523   6.703   3.165   7.079 -1.0273 -1.0110  0.4557
  119OSM   C12S12524   6.548   3.228   7.193 -0.0838  1.2035 -0.4832
  119OSM   H12S12525   6.493   3.133   7.177  3.0656 -1.1436  1.3539
  119OSM   H12T12526   6.474   3.309   7.209 -3.1633 -1.7102  1.4020
  119OSM   C13S12527   6.623   3.210   7.332  0.6158  0.6548  0.0881
  119OSM   H13S12528   6.693   3.293   7.356 -1.0106  2.2336 -0.3509
  119OSM   H13T12529   6.679   3.115   7.334  0.7689  0.7110 -1.0287
  119OSM   C14S12530   6.524   3.196   7.452 -0.6077 -0.5119 -0.2834
  119OSM   H14S12531   6.454   3.113   7.431 -0.5967 -0.7202  0.4637
  119OSM   H14T12532   6.465   3.290   7.465 -1.1183 -0.7112 -1.0601
  119OSM   C15S12533   6.597   3.167   7.584 -0.2342 -0.2657  0.3704
  119OSM   H15S12534   6.659   3.257   7.603  0.6963 -0.3913 -1.7711
  119OSM   H15T12535   6.666   3.081   7.578  1.1963  0.6797  2.1760
  119OSM   C16S12536   6.520   3.150   7.716 -0.0588 -0.7748 -0.2383
  119OSM   H16S12537   6.456   3.241   7.722  0.5982 -0.3222  0.0225
  119OSM   H16T12538   6.573   3.143   7.814 -0.6816  1.3642  0.3109
  119OSM   C17S12539   6.437   3.019   7.728 -0.4163  0.2263  0.3800
  119OSM   H17S12540   6.504   2.930   7.731 -1.1280 -0.3673 -0.6755
  119OSM   H17T12541   6.372   2.995   7.642  2.1632 -2.6340 -0.9561
  119OSM   C18S12542   6.348   3.010   7.853 -0.4342  0.4178 -0.8865
  119OSM   H18S12543   6.404   3.012   7.949  1.7979 -1.4945 -2.0345
  119OSM   H18T12544   6.277   2.924   7.846 -0.9361  0.8850 -1.8000
  119OSM   H18U12545   6.294   3.106   7.860  1.7201  1.5855  0.8621
  119OSM    C1F12546   7.024   3.870   6.412  0.1541 -0.8378  0.3281
  119OSM     OF12547   6.990   3.964   6.336  0.6272 -1.1364 -0.0979
  119OSM    C2F12548   7.097   3.879   6.540  0.3231  0.6282  0.3737
  119OSM    H2F12549   7.199   3.843   6.513 -0.5136 -0.1347 -1.9916
  119OSM    H2G12550   7.050   3.812   6.615 -0.2302  0.5458 -0.0422
  119OSM    C3F12551   7.088   4.015   6.600 -0.3155  0.5232 -0.7067
  119OSM    H3F12552   6.983   4.051   6.608 -0.3316  0.1672  1.0078
  119OSM    H3G12553   7.151   4.089   6.545  1.6024 -0.0255  0.6542
  119OSM    C4F12554   7.160   4.009   6.742  1.0518  0.0352  0.8715
  119OSM    H4F12555   7.255   3.953   6.729 -0.2044 -1.7230 -1.4348
  119OSM    H4G12556   7.099   3.956   6.818  0.8345 -1.6250 -0.4019
  119OSM    C5F12557   7.205   4.143   6.787 -0.1037 -0.2465 -0.2797
  119OSM    H5F12558   7.109   4.199   6.792 -0.1988 -0.1691 -2.0501
  119OSM    H5G12559   7.266   4.183   6.703  1.0072 -1.0047  0.1348
  119OSM    C6F12560   7.281   4.138   6.920 -0.6673 -0.2476  0.1416
  119OSM    H6F12561   7.325   4.238   6.940 -1.0241  0.7108 -3.2897
  119OSM    H6G12562   7.361   4.063   6.908 -0.0887  0.2103  1.0242
  119OSM    C7F12563   7.200   4.111   7.054 -0.6148 -0.3607 -0.1066
  119OSM    H7F12564   7.142   4.018   7.034  0.9471 -1.2859 -0.4591
  119OSM    H7G12565   7.119   4.185   7.071 -0.4852  0.0920 -1.4026
  119OSM    C8F12566   7.303   4.101   7.172  0.2756 -0.4873 -0.0528
  119OSM    H8F12567   7.343   4.201   7.199  0.9246 -1.0280  1.0349
  119OSM    H8G12568   7.395   4.051   7.134  1.6436  0.3198  1.9901
  119OSM    C9F12569   7.267   4.012   7.288 -0.3283  0.2844 -0.3589
  119OSM    H9F12570   7.265   3.907   7.255  2.2514  0.5899 -1.6999
  119OSM   C10F12571   7.220   4.042   7.413 -0.1987  0.0538 -0.3402
  119OSM   H10F12572   7.226   3.964   7.490  0.1945 -0.4045 -0.8303
  119OSM   C11F12573   7.209   4.178   7.468  0.1906 -0.3650 -0.1744
  119OSM   H11F12574   7.107   4.179   7.512 -0.3417 -2.3923 -1.2064
  119OSM   H11G12575   7.202   4.245   7.380 -2.6690  0.6782  0.7332
  119OSM   C12F12576   7.316   4.231   7.562  0.5771  0.5494 -0.0861
  119OSM   H12F12577   7.368   4.323   7.528  0.5445  1.0721  1.2457
  119OSM   H12G12578   7.403   4.161   7.564  0.2559  0.1622  1.7074
  119OSM   C13F12579   7.263   4.232   7.705  0.0951  0.1256  0.7360
  119OSM   H13F12580   7.187   4.151   7.711  1.4653 -1.2879 -0.2206
  119OSM   H13G12581   7.208   4.328   7.714 -0.9964 -0.3885 -0.1663
  119OSM   C14F12582   7.369   4.206   7.807 -0.2367  0.0769  0.3309
  119OSM   H14F12583   7.450   4.282   7.803  0.1526 -0.3442 -0.0378
  119OSM   H14G12584   7.412   4.106   7.782  0.8923  0.4484  0.7138
  119OSM   C15F12585   7.315   4.188   7.945  0.3883 -0.7069  0.1174
  119OSM   H15F12586   7.214   4.143   7.944  0.4840 -0.9191 -0.5634
  119OSM   H15G12587   7.290   4.286   7.992 -0.4894 -0.2622 -1.2111
  119OSM   C16F12588   7.404   4.104   8.036 -0.3326  0.1316  0.4277
  119OSM   H16F12589   7.510   4.132   8.016 -0.0353  1.0803  2.8857
  119OSM   H16G12590   7.397   4.000   7.999  0.3901 -0.4067  1.7304
  119OSM   C17F12591   7.373   4.116   8.187  0.4845  1.0387  0.5407
  119OSM   H17F12592   7.392   4.213   8.238 -0.3683  2.7280 -2.1549
  119OSM   H17G12593   7.434   4.033   8.230 -0.3945 -0.2866 -0.6614
  119OSM   C18F12594   7.226   4.085   8.214  0.4903  0.9034 -0.0523
  119OSM   H18F12595   7.220   4.050   8.320 -0.7675 -1.3968 -0.8295
  119OSM   H18G12596   7.195   4.003   8.147  0.2351 -0.1625  1.3149
  119OSM   H18H12597   7.177   4.182   8.193 -0.2077  0.3766 -0.9018
  120OSM      N12598   2.251   3.879   6.013 -0.4260  0.6347  0.0638
  120OSM    C1512599   2.146   3.803   6.090 -0.4834  0.2595  0.3328
  120OSM   H15A12600   2.045   3.808   6.051  0.2400 -0.9113 -1.8351
  120OSM   H15B12601   2.145   3.831   6.195  4.1002 -0.0828  0.6643
  120OSM   H15C12602   2.167   3.697   6.093  2.7228  0.7730 -0.2772
  120OSM    C1412603   2.267   3.831   5.874  0.3590 -0.3132 -0.1433
  120OSM   H14A12604   2.338   3.895   5.825 -1.1288  1.0409 -0.6156
  120OSM   H14B12605   2.178   3.839   5.813 -0.3005  1.6052  0.9970
  120OSM   H14C12606   2.301   3.728   5.878 -1.6649 -0.9930  1.5603
  120OSM    C1312607   2.225   4.019   6.013  0.2068  0.3316  0.5524
  120OSM   H13A12608   2.154   4.052   5.937  0.0060 -0.4562  0.3898
  120OSM   H13B12609   2.308   4.086   5.999 -0.9460  2.3466  2.6043
  120OSM   H13C12610   2.174   4.035   6.107 -0.1270 -1.4392  0.6974
  120OSM    C1212611   2.388   3.861   6.089 -0.3715  0.3640 -0.7016
  120OSM   H12A12612   2.470   3.914   6.042  1.1687 -1.5227 -0.2929
  120OSM   H12B12613   2.426   3.761   6.073  1.0890  0.5292  1.3262
  120OSM    C1112614   2.383   3.895   6.244 -0.3470 -0.4153 -0.3028
  120OSM   H11A12615   2.334   3.993   6.260 -2.8958 -1.5664 -0.6125
  120OSM   H11B12616   2.492   3.905   6.265 -0.2318  0.9447 -1.4066
  120OSM      P12617   2.365   3.644   6.319  0.2841  0.0657 -0.2221
  120OSM    O1312618   2.244   3.562   6.310  0.5856 -0.0039  0.0164
  120OSM    O1412619   2.469   3.621   6.215 -0.1535  0.5801 -0.2820
  120OSM    O1112620   2.429   3.631   6.465 -0.4268 -0.2913  0.0349
  120OSM    O1212621   2.316   3.794   6.320 -0.1932  0.3480 -0.7514
  120OSM    C1S12622   2.410   3.732   6.569  0.0970 -0.0822  0.7194
  120OSM    H1S12623   2.309   3.778   6.559  0.0681 -0.4618 -1.0150
  120OSM    H1T12624   2.470   3.821   6.542  0.2101  0.3271  2.2211
  120OSM     NF12625   2.422   3.795   6.808 -0.1928 -0.0262  0.7018
  120OSM    HNF12626   2.486   3.832   6.875 -1.7530  4.9725 -0.1639
  120OSM    C2S12627   2.452   3.683   6.716  0.2973  0.5041 -0.0607
  120OSM    H2S12628   2.391   3.592   6.738  0.8020  0.1206 -0.2155
  120OSM    C3S12629   2.593   3.624   6.721  0.1947  0.2559 -0.6240
  120OSM    H3S12630   2.659   3.709   6.693  0.5697 -0.2635 -1.3648
  120OSM     O312631   2.620   3.520   6.623  0.0294 -0.1886 -0.1047
  120OSM    HO312632   2.553   3.519   6.555  0.3201  1.2661 -0.4611
  120OSM    C4S12633   2.628   3.580   6.858 -0.0666  0.5022  0.2132
  120OSM    H4S12634   2.662   3.667   6.915 -1.3072  1.0889  0.0893
  120OSM    C5S12635   2.613   3.457   6.916  0.4416  0.5355  0.2034
  120OSM    H5S12636   2.576   3.378   6.849 -0.9019  0.6860  0.7447
  120OSM    C6S12637   2.655   3.425   7.057 -0.2577 -0.2785 -1.2181
  120OSM    H6S12638   2.684   3.524   7.099  1.4123 -0.9110 -0.8190
  120OSM    H6T12639   2.750   3.371   7.074  0.1593  0.4859 -1.0402
  120OSM    C7S12640   2.544   3.366   7.138  0.7382 -0.0639  0.2567
  120OSM    H7S12641   2.495   3.280   7.088 -1.6140  0.1869  1.9363
  120OSM    H7T12642   2.466   3.441   7.164  1.6541  0.7146  0.8533
  120OSM    C8S12643   2.595   3.302   7.272  0.5315  0.0634  0.5476
  120OSM    H8S12644   2.677   3.229   7.258 -0.7529 -1.1743 -0.9216
  120OSM    H8T12645   2.513   3.249   7.325  2.5055 -0.9939  2.7119
  120OSM    C9S12646   2.630   3.414   7.379 -0.3258  0.3101  0.1722
  120OSM    H9S12647   2.541   3.477   7.397 -0.2304  1.3890 -2.5847
  120OSM    H9T12648   2.692   3.491   7.328  0.1848 -0.7673 -0.8897
  120OSM   C10S12649   2.678   3.374   7.511  0.0870  0.2377  0.5541
  120OSM   H10S12650   2.769   3.312   7.497  0.5608  1.4053 -1.9919
  120OSM   H10T12651   2.603   3.306   7.558 -0.6450  1.7761  1.6953
  120OSM   C11S12652   2.698   3.496   7.605 -0.2652 -0.4756  0.5409
  120OSM   H11S12653   2.606   3.557   7.594 -0.7660 -1.2905  0.0895
  120OSM   H11T12654   2.777   3.562   7.562 -2.9116  2.4327 -0.2559
  120OSM   C12S12655   2.720   3.454   7.755  0.2168 -0.1707  0.6493
  120OSM   H12S12656   2.809   3.389   7.745  1.7581  2.0077 -0.9809
  120OSM   H12T12657   2.631   3.404   7.797  0.4868 -0.0287  1.3953
  120OSM   C13S12658   2.764   3.573   7.841 -0.0905  0.0826  0.4406
  120OSM   H13S12659   2.689   3.655   7.843  1.6826  1.8076  0.0190
  120OSM   H13T12660   2.857   3.618   7.798  0.5038  0.0321  1.6302
  120OSM   C14S12661   2.801   3.531   7.984  1.0635  0.0250  0.0365
  120OSM   H14S12662   2.873   3.447   7.983  2.3228  0.9825  2.4880
  120OSM   H14T12663   2.713   3.486   8.036  0.1904  0.7059 -0.8180
  120OSM   C15S12664   2.864   3.648   8.070  0.9354  0.4738  0.1969
  120OSM   H15S12665   2.780   3.699   8.123 -0.3528 -0.8556 -0.4933
  120OSM   H15T12666   2.915   3.710   7.993  0.6882 -1.0428 -1.2396
  120OSM   C16S12667   2.955   3.594   8.175 -0.1925  0.2312 -0.2067
  120OSM   H16S12668   2.999   3.665   8.248  0.3498 -0.1423 -0.1629
  120OSM   H16T12669   3.041   3.545   8.124  0.2657  1.3697 -0.5475
  120OSM   C17S12670   2.890   3.495   8.266 -0.0954  0.0142  1.0721
  120OSM   H17S12671   2.837   3.415   8.210  0.2014  1.9918 -2.3155
  120OSM   H17T12672   2.812   3.546   8.326  1.1137  0.1318  2.6143
  120OSM   C18S12673   2.986   3.422   8.363 -0.4708  0.4681  0.7447
  120OSM   H18S12674   3.037   3.332   8.323  2.3052  0.7613  3.2702
  120OSM   H18T12675   2.930   3.393   8.454 -0.3079  0.6317  0.8973
  120OSM   H18U12676   3.068   3.488   8.398  0.4221  0.0382 -0.4824
  120OSM    C1F12677   2.295   3.828   6.836 -1.1950  0.3635  0.1395
  120OSM     OF12678   2.202   3.755   6.806 -0.9869 -0.9892 -0.1770
  120OSM    C2F12679   2.275   3.939   6.930  0.4978 -0.2016 -0.0108
  120OSM    H2F12680   2.348   3.946   7.014  1.3037  3.5377 -0.8182
  120OSM    H2G12681   2.175   3.928   6.975  1.4311  1.2157  2.6103
  120OSM    C3F12682   2.274   4.076   6.854  0.2490  0.2465 -0.4140
  120OSM    H3F12683   2.214   4.062   6.761 -0.0835  1.4382 -0.4069
  120OSM    H3G12684   2.373   4.107   6.816  0.5828 -1.1108 -0.6889
  120OSM    C4F12685   2.204   4.193   6.919  0.3896 -0.3020 -0.1618
  120OSM    H4F12686   2.105   4.151   6.945 -0.3491 -1.0313 -3.7116
  120OSM    H4G12687   2.179   4.281   6.856  0.9482 -0.3221 -0.4132
  120OSM    C5F12688   2.274   4.237   7.046 -0.1577 -0.0217 -0.8186
  120OSM    H5F12689   2.378   4.258   7.012 -0.8678  3.0894 -1.3228
  120OSM    H5G12690   2.281   4.163   7.129  0.3787  1.1010  0.1624
  120OSM    C6F12691   2.230   4.371   7.106 -0.2864 -0.6715  0.2752
  120OSM    H6F12692   2.123   4.373   7.136  0.0412  1.1557  1.5429
  120OSM    H6G12693   2.234   4.441   7.020 -2.4719 -0.5989  0.1643
  120OSM    C7F12694   2.320   4.419   7.222  0.7061  0.3002  0.5917
  120OSM    H7F12695   2.420   4.381   7.194  1.4113  1.5633  1.2913
  120OSM    H7G12696   2.288   4.378   7.319  0.7387  0.2236  0.5697
  120OSM    C8F12697   2.331   4.576   7.238 -0.4136  0.2313 -0.2400
  120OSM    H8F12698   2.358   4.635   7.148 -0.5276 -0.4333 -0.7213
  120OSM    H8G12699   2.416   4.584   7.309 -3.1321  1.4200  3.1736
  120OSM    C9F12700   2.205   4.625   7.300  0.0111  0.1497 -0.3513
  120OSM    H9F12701   2.111   4.615   7.244 -1.6252 -0.5197  2.3222
  120OSM   C10F12702   2.198   4.694   7.417  0.2810  1.0328 -0.2003
  120OSM   H10F12703   2.099   4.731   7.447 -0.0166  0.6048 -0.6427
  120OSM   C11F12704   2.317   4.740   7.500  0.2662  0.0575 -0.1376
  120OSM   H11F12705   2.304   4.829   7.565  0.6618 -0.8546  1.2401
  120OSM   H11G12706   2.412   4.752   7.443 -1.2232 -1.8964 -3.2959
  120OSM   C12F12707   2.343   4.631   7.607 -0.3979 -0.3841  0.5159
  120OSM   H12F12708   2.437   4.649   7.663 -0.9272  0.5855  1.1381
  120OSM   H12G12709   2.338   4.530   7.562  1.4462 -1.5572  2.7120
  120OSM   C13F12710   2.239   4.641   7.722 -0.2179  0.4970  0.1952
  120OSM   H13F12711   2.140   4.596   7.698 -0.9424  0.9269  2.1812
  120OSM   H13G12712   2.222   4.746   7.754 -1.9234  0.3692 -0.2154
  120OSM   C14F12713   2.290   4.572   7.856 -0.5400 -1.3588 -0.1843
  120OSM   H14F12714   2.338   4.649   7.920 -1.6933 -0.8969  0.1519
  120OSM   H14G12715   2.362   4.490   7.835  0.9081  0.4197 -2.5965
  120OSM   C15F12716   2.163   4.511   7.919 -0.2451  0.3121  0.1749
  120OSM   H15F12717   2.133   4.426   7.854  0.2244 -2.1328  2.9326
  120OSM   H15G12718   2.091   4.596   7.921  2.5956  2.8712  0.4697
  120OSM   C16F12719   2.181   4.452   8.059  0.0884  0.2170 -0.3523
  120OSM   H16F12720   2.239   4.357   8.050 -2.0758 -1.3025  0.8359
  120OSM   H16G12721   2.082   4.416   8.094  0.1563  0.6144  0.2509
  120OSM   C17F12722   2.247   4.552   8.167  0.2247 -0.0387  0.4311
  120OSM   H17F12723   2.171   4.625   8.202 -0.3986 -0.9464  1.0261
  120OSM   H17G12724   2.332   4.589   8.105 -0.8544 -0.4404 -1.3546
  120OSM   C18F12725   2.303   4.470   8.286 -0.5358 -0.4370 -0.2145
  120OSM   H18F12726   2.372   4.525   8.353  0.4648  0.3164 -1.8084
  120OSM   H18G12727   2.351   4.382   8.238 -0.0449 -1.5162  2.1476
  120OSM   H18H12728   2.223   4.418   8.343 -0.1609 -0.0236  0.7065
  121OSM      N12729   4.621   0.359   5.721 -0.1017 -0.1627 -0.0724
  121OSM    C1512730   4.664   0.443   5.595  0.5414  0.5894  0.0403
  121OSM   H15A12731   4.662   0.548   5.621 -1.8038  1.2493 -2.3338
  121OSM   H15B12732   4.595   0.422   5.515 -0.3955 -0.1166  0.9997
  121OSM   H15C12733   4.761   0.428   5.551  0.2240 -0.6949 -0.2821
  121OSM    C1412734   4.610   0.214   5.685 -0.1910 -1.0437  0.2678
  121OSM   H14A12735   4.708   0.170   5.673  0.3800  0.0123  0.9425
  121OSM   H14B12736   4.561   0.197   5.591 -0.3437  0.5222  0.0466
  121OSM   H14C12737   4.553   0.160   5.759 -0.4377  1.7808  2.3207
  121OSM    C1312738   4.717   0.375   5.839  0.3320 -0.3055  0.1639
  121OSM   H13A12739   4.702   0.472   5.883  0.2339 -1.0884  1.9640
  121OSM   H13B12740   4.821   0.361   5.813 -0.0797 -3.1907 -0.3227
  121OSM   H13C12741   4.675   0.303   5.907  0.5481 -2.1386 -1.5501
  121OSM    C1212742   4.487   0.423   5.760  0.0959  0.0715  0.2609
  121OSM   H12A12743   4.441   0.360   5.835 -0.4664 -0.9218 -0.8828
  121OSM   H12B12744   4.431   0.417   5.667  1.5389 -0.2430 -0.6192
  121OSM    C1112745   4.487   0.569   5.812  0.2871 -0.6433 -0.5542
  121OSM   H11A12746   4.398   0.624   5.773  0.9294  0.8375 -0.0266
  121OSM   H11B12747   4.561   0.639   5.767  2.3163 -1.2228  1.7043
  121OSM      P12748   4.352   0.529   6.036 -0.0407 -0.1179 -0.1056
  121OSM    O1312749   4.247   0.623   5.992 -0.5564 -0.0024  0.2025
  121OSM    O1412750   4.331   0.383   6.023 -0.1125 -0.5553 -0.3451
  121OSM    O1112751   4.397   0.579   6.183  0.2043  0.1322  0.1724
  121OSM    O1212752   4.485   0.573   5.959  0.3103 -0.2163  0.0975
  121OSM    C1S12753   4.343   0.688   6.247  0.0669  0.4031 -0.5983
  121OSM    H1S12754   4.232   0.690   6.238 -0.0383  1.4486  0.5825
  121OSM    H1T12755   4.379   0.787   6.212  1.3933  0.5019  0.9236
  121OSM     NF12756   4.280   0.787   6.471 -0.6328  0.2710 -0.6150
  121OSM    HNF12757   4.280   0.885   6.456  0.0885  1.1453  3.6895
  121OSM    C2S12758   4.378   0.694   6.404  0.6211 -0.2266  0.2120
  121OSM    H2S12759   4.375   0.591   6.446 -0.7856  0.0714  0.8974
  121OSM    C3S12760   4.520   0.742   6.414 -0.3339 -0.5456 -1.0173
  121OSM    H3S12761   4.511   0.849   6.386 -1.3034 -0.6849 -1.2653
  121OSM     O312762   4.615   0.678   6.320  0.2228 -0.0006 -0.4409
  121OSM    HO312763   4.554   0.626   6.267  1.2515 -0.1583 -1.4834
  121OSM    C4S12764   4.569   0.740   6.564  0.1960 -0.5471 -0.1566
  121OSM    H4S12765   4.543   0.828   6.625  0.8587 -0.9697  0.7624
  121OSM    C5S12766   4.641   0.653   6.634 -0.3554 -0.2479  0.5202
  121OSM    H5S12767   4.676   0.566   6.576  2.9661  1.6899 -0.7128
  121OSM    C6S12768   4.680   0.657   6.785 -0.0806 -0.0433  0.0699
  121OSM    H6S12769   4.722   0.753   6.821 -1.1803  0.3941  0.2122
  121OSM    H6T12770   4.759   0.587   6.819  0.3571  0.8698  0.9978
  121OSM    C7S12771   4.543   0.650   6.869  0.5977 -0.0533  0.2950
  121OSM    H7S12772   4.503   0.546   6.859 -2.4275  0.9504  0.8751
  121OSM    H7T12773   4.457   0.703   6.823 -0.2000 -0.8438  0.8298
  121OSM    C8S12774   4.552   0.670   7.017  0.0169 -0.2480  0.1995
  121OSM    H8S12775   4.455   0.647   7.066 -0.9028  1.8772 -0.5195
  121OSM    H8T12776   4.563   0.781   7.019 -1.5478  0.0132 -1.9470
  121OSM    C9S12777   4.662   0.585   7.087 -0.1084 -0.3979 -0.1165
  121OSM    H9S12778   4.752   0.649   7.095 -1.3991  1.5830 -0.6394
  121OSM    H9T12779   4.679   0.501   7.016  2.2607  0.5181 -0.7296
  121OSM   C10S12780   4.618   0.542   7.228 -0.2183 -0.4412 -0.5277
  121OSM   H10S12781   4.519   0.491   7.217 -1.3191  1.6495 -0.7865
  121OSM   H10T12782   4.602   0.635   7.286  1.0629 -0.9730  0.7525
  121OSM   C11S12783   4.717   0.445   7.291  0.6422  0.0461 -0.4988
  121OSM   H11S12784   4.814   0.497   7.302 -0.2296  1.1893  3.3942
  121OSM   H11T12785   4.726   0.355   7.227 -0.8245 -0.3249 -0.2226
  121OSM   C12S12786   4.689   0.410   7.439  0.5720  0.0743  0.2398
  121OSM   H12S12787   4.603   0.341   7.445  0.2125  0.5053  0.0652
  121OSM   H12T12788   4.672   0.503   7.497 -0.1406 -0.8022  1.4836
  121OSM   C13S12789   4.809   0.337   7.501 -0.8630  0.0695 -0.5576
  121OSM   H13S12790   4.905   0.391   7.491 -1.4989  1.1658 -0.9078
  121OSM   H13T12791   4.811   0.238   7.451  0.0087 -0.0817 -0.2431
  121OSM   C14S12792   4.801   0.319   7.656  0.0880 -0.0860 -0.5711
  121OSM   H14S12793   4.823   0.418   7.700 -0.4522  0.2194 -0.9745
  121OSM   H14T12794   4.880   0.250   7.693 -0.3218  0.1441  0.7633
  121OSM   C15S12795   4.662   0.270   7.699  0.4638  0.3705 -0.0624
  121OSM   H15S12796   4.638   0.175   7.647  0.7391 -0.4469  1.2511
  121OSM   H15T12797   4.578   0.332   7.662  0.8498  0.7437 -0.3146
  121OSM   C16S12798   4.667   0.238   7.853  0.3527 -0.5252 -0.0032
  121OSM   H16S12799   4.768   0.192   7.861  1.1786  1.2719  0.4072
  121OSM   H16T12800   4.604   0.157   7.895 -0.2769 -0.9145 -1.6393
  121OSM   C17S12801   4.665   0.361   7.938  0.0608 -0.1899 -0.8922
  121OSM   H17S12802   4.560   0.388   7.963  0.5008  0.3747  0.4477
  121OSM   H17T12803   4.706   0.450   7.886 -1.5866  0.8384 -0.4878
  121OSM   C18S12804   4.737   0.359   8.068  0.7631 -0.3589 -1.3167
  121OSM   H18S12805   4.727   0.455   8.122  0.0140 -1.0718 -0.1324
  121OSM   H18T12806   4.843   0.332   8.050  0.1959 -1.9002 -2.5918
  121OSM   H18U12807   4.684   0.281   8.129  0.5638  0.2883 -0.6483
  121OSM    C1F12808   4.167   0.733   6.524  0.1892 -0.3047  0.4268
  121OSM     OF12809   4.140   0.614   6.504  0.4379  0.5926  0.2127
  121OSM    C2F12810   4.076   0.825   6.606 -0.4173  0.4630 -0.1907
  121OSM    H2F12811   4.014   0.884   6.535  2.0195  0.4531 -2.4730
  121OSM    H2G12812   4.139   0.888   6.671  2.8422 -3.8356  1.2995
  121OSM    C3F12813   3.993   0.743   6.700 -0.3554 -0.2149 -0.1377
  121OSM    H3F12814   3.934   0.665   6.647 -1.1495  1.2155 -1.4150
  121OSM    H3G12815   3.905   0.802   6.733  0.3540  0.2959  0.8730
  121OSM    C4F12816   4.069   0.677   6.812  0.0979 -0.0350  0.9726
  121OSM    H4F12817   4.152   0.748   6.833  1.2058  0.7002 -4.4036
  121OSM    H4G12818   4.119   0.589   6.767  0.3181  0.7169 -0.2786
  121OSM    C5F12819   3.991   0.620   6.932 -0.7345  1.0050 -0.0296
  121OSM    H5F12820   3.898   0.576   6.889 -0.6861  1.9947 -1.1880
  121OSM    H5G12821   3.964   0.707   6.995 -3.7596  0.9926 -1.1434
  121OSM    C6F12822   4.082   0.519   7.011  0.4171 -0.1239 -0.6076
  121OSM    H6F12823   4.041   0.526   7.114  0.1446 -1.1984 -0.6289
  121OSM    H6G12824   4.190   0.545   7.017 -0.1642  2.3206  3.7894
  121OSM    C7F12825   4.084   0.383   6.959  0.9148 -0.6320  0.2606
  121OSM    H7F12826   4.147   0.390   6.867  1.2675 -0.4501  0.5147
  121OSM    H7G12827   3.979   0.354   6.939  0.7347  0.5512 -0.6277
  121OSM    C8F12828   4.131   0.282   7.057  0.1150 -0.0523  0.1629
  121OSM    H8F12829   4.238   0.305   7.075  0.8896 -3.0747 -0.1000
  121OSM    H8G12830   4.131   0.188   6.998  1.6532 -0.0719  0.1479
  121OSM    C9F12831   4.056   0.255   7.182 -0.0803 -0.1276 -0.2206
  121OSM    H9F12832   3.947   0.245   7.169 -0.2156 -0.2111  0.9480
  121OSM   C10F12833   4.104   0.251   7.307  0.3712 -0.7624  0.0251
  121OSM   H10F12834   4.024   0.240   7.382  0.7664  0.5955  0.6814
  121OSM   C11F12835   4.245   0.273   7.349  0.0877 -0.5285 -0.6640
  121OSM   H11F12836   4.296   0.348   7.285 -0.6727  0.6410  0.0747
  121OSM   H11G12837   4.313   0.185   7.348 -0.6369 -1.0940 -1.8508
  121OSM   C12F12838   4.243   0.348   7.488  0.4791  0.2731 -0.1192
  121OSM   H12F12839   4.167   0.430   7.489  0.2398  0.0516  0.0991
  121OSM   H12G12840   4.344   0.389   7.510  0.3143  0.1560  0.9336
  121OSM   C13F12841   4.196   0.246   7.595 -0.2400  0.6557 -0.0945
  121OSM   H13F12842   4.257   0.155   7.576  2.1381  2.3524 -1.2041
  121OSM   H13G12843   4.088   0.220   7.595  0.2376 -1.5738 -0.0704
  121OSM   C14F12844   4.216   0.305   7.733  0.4487  0.5732  0.0691
  121OSM   H14F12845   4.165   0.403   7.744  0.3615  0.3505  2.0115
  121OSM   H14G12846   4.322   0.333   7.750  0.9462 -0.3425 -1.4088
  121OSM   C15F12847   4.180   0.215   7.844  0.8582  0.1245  0.7102
  121OSM   H15F12848   4.247   0.127   7.841 -0.3745 -0.8234 -0.5276
  121OSM   H15G12849   4.077   0.179   7.822  0.7034  0.5170  0.7836
  121OSM   C16F12850   4.176   0.288   7.982  0.4131 -0.1917  0.2015
  121OSM   H16F12851   4.098   0.367   7.980  0.2083 -0.3836 -1.9228
  121OSM   H16G12852   4.277   0.331   7.996  0.8496 -1.3878  0.8549
  121OSM   C17F12853   4.160   0.192   8.100  0.4319 -0.6805  0.4284
  121OSM   H17F12854   4.250   0.127   8.094  0.4296 -0.7787  1.3048
  121OSM   H17G12855   4.072   0.125   8.095  0.9231 -1.2311 -1.5368
  121OSM   C18F12856   4.170   0.266   8.240 -0.0639 -0.1722  0.6709
  121OSM   H18F12857   4.079   0.328   8.253  0.5210  1.0286 -0.6167
  121OSM   H18G12858   4.256   0.336   8.238 -0.6712  0.5856  0.1015
  121OSM   H18H12859   4.177   0.191   8.322 -0.1121 -1.3302 -0.3498
  122OSM      N12860   4.232   1.887   5.799  0.2370  0.5872 -0.5002
  122OSM    C1512861   4.327   1.977   5.868  0.2560 -0.5701  0.0849
  122OSM   H15A12862   4.373   2.033   5.788 -2.6823 -1.0196 -2.0988
  122OSM   H15B12863   4.397   1.925   5.931  0.4793 -1.7011 -1.0682
  122OSM   H15C12864   4.268   2.046   5.927  0.7380 -3.0157  3.6997
  122OSM    C1412865   4.152   1.948   5.691 -0.3869  0.4553 -0.0968
  122OSM   H14A12866   4.135   1.879   5.610  1.8013 -2.2762  1.5781
  122OSM   H14B12867   4.203   2.033   5.648  0.0627 -0.3047 -1.0989
  122OSM   H14C12868   4.058   1.994   5.717  0.9632  3.3543  0.1112
  122OSM    C1312869   4.311   1.771   5.746 -0.5154 -0.3161 -0.1952
  122OSM   H13A12870   4.384   1.798   5.671 -0.5629 -1.3806 -0.6459
  122OSM   H13B12871   4.255   1.689   5.702  0.7791 -1.0652 -0.4888
  122OSM   H13C12872   4.368   1.728   5.826 -1.5614 -0.9853  0.2104
  122OSM    C1212873   4.136   1.828   5.902 -0.7369  0.1602  0.0629
  122OSM   H12A12874   4.189   1.756   5.963 -4.2718 -1.9926  0.9446
  122OSM   H12B12875   4.058   1.774   5.850  0.3679 -0.4787 -0.9989
  122OSM    C1112876   4.073   1.935   5.998 -0.1674  0.2690 -0.0985
  122OSM   H11A12877   4.142   1.994   6.061 -1.4484  2.8750 -1.0168
  122OSM   H11B12878   4.012   1.877   6.071  0.1102  0.8125  0.5754
  122OSM      P12879   3.828   2.003   5.940 -0.3368  0.3233 -0.1008
  122OSM    O1312880   3.758   2.123   5.891  0.2750 -0.1510  0.1646
  122OSM    O1412881   3.791   1.871   5.878 -0.0951  0.2350 -0.3033
  122OSM    O1112882   3.802   1.997   6.103 -0.1780  0.2761  0.5191
  122OSM    O1212883   3.982   2.020   5.929  0.3306  0.1801  0.2952
  122OSM    C1S12884   3.853   2.112   6.180 -0.2773  0.5004  0.2837
  122OSM    H1S12885   3.800   2.207   6.158 -0.4449  0.0759 -1.3197
  122OSM    H1T12886   3.962   2.123   6.166 -0.0206 -0.1859  1.5769
  122OSM     NF12887   3.864   2.204   6.406  0.0194 -0.2919 -0.1101
  122OSM    HNF12888   3.953   2.211   6.452  0.2705  0.2514 -0.6634
  122OSM    C2S12889   3.830   2.086   6.333 -0.4096  0.1664 -0.4144
  122OSM    H2S12890   3.724   2.064   6.358 -0.4996 -0.8580 -1.5677
  122OSM    C3S12891   3.915   1.957   6.376 -0.0216 -0.7808  0.3480
  122OSM    H3S12892   4.019   1.969   6.337  0.1591  0.0434  1.0452
  122OSM     O312893   3.862   1.837   6.317  0.9292 -0.4219 -0.2797
  122OSM    HO312894   3.814   1.874   6.244  0.0996  0.3641  0.6437
  122OSM    C4S12895   3.931   1.928   6.520  0.0061 -0.4992 -0.3034
  122OSM    H4S12896   3.850   1.870   6.567 -1.1270  0.7856 -0.6041
  122OSM    C5S12897   4.029   1.965   6.601  0.2838  0.6388 -0.5565
  122OSM    H5S12898   4.120   2.012   6.560  0.8405 -0.7323 -0.9498
  122OSM    C6S12899   4.035   1.923   6.749 -0.0602  0.1649  0.2130
  122OSM    H6S12900   4.142   1.904   6.774  0.4960  0.7545 -1.6145
  122OSM    H6T12901   3.985   1.827   6.774  0.7409  0.2726  2.5423
  122OSM    C7S12902   3.995   2.031   6.842 -0.9403 -0.5207 -0.8049
  122OSM    H7S12903   3.886   2.048   6.846 -0.4984  3.3688 -1.2293
  122OSM    H7T12904   4.039   2.127   6.808  1.7507 -1.3411  0.0848
  122OSM    C8S12905   4.057   2.011   6.982 -0.9173  0.2858  0.2975
  122OSM    H8S12906   4.164   1.985   6.991 -0.6074  1.2826 -0.3095
  122OSM    H8T12907   3.998   1.925   7.021 -2.1941  0.0084 -2.0747
  122OSM    C9S12908   4.034   2.138   7.072 -0.2456 -0.3193  0.2327
  122OSM    H9S12909   3.924   2.154   7.067 -0.5172 -2.0136  0.0011
  122OSM    H9T12910   4.088   2.222   7.023 -0.6326  0.1045  0.5212
  122OSM   C10S12911   4.062   2.121   7.222  0.0656 -0.1869  0.1058
  122OSM   H10S12912   3.998   2.045   7.272 -0.6693  0.1108 -0.3745
  122OSM   H10T12913   4.026   2.208   7.281  0.6686 -1.6004  2.7407
  122OSM   C11S12914   4.210   2.111   7.261 -0.0606 -0.7272 -0.4253
  122OSM   H11S12915   4.275   2.197   7.233  0.2396 -0.3713  1.2079
  122OSM   H11T12916   4.244   2.020   7.207 -0.0622  0.0400 -1.7574
  122OSM   C12S12917   4.231   2.095   7.415 -0.5224 -0.4101 -0.1527
  122OSM   H12S12918   4.310   2.018   7.432  0.1227  0.2903  0.1108
  122OSM   H12T12919   4.146   2.038   7.457 -0.8401  0.0972 -0.0969
  122OSM   C13S12920   4.245   2.230   7.489  0.6737 -0.5792 -0.4898
  122OSM   H13S12921   4.148   2.284   7.486  1.0953  0.2020 -0.2621
  122OSM   H13T12922   4.323   2.291   7.439 -0.6543  0.2749 -1.6393
  122OSM   C14S12923   4.266   2.213   7.642 -0.0645  0.3790  0.3037
  122OSM   H14S12924   4.180   2.158   7.687 -0.6631 -0.1651 -1.3970
  122OSM   H14T12925   4.276   2.308   7.698  0.2478  0.8205 -0.4744
  122OSM   C15S12926   4.397   2.133   7.687 -0.3679  0.4852  0.1721
  122OSM   H15S12927   4.478   2.174   7.624  0.4748  0.6484  1.3280
  122OSM   H15T12928   4.378   2.026   7.663 -1.6517  0.9854 -1.1704
  122OSM   C16S12929   4.436   2.156   7.836  0.9281  0.2666  0.1504
  122OSM   H16S12930   4.428   2.257   7.882 -1.4233 -0.6725  2.0298
  122OSM   H16T12931   4.543   2.129   7.848  0.8593  0.1454  0.4987
  122OSM   C17S12932   4.356   2.068   7.934  0.3027  0.5546 -0.1782
  122OSM   H17S12933   4.395   1.964   7.933 -1.9621 -0.3639  1.1836
  122OSM   H17T12934   4.252   2.071   7.898  0.6832  2.7402 -1.2376
  122OSM   C18S12935   4.358   2.120   8.081 -0.1462  0.5073 -0.0131
  122OSM   H18S12936   4.315   2.054   8.159 -0.6385  3.1731  2.1679
  122OSM   H18T12937   4.303   2.216   8.092 -2.9929 -0.7276 -2.2446
  122OSM   H18U12938   4.466   2.125   8.108 -0.5108  0.2548  1.6013
  122OSM    C1F12939   3.787   2.315   6.400 -0.5096 -0.3623 -0.8757
  122OSM     OF12940   3.688   2.316   6.331 -0.4610  0.1722  0.1794
  122OSM    C2F12941   3.817   2.423   6.499 -0.1686 -0.0182 -0.1884
  122OSM    H2F12942   3.719   2.459   6.535 -1.4891 -2.3942 -1.1885
  122OSM    H2G12943   3.877   2.499   6.444  0.6689 -1.5860 -1.5435
  122OSM    C3F12944   3.906   2.373   6.621  0.4826 -0.2221  0.5164
  122OSM    H3F12945   4.006   2.338   6.586  0.4100 -0.0678  0.1480
  122OSM    H3G12946   3.858   2.284   6.667 -0.1883  0.4059  1.0526
  122OSM    C4F12947   3.937   2.482   6.728 -0.1826 -0.0549 -0.2043
  122OSM    H4F12948   3.840   2.527   6.760  0.6397  1.3668  0.3990
  122OSM    H4G12949   3.991   2.571   6.691  1.2342  0.6379  3.1559
  122OSM    C5F12950   4.006   2.431   6.853 -0.5199  0.2104 -0.1459
  122OSM    H5F12951   4.101   2.382   6.826 -0.6419 -1.3015  1.8819
  122OSM    H5G12952   3.944   2.357   6.908 -0.7699  0.5204  0.0005
  122OSM    C6F12953   4.029   2.548   6.947  0.0925 -0.1564 -0.0382
  122OSM    H6F12954   3.928   2.583   6.979 -0.0851 -0.4126 -0.3102
  122OSM    H6G12955   4.086   2.626   6.892 -0.3517  1.0529  1.1699
  122OSM    C7F12956   4.091   2.507   7.075 -0.1094  0.2753  0.3219
  122OSM    H7F12957   4.195   2.492   7.040 -0.2697 -0.6460  0.2009
  122OSM    H7G12958   4.047   2.418   7.125 -0.5730  0.1242 -0.3391
  122OSM    C8F12959   4.087   2.620   7.186  0.3019  0.3083  0.1812
  122OSM    H8F12960   3.982   2.647   7.211  1.1246  2.3796  1.6207
  122OSM    H8G12961   4.131   2.715   7.147 -3.0241  2.0325  0.2585
  122OSM    C9F12962   4.183   2.595   7.305  0.2190  0.4732 -0.5871
  122OSM    H9F12963   4.293   2.595   7.293  0.3108 -1.2963 -0.0352
  122OSM   C10F12964   4.154   2.558   7.427  0.2706  0.1176  0.0485
  122OSM   H10F12965   4.242   2.560   7.493  0.6433 -1.1918 -0.3780
  122OSM   C11F12966   4.019   2.526   7.486  0.5449 -0.4157 -0.4595
  122OSM   H11F12967   4.018   2.440   7.555 -2.8015 -0.2222 -0.1084
  122OSM   H11G12968   3.941   2.514   7.408 -0.4439  1.8318  0.0994
  122OSM   C12F12969   3.983   2.650   7.573  0.4227  0.2025 -0.2713
  122OSM   H12F12970   3.944   2.732   7.509  4.0334  3.0787  0.8196
  122OSM   H12G12971   4.065   2.700   7.628  0.1628  0.0640  0.2526
  122OSM   C13F12972   3.880   2.606   7.677  0.5335 -0.2483 -0.5831
  122OSM   H13F12973   3.902   2.504   7.716  2.0939 -0.1380 -1.1442
  122OSM   H13G12974   3.776   2.604   7.637  0.4853 -0.8790 -0.4354
  122OSM   C14F12975   3.865   2.703   7.801  0.2204 -0.5669  0.2221
  122OSM   H14F12976   3.851   2.805   7.761  0.0105 -0.5725  0.2796
  122OSM   H14G12977   3.959   2.708   7.859  0.2880  1.0626  0.0134
  122OSM   C15F12978   3.744   2.669   7.898  0.1116 -0.4807 -0.0600
  122OSM   H15F12979   3.657   2.689   7.831 -0.2753 -2.7771 -0.3082
  122OSM   H15G12980   3.744   2.743   7.981  1.2634  0.6776 -1.0356
  122OSM   C16F12981   3.757   2.524   7.950  0.1962 -0.0004 -0.0831
  122OSM   H16F12982   3.758   2.452   7.865  0.3484  0.1293 -0.1906
  122OSM   H16G12983   3.664   2.518   8.011  0.5520  0.0435  0.4715
  122OSM   C17F12984   3.885   2.518   8.035 -0.1353 -0.8751  0.4616
  122OSM   H17F12985   3.975   2.537   7.972 -0.8447  2.1552  0.1695
  122OSM   H17G12986   3.906   2.418   8.079 -0.0780 -0.8054  0.5932
  122OSM   C18F12987   3.879   2.607   8.161  0.0034 -0.4129 -0.6716
  122OSM   H18F12988   3.925   2.708   8.156  3.0401 -1.6701 -0.5330
  122OSM   H18G12989   3.933   2.558   8.245  0.1630 -0.3832 -0.7544
  122OSM   H18H12990   3.774   2.622   8.194  0.7231 -0.8352  2.0439
  123OSM      N12991   2.332   4.860   6.417 -0.3768 -0.6116 -0.4325
  123OSM    C1512992   2.270   4.944   6.519  0.0576  0.6234 -0.4058
  123OSM   H15A12993   2.162   4.944   6.520 -0.0023 -1.8029  0.1666
  123OSM   H15B12994   2.294   5.049   6.512  0.6304  0.6796  1.7159
  123OSM   H15C12995   2.306   4.914   6.617 -1.1925  1.7858  0.4394
  123OSM    C1412996   2.263   4.884   6.292 -0.8340 -0.6952  0.0115
  123OSM   H14A12997   2.233   4.988   6.287  0.2995 -0.3625 -0.1516
  123OSM   H14B12998   2.176   4.821   6.285 -1.1802 -0.2137 -0.0852
  123OSM   H14C12999   2.329   4.861   6.209  0.5308 -0.3771  0.9688
  123OSM    C1313000   2.480   4.897   6.401 -0.2441  0.4085  0.1237
  123OSM   H13A13001   2.512   4.923   6.501  1.2651  0.2994 -0.2972
  123OSM   H13B13002   2.487   4.977   6.329  1.0703 -1.5426 -2.0731
  123OSM   H13C13003   2.537   4.813   6.364  1.4817  1.2095  0.8315
  123OSM    C1213004   2.326   4.710   6.453 -0.0916  0.0839 -0.9434
  123OSM   H12A13005   2.224   4.686   6.478  0.4563 -3.4500 -1.5530
  123OSM   H12B13006   2.377   4.703   6.547 -1.1970  2.0212 -0.1284
  123OSM    C1113007   2.384   4.604   6.352  0.4052 -0.4618  0.6475
  123OSM   H11A13008   2.333   4.620   6.254  2.1330  0.5903 -0.1404
  123OSM   H11B13009   2.346   4.505   6.384  0.0815 -1.0177 -1.3378
  123OSM      P13010   2.621   4.513   6.425  0.0089  0.1427  0.2885
  123OSM    O1313011   2.580   4.373   6.386  0.1844 -0.6701  0.5724
  123OSM    O1413012   2.759   4.544   6.410 -1.0177  0.3579  0.0765
  123OSM    O1113013   2.577   4.529   6.574  0.6647  0.0888 -0.0652
  123OSM    O1213014   2.526   4.611   6.338 -0.5562  0.3698 -0.4424
  123OSM    C1S13015   2.597   4.643   6.651 -0.5571 -0.1665  0.0957
  123OSM    H1S13016   2.532   4.729   6.622  0.4724  0.4943 -0.2976
  123OSM    H1T13017   2.704   4.673   6.643 -1.2579  2.4976 -0.4477
  123OSM     NF13018   2.546   4.742   6.877 -0.2738  0.2209 -0.0991
  123OSM    HNF13019   2.622   4.802   6.900 -1.1561  1.1288  0.6015
  123OSM    C2S13020   2.571   4.621   6.805 -0.0032 -0.4185 -0.9141
  123OSM    H2S13021   2.482   4.555   6.801  0.5270 -1.1280 -1.3299
  123OSM    C3S13022   2.694   4.543   6.861 -0.0640  0.2146  0.3356
  123OSM    H3S13023   2.793   4.593   6.850  0.2734 -0.6161 -0.4509
  123OSM     O313024   2.709   4.413   6.803  0.5602 -0.5232 -0.3304
  123OSM    HO313025   2.632   4.405   6.747 -0.3983 -1.2309  1.0097
  123OSM    C4S13026   2.679   4.523   7.010 -0.5228 -0.1164 -0.6299
  123OSM    H4S13027   2.603   4.450   7.042  0.1226 -0.2309  0.6997
  123OSM    C5S13028   2.757   4.574   7.108 -0.8794 -0.3050 -0.2804
  123OSM    H5S13029   2.831   4.647   7.071 -1.7589  0.1562 -1.1699
  123OSM    C6S13030   2.743   4.553   7.258  0.3680  0.4253  0.1341
  123OSM    H6S13031   2.796   4.456   7.272 -2.8249 -1.7750 -1.7291
  123OSM    H6T13032   2.635   4.547   7.283  0.3823  1.8210  0.5787
  123OSM    C7S13033   2.800   4.657   7.357 -0.2304 -1.3983  0.1016
  123OSM    H7S13034   2.744   4.754   7.357 -1.2680 -1.9808 -0.2146
  123OSM    H7T13035   2.900   4.690   7.323 -1.1398 -0.3690 -1.7500
  123OSM    C8S13036   2.794   4.596   7.495 -0.0429  0.0825 -0.0452
  123OSM    H8S13037   2.882   4.537   7.531  1.7966  1.6495 -1.7729
  123OSM    H8T13038   2.706   4.530   7.509 -0.5778  0.5791 -0.9777
  123OSM    C9S13039   2.798   4.707   7.605 -0.0972  0.4719  0.3734
  123OSM    H9S13040   2.698   4.756   7.610 -0.1718  0.5023 -1.0447
  123OSM    H9T13041   2.883   4.776   7.583  2.8561 -2.2569  2.3764
  123OSM   C10S13042   2.822   4.655   7.749  0.3393 -0.0479 -0.0732
  123OSM   H10S13043   2.879   4.561   7.734 -0.9254 -0.6186 -1.5661
  123OSM   H10T13044   2.729   4.622   7.798 -1.0634  1.7564 -1.3583
  123OSM   C11S13045   2.899   4.752   7.832 -0.3706  0.2375  0.0678
  123OSM   H11S13046   2.850   4.852   7.828  1.6371  1.2510 -0.7661
  123OSM   H11T13047   3.004   4.762   7.798  0.1064 -0.5591  1.2245
  123OSM   C12S13048   2.902   4.703   7.978 -0.0998 -0.7449  0.2771
  123OSM   H12S13049   2.967   4.613   7.977  0.1815 -0.5497 -1.0721
  123OSM   H12T13050   2.806   4.661   8.014 -1.2275  2.5402  1.4211
  123OSM   C13S13051   2.964   4.811   8.066 -0.3164 -0.4525 -0.4730
  123OSM   H13S13052   2.901   4.903   8.056  0.9018  0.3383 -1.0624
  123OSM   H13T13053   3.061   4.841   8.021 -1.1092  2.2923 -0.5679
  123OSM   C14S13054   2.982   4.766   8.216 -0.4146 -0.3526 -0.4046
  123OSM   H14S13055   2.884   4.742   8.264 -0.8451 -0.5330 -1.3621
  123OSM   H14T13056   3.032   4.845   8.277 -2.8047  1.1448 -0.2269
  123OSM   C15S13057   3.058   4.634   8.235  0.1847  0.3660  0.6877
  123OSM   H15S13058   3.005   4.556   8.176  3.7292 -1.6009 -0.2092
  123OSM   H15T13059   3.049   4.603   8.341  1.9749 -2.6251  0.0683
  123OSM   C16S13060   3.207   4.641   8.212 -0.1737  0.4024  0.0856
  123OSM   H16S13061   3.248   4.713   8.286 -1.0143 -1.3969  2.4000
  123OSM   H16T13062   3.226   4.690   8.114 -0.6834 -0.6632 -0.5595
  123OSM   C17S13063   3.279   4.510   8.217  0.2576  0.6571 -0.0102
  123OSM   H17S13064   3.251   4.453   8.126  2.7018  1.3629 -1.2861
  123OSM   H17T13065   3.248   4.457   8.311 -0.7789  0.5321 -0.4017
  123OSM   C18S13066   3.428   4.533   8.218  0.0451  0.5711 -0.5018
  123OSM   H18S13067   3.466   4.566   8.119 -1.4517  1.6346 -0.7474
  123OSM   H18T13068   3.478   4.436   8.242  1.2938  0.8987 -1.6282
  123OSM   H18U13069   3.474   4.605   8.289 -1.8979  0.8423  0.5373
  123OSM    C1F13070   2.432   4.809   6.861 -0.3743 -0.3447  0.7163
  123OSM     OF13071   2.338   4.754   6.806 -0.4370 -0.0006  0.4445
  123OSM    C2F13072   2.445   4.960   6.881  0.2157  0.3557 -0.1358
  123OSM    H2F13073   2.446   5.010   6.781  0.0077 -2.4910 -1.6478
  123OSM    H2G13074   2.539   4.980   6.937 -1.0370  1.8028  1.5925
  123OSM    C3F13075   2.320   5.021   6.949 -0.0071  0.3984  0.7660
  123OSM    H3F13076   2.227   4.992   6.896 -0.7742  1.0825  1.7093
  123OSM    H3G13077   2.309   5.128   6.922  0.4456  0.2730  0.0350
  123OSM    C4F13078   2.293   4.999   7.094  0.1112  0.2979 -0.4755
  123OSM    H4F13079   2.275   4.889   7.104  1.9949 -0.1193 -1.2449
  123OSM    H4G13080   2.201   5.050   7.129  0.1209  0.2827 -0.4278
  123OSM    C5F13081   2.423   5.016   7.181  0.2957  0.2980  1.1824
  123OSM    H5F13082   2.487   5.091   7.130  2.3188 -1.7402  0.5257
  123OSM    H5G13083   2.488   4.926   7.190  0.0742  0.1107  0.9019
  123OSM    C6F13084   2.390   5.062   7.319  0.2467 -0.0294 -0.8622
  123OSM    H6F13085   2.320   4.988   7.363  0.5901  1.0623  1.6887
  123OSM    H6G13086   2.349   5.165   7.314  0.4203  0.1435  0.6574
  123OSM    C7F13087   2.511   5.063   7.406 -0.1326 -0.2563 -0.5086
  123OSM    H7F13088   2.582   5.126   7.347  0.2949 -0.9844 -0.7876
  123OSM    H7G13089   2.559   4.963   7.400 -1.1157 -0.7398 -0.4317
  123OSM    C8F13090   2.482   5.097   7.551 -0.4272 -0.2637 -0.8866
  123OSM    H8F13091   2.435   5.013   7.606 -2.2031  0.7528 -0.7859
  123OSM    H8G13092   2.406   5.178   7.545 -0.9949 -0.8685 -2.3406
  123OSM    C9F13093   2.614   5.133   7.622  0.4357  0.4810 -0.3010
  123OSM    H9F13094   2.671   5.211   7.571 -0.5315  1.3229 -0.1282
  123OSM   C10F13095   2.663   5.086   7.740 -0.4384 -0.5777 -0.0179
  123OSM   H10F13096   2.764   5.120   7.764  0.3033 -2.3670 -0.4724
  123OSM   C11F13097   2.593   4.987   7.826  0.1727 -0.2797  0.2240
  123OSM   H11F13098   2.645   4.893   7.797  0.5385  0.2484 -0.9031
  123OSM   H11G13099   2.486   4.974   7.798 -0.1716 -0.1083  1.4092
  123OSM   C12F13100   2.603   5.018   7.979  0.0436 -0.8285  0.2188
  123OSM   H12F13101   2.538   5.105   8.000  2.1854  0.8243  0.3741
  123OSM   H12G13102   2.705   5.062   7.989  0.0556  0.4165 -3.5851
  123OSM   C13F13103   2.570   4.889   8.064  0.2143 -0.1711 -0.0692
  123OSM   H13F13104   2.617   4.807   8.006  0.5215  0.1613 -0.3010
  123OSM   H13G13105   2.465   4.862   8.038  0.5291 -0.7128 -0.8141
  123OSM   C14F13106   2.606   4.889   8.208  0.1578 -0.8032  0.7624
  123OSM   H14F13107   2.569   4.976   8.266  2.0694  2.3898 -2.3771
  123OSM   H14G13108   2.716   4.896   8.207  0.1468  0.3570 -1.7597
  123OSM   C15F13109   2.556   4.762   8.285  0.5957  0.8981 -0.6734
  123OSM   H15F13110   2.617   4.673   8.259 -1.5805 -0.3937 -1.6320
  123OSM   H15G13111   2.457   4.740   8.239  0.2573  0.9754  0.0166
  123OSM   C16F13112   2.540   4.779   8.441 -0.7693 -0.5232 -0.2235
  123OSM   H16F13113   2.497   4.692   8.495 -1.4747  1.2926  2.3209
  123OSM   H16G13114   2.464   4.858   8.462 -2.2287 -1.8717 -0.2252
  123OSM   C17F13115   2.681   4.801   8.500 -0.1597 -0.1628 -0.7028
  123OSM   H17F13116   2.671   4.854   8.597 -1.5934 -0.2675 -0.7637
  123OSM   H17G13117   2.737   4.868   8.431 -0.7845  0.4842 -0.6003
  123OSM   C18F13118   2.755   4.669   8.523 -0.0077  0.3236  0.0600
  123OSM   H18F13119   2.695   4.595   8.580  0.6888 -1.9175 -1.9605
  123OSM   H18G13120   2.848   4.679   8.583  0.3232 -1.0149 -0.1938
  123OSM   H18H13121   2.781   4.614   8.430 -0.7738  0.0894 -0.0187
  124OSM      N13122   3.434   0.285   5.956  0.1306  0.2786  0.1646
  124OSM    C1513123   3.412   0.400   6.051 -0.7761 -0.8971  0.9093
  124OSM   H15A13124   3.378   0.491   6.005  0.2016 -0.0272  1.8766
  124OSM   H15B13125   3.511   0.424   6.087 -1.1490 -0.7469  1.8343
  124OSM   H15C13126   3.343   0.376   6.130  2.0072  1.0335  4.2024
  124OSM    C1413127   3.539   0.319   5.855  0.3222  0.5945 -0.4183
  124OSM   H14A13128   3.496   0.384   5.781  0.6871  3.9411  2.0334
  124OSM   H14B13129   3.579   0.227   5.815  0.6331  0.2735  0.5996
  124OSM   H14C13130   3.617   0.382   5.896 -0.1807 -0.3213  2.1643
  124OSM    C1313131   3.509   0.165   6.031  0.2249 -0.3056 -0.3678
  124OSM   H13A13132   3.591   0.205   6.088 -0.1068 -0.7198  0.4039
  124OSM   H13B13133   3.535   0.092   5.955  2.1939 -0.5386  0.4867
  124OSM   H13C13134   3.436   0.128   6.101  1.2311  2.3370  2.2965
  124OSM    C1213135   3.303   0.241   5.896 -0.4021  0.5314  0.4320
  124OSM   H12A13136   3.323   0.182   5.807 -1.3496 -0.2998  0.7547
  124OSM   H12B13137   3.242   0.326   5.870 -0.9748 -0.5061 -1.8567
  124OSM    C1113138   3.212   0.159   5.988 -0.0852  0.4925  0.0565
  124OSM   H11A13139   3.112   0.141   5.944 -0.6490  0.2988  1.3652
  124OSM   H11B13140   3.189   0.226   6.073 -2.6597  3.2656 -2.5731
  124OSM      P13141   3.186  -0.077   6.108  0.2547  0.2912 -0.3262
  124OSM    O1313142   3.108  -0.157   6.008 -0.2144 -0.1024 -1.0051
  124OSM    O1413143   3.294  -0.152   6.181  0.0204 -0.3363  0.3862
  124OSM    O1113144   3.097   0.014   6.200  0.2993 -0.0958 -0.6392
  124OSM    O1213145   3.264   0.035   6.029  1.0170 -0.0785  0.6521
  124OSM    C1S13146   3.155   0.070   6.319  0.7346 -0.6496  0.5895
  124OSM    H1S13147   3.226   0.151   6.295 -0.6047  1.1437  2.3797
  124OSM    H1T13148   3.184  -0.014   6.386 -0.8211 -2.4683 -0.8978
  124OSM     NF13149   3.107   0.201   6.520 -0.3513 -1.0594  0.4097
  124OSM    HNF13150   3.070   0.176   6.609 -3.3274  2.5078  0.4800
  124OSM    C2S13151   3.042   0.149   6.402 -0.6563  0.3555  0.5573
  124OSM    H2S13152   3.009   0.236   6.342 -0.5448 -0.7374 -1.1518
  124OSM    C3S13153   2.918   0.056   6.419  0.4666  0.4132 -0.4786
  124OSM    H3S13154   2.956  -0.039   6.464  1.0998  0.2214 -1.3938
  124OSM     O313155   2.858   0.008   6.301 -0.0522 -0.1836 -0.1018
  124OSM    HO313156   2.922   0.025   6.232 -0.5496 -0.6099 -0.6706
  124OSM    C4S13157   2.818   0.116   6.516  0.3786  0.4442 -0.2343
  124OSM    H4S13158   2.838   0.097   6.622 -2.1629 -3.1043 -0.2195
  124OSM    C5S13159   2.704   0.182   6.480  0.6567 -0.0494 -0.3627
  124OSM    H5S13160   2.691   0.189   6.371  1.3150 -1.5127 -0.5657
  124OSM    C6S13161   2.595   0.241   6.564  0.5438 -0.3352  0.3862
  124OSM    H6S13162   2.505   0.175   6.563 -1.1442  1.7835 -2.7006
  124OSM    H6T13163   2.561   0.335   6.516 -1.2666 -0.4731  1.2783
  124OSM    C7S13164   2.635   0.285   6.702  0.1353  0.3572 -0.7063
  124OSM    H7S13165   2.674   0.389   6.704 -2.5872  1.4692  1.5100
  124OSM    H7T13166   2.717   0.220   6.739 -1.1137 -0.4090  0.8245
  124OSM    C8S13167   2.529   0.260   6.818  0.0500  0.1066  0.4082
  124OSM    H8S13168   2.537   0.150   6.831  0.6718 -0.1671 -1.8762
  124OSM    H8T13169   2.426   0.296   6.796  1.2411  1.7845 -3.1457
  124OSM    C9S13170   2.590   0.326   6.946 -0.0124  0.5353  0.6662
  124OSM    H9S13171   2.584   0.436   6.934 -0.9149  0.3526 -0.8013
  124OSM    H9T13172   2.699   0.306   6.956  0.0448  1.4961  2.3358
  124OSM   C10S13173   2.517   0.293   7.080  0.3498 -0.9831 -0.4996
  124OSM   H10S13174   2.526   0.184   7.098 -0.5542 -1.4505 -2.5958
  124OSM   H10T13175   2.410   0.321   7.071 -0.2145 -2.9812 -0.3766
  124OSM   C11S13176   2.583   0.367   7.198  0.4334 -0.9689  0.4220
  124OSM   H11S13177   2.577   0.478   7.190  2.3318 -0.7419  1.6235
  124OSM   H11T13178   2.691   0.340   7.196  0.6454 -0.1674  0.7771
  124OSM   C12S13179   2.523   0.329   7.334 -0.2186  0.0584 -0.5254
  124OSM   H12S13180   2.535   0.219   7.338  1.9429  0.2119 -1.0184
  124OSM   H12T13181   2.416   0.358   7.342 -0.4012 -0.2785 -1.6147
  124OSM   C13S13182   2.610   0.393   7.445 -0.3416 -0.3045  0.4556
  124OSM   H13S13183   2.573   0.497   7.459 -2.3747 -1.1564  1.9301
  124OSM   H13T13184   2.720   0.381   7.434 -0.2076  0.0840  1.3196
  124OSM   C14S13185   2.590   0.337   7.589 -0.2038 -0.2274  0.2455
  124OSM   H14S13186   2.647   0.242   7.601  1.8289  0.6188 -1.7707
  124OSM   H14T13187   2.482   0.328   7.610 -0.4817  1.0836 -0.5131
  124OSM   C15S13188   2.660   0.421   7.697  0.3391 -0.0739  0.5883
  124OSM   H15S13189   2.633   0.528   7.700 -0.1166 -0.1740  0.0906
  124OSM   H15T13190   2.771   0.408   7.696  0.3635  0.1777 -0.5107
  124OSM   C16S13191   2.641   0.367   7.839 -0.2931 -0.1424  0.1525
  124OSM   H16S13192   2.658   0.257   7.844 -3.5033 -0.7002  1.4737
  124OSM   H16T13193   2.534   0.376   7.867 -0.3241 -1.6942  0.6475
  124OSM   C17S13194   2.727   0.427   7.941  0.2261 -0.0295 -0.1952
  124OSM   H17S13195   2.703   0.535   7.949 -0.5088 -0.1751 -0.3410
  124OSM   H17T13196   2.836   0.421   7.922 -0.1013 -2.3808 -1.8120
  124OSM   C18S13197   2.705   0.371   8.088 -0.5023 -0.0679 -0.1622
  124OSM   H18S13198   2.601   0.385   8.126  0.2137  1.3153  1.4535
  124OSM   H18T13199   2.770   0.422   8.163 -1.5986  0.6735  0.3193
  124OSM   H18U13200   2.745   0.268   8.094  1.3983  0.4648 -2.2366
  124OSM    C1F13201   3.216   0.283   6.520  0.2312  0.2508 -0.2426
  124OSM     OF13202   3.245   0.355   6.426  0.1087 -0.4031  0.7798
  124OSM    C2F13203   3.296   0.272   6.642  0.2283 -0.0516  0.0749
  124OSM    H2F13204   3.346   0.174   6.636  2.0029  0.8958 -1.5703
  124OSM    H2G13205   3.223   0.255   6.724 -1.6315  0.2236 -1.4486
  124OSM    C3F13206   3.384   0.389   6.664 -0.0782 -0.2626 -0.2170
  124OSM    H3F13207   3.338   0.482   6.625 -0.4234 -0.8671 -1.2811
  124OSM    H3G13208   3.479   0.389   6.606  1.3465 -1.2317  1.9816
  124OSM    C4F13209   3.395   0.416   6.819  0.4507  0.2472 -0.1132
  124OSM    H4F13210   3.419   0.318   6.866  2.0912  0.6546 -0.0218
  124OSM    H4G13211   3.295   0.448   6.856 -0.2288  0.0471 -1.7144
  124OSM    C5F13212   3.506   0.509   6.849  0.2195 -0.0058  0.4810
  124OSM    H5F13213   3.513   0.594   6.778 -0.6111  0.3516  0.8160
  124OSM    H5G13214   3.602   0.457   6.828 -0.5947 -1.5847  0.5184
  124OSM    C6F13215   3.507   0.575   6.988  0.1389  0.2516 -0.1423
  124OSM    H6F13216   3.407   0.622   7.002 -0.2451  0.2458 -2.4511
  124OSM    H6G13217   3.581   0.658   6.982 -0.8361  1.0661 -1.6321
  124OSM    C7F13218   3.555   0.484   7.105  0.7777 -0.3390 -0.1338
  124OSM    H7F13219   3.666   0.478   7.107  0.8084  0.0574 -0.6100
  124OSM    H7G13220   3.521   0.383   7.075  1.6149 -0.6074 -0.2046
  124OSM    C8F13221   3.509   0.500   7.253  0.7643  0.1587  0.2720
  124OSM    H8F13222   3.547   0.410   7.307  0.8106 -0.1229 -0.2181
  124OSM    H8G13223   3.398   0.494   7.249  0.8499 -1.2550 -2.0170
  124OSM    C9F13224   3.542   0.633   7.310 -0.0316  0.3538  0.0439
  124OSM    H9F13225   3.501   0.719   7.255 -0.9398 -0.3574 -0.4291
  124OSM   C10F13226   3.611   0.669   7.423  0.6557  0.3725  0.3149
  124OSM   H10F13227   3.623   0.775   7.450 -2.2551  1.0576 -0.7293
  124OSM   C11F13228   3.670   0.570   7.518  0.5952 -0.6301 -0.2244
  124OSM   H11F13229   3.633   0.465   7.514  1.3900 -0.8955 -1.4145
  124OSM   H11G13230   3.648   0.598   7.623  1.5306  0.5450 -0.3221
  124OSM   C12F13231   3.827   0.566   7.502 -0.2317  0.8102  0.1290
  124OSM   H12F13232   3.873   0.667   7.501  2.2377 -0.2459  0.2148
  124OSM   H12G13233   3.850   0.521   7.403  1.2191  2.3316 -0.2619
  124OSM   C13F13234   3.884   0.467   7.604 -0.0726 -0.3266  0.7338
  124OSM   H13F13235   3.992   0.449   7.584 -0.5698 -1.4765 -1.1667
  124OSM   H13G13236   3.828   0.373   7.588 -1.9285  0.6202  1.3620
  124OSM   C14F13237   3.853   0.504   7.753 -0.0021  0.4775 -0.1753
  124OSM   H14F13238   3.890   0.412   7.802 -0.6388 -1.2010 -2.6249
  124OSM   H14G13239   3.744   0.504   7.773  0.2614  0.6939  1.3286
  124OSM   C15F13240   3.930   0.613   7.825  0.3648 -0.4897  0.3264
  124OSM   H15F13241   3.901   0.713   7.786 -0.7845 -0.7402  0.5127
  124OSM   H15G13242   4.037   0.593   7.802  0.2179  0.0751 -0.9621
  124OSM   C16F13243   3.929   0.622   7.975 -0.6983 -0.6977 -0.2392
  124OSM   H16F13244   3.943   0.520   8.017 -4.2158 -0.6850  1.2684
  124OSM   H16G13245   3.828   0.658   8.003 -0.8147 -1.8905  0.9661
  124OSM   C17F13246   4.043   0.713   8.029 -0.4617 -0.1717  0.6175
  124OSM   H17F13247   4.131   0.662   7.984 -0.0149  1.1021  0.0249
  124OSM   H17G13248   4.048   0.695   8.139 -0.9671 -2.3945  0.3271
  124OSM   C18F13249   4.041   0.859   7.980  0.3794  0.2332  0.1469
  124OSM   H18F13250   4.055   0.871   7.870 -1.0362 -1.2085 -0.2351
  124OSM   H18G13251   4.117   0.914   8.039  1.2731 -0.7325 -0.0582
  124OSM   H18H13252   3.940   0.902   7.994 -0.2996 -1.5670  1.2516
  125OSM      N13253   5.367   1.805   5.731  0.1662  0.4825  0.0581
  125OSM    C1513254   5.269   1.809   5.838  0.6178  0.0757  0.1138
  125OSM   H15A13255   5.323   1.835   5.928  2.2408 -0.4706 -0.6696
  125OSM   H15B13256   5.226   1.711   5.852  1.5880 -0.1583  1.7973
  125OSM   H15C13257   5.180   1.867   5.819  1.4385  2.3202  2.4347
  125OSM    C1413258   5.314   1.716   5.627  0.2264  0.6957  0.0100
  125OSM   H14A13259   5.211   1.740   5.604  0.8412  2.2320 -1.3422
  125OSM   H14B13260   5.304   1.617   5.668 -0.4985  1.2988  1.3807
  125OSM   H14C13261   5.381   1.709   5.543 -0.3158 -2.2122 -0.2631
  125OSM    C1313262   5.394   1.938   5.671 -0.0639 -0.4656  0.3070
  125OSM   H13A13263   5.431   2.009   5.744  0.0347 -1.0471  0.8307
  125OSM   H13B13264   5.312   1.992   5.627  0.8950 -0.9045 -2.2187
  125OSM   H13C13265   5.460   1.924   5.587  0.7970 -1.8355  1.1759
  125OSM    C1213266   5.498   1.758   5.777  0.4246 -0.1877  1.1942
  125OSM   H12A13267   5.536   1.822   5.856  1.0711  1.0166 -0.0444
  125OSM   H12B13268   5.561   1.770   5.691 -0.4920  1.7327  0.7327
  125OSM    C1113269   5.510   1.605   5.827 -0.2807 -0.1241  0.3118
  125OSM   H11A13270   5.612   1.597   5.871 -0.5587 -2.4720  0.6630
  125OSM   H11B13271   5.499   1.536   5.741 -0.9418 -0.1412  0.4065
  125OSM      P13272   5.399   1.579   6.072  0.2831  0.1966 -0.0440
  125OSM    O1313273   5.447   1.709   6.117  0.1186 -0.5163  0.0268
  125OSM    O1413274   5.257   1.557   6.115 -0.0895  0.9604 -0.1972
  125OSM    O1113275   5.484   1.456   6.124  0.4755 -0.0102 -0.2612
  125OSM    O1213276   5.405   1.576   5.922 -0.5591  0.0583  0.5723
  125OSM    C1S13277   5.597   1.460   6.205 -0.3717 -0.2767  0.1649
  125OSM    H1S13278   5.632   1.565   6.214 -3.8981  0.9324  1.6794
  125OSM    H1T13279   5.680   1.403   6.157 -0.3802  0.6462 -0.9762
  125OSM     NF13280   5.697   1.446   6.424  0.2505  0.2411 -0.0717
  125OSM    HNF13281   5.768   1.377   6.436 -0.7132 -0.3545  3.2232
  125OSM    C2S13282   5.574   1.408   6.354 -0.2299  0.1078  0.1517
  125OSM    H2S13283   5.485   1.454   6.403 -1.0804 -0.6666 -0.6426
  125OSM    C3S13284   5.552   1.250   6.359 -0.2954  0.0651 -0.1737
  125OSM    H3S13285   5.634   1.191   6.313 -0.7915 -0.4509 -0.4079
  125OSM     O313286   5.447   1.214   6.274  0.0998  0.0454  0.6090
  125OSM    HO313287   5.425   1.299   6.235  0.7270 -0.2829 -0.4917
  125OSM    C4S13288   5.553   1.196   6.496  0.6576  0.0037 -0.4504
  125OSM    H4S13289   5.639   1.129   6.514  1.1527  0.1806 -1.9950
  125OSM    C5S13290   5.460   1.213   6.588  0.2855  0.7130 -0.4396
  125OSM    H5S13291   5.369   1.265   6.553 -0.4337  0.1723  0.5871
  125OSM    C6S13292   5.461   1.159   6.731 -0.6055 -0.1926 -0.4482
  125OSM    H6S13293   5.358   1.148   6.772 -1.0505  1.4672 -1.0530
  125OSM    H6T13294   5.511   1.230   6.801 -2.5727  1.8792 -1.0433
  125OSM    C7S13295   5.528   1.018   6.752 -0.3658 -0.4928 -0.1068
  125OSM    H7S13296   5.628   1.012   6.704 -1.0745 -0.7180 -1.6332
  125OSM    H7T13297   5.457   0.949   6.702 -1.9118  0.9203  0.0463
  125OSM    C8S13298   5.535   0.986   6.899  0.3634 -0.4341 -0.0687
  125OSM    H8S13299   5.616   1.050   6.938 -0.8629  0.2333  1.5071
  125OSM    H8T13300   5.548   0.876   6.913 -0.4812 -0.5193  0.1356
  125OSM    C9S13301   5.418   1.030   6.994  1.2923  0.2639 -0.6411
  125OSM    H9S13302   5.325   0.978   6.961  1.8304 -1.6309  0.6351
  125OSM    H9T13303   5.398   1.139   6.999 -1.8320 -0.1942 -1.0539
  125OSM   C10S13304   5.439   0.976   7.134 -0.2655 -0.4610 -0.3647
  125OSM   H10S13305   5.458   0.867   7.125 -2.6481 -0.8990 -0.5418
  125OSM   H10T13306   5.341   0.987   7.186  0.1380  0.0567  0.3151
  125OSM   C11S13307   5.558   1.038   7.211  0.1909  0.4096  0.0210
  125OSM   H11S13308   5.552   1.149   7.201  1.0461  0.4151 -0.5361
  125OSM   H11T13309   5.652   1.019   7.156  0.2529 -1.1127  0.6075
  125OSM   C12S13310   5.566   0.998   7.363 -0.6051  0.1202 -0.4769
  125OSM   H12S13311   5.659   1.050   7.394 -0.4681 -0.8853  0.8816
  125OSM   H12T13312   5.591   0.890   7.369 -0.4889  0.2141  1.6107
  125OSM   C13S13313   5.445   1.038   7.449 -0.5368  0.1226  0.5178
  125OSM   H13S13314   5.368   0.960   7.430  1.0012 -0.8675 -2.3106
  125OSM   H13T13315   5.392   1.125   7.405 -0.6067 -0.0604  0.2358
  125OSM   C14S13316   5.470   1.061   7.600 -0.2485  0.8330  0.2460
  125OSM   H14S13317   5.496   1.168   7.614  0.7965  0.5465  0.5908
  125OSM   H14T13318   5.554   0.994   7.628 -1.0989 -0.7113 -0.7504
  125OSM   C15S13319   5.368   1.003   7.700  0.1595 -0.3931  0.4546
  125OSM   H15S13320   5.384   0.893   7.705  1.0603 -0.2047  2.9913
  125OSM   H15T13321   5.269   1.031   7.658  1.0456  2.6520  0.1496
  125OSM   C16S13322   5.383   1.073   7.840  0.2624  0.1040  0.0414
  125OSM   H16S13323   5.384   1.182   7.818 -0.3903 -0.0638 -0.8784
  125OSM   H16T13324   5.479   1.041   7.884  0.6338 -1.1451 -1.5860
  125OSM   C17S13325   5.269   1.044   7.942  0.7756  0.5081  0.3255
  125OSM   H17S13326   5.259   0.934   7.955  0.2006  0.4903 -0.2379
  125OSM   H17T13327   5.180   1.083   7.889  1.0590  0.3035 -0.3050
  125OSM   C18S13328   5.285   1.108   8.080  0.1581 -0.1298 -0.7548
  125OSM   H18S13329   5.342   1.050   8.156 -0.0261 -1.4875 -1.6146
  125OSM   H18T13330   5.187   1.116   8.133  0.4925  0.5040 -0.2167
  125OSM   H18U13331   5.322   1.212   8.074 -2.7898  1.2248  1.6944
  125OSM    C1F13332   5.740   1.573   6.447 -0.1368  0.2704 -0.0629
  125OSM     OF13333   5.656   1.662   6.470 -0.7382  0.2160  0.1533
  125OSM    C2F13334   5.889   1.604   6.444  0.5309 -0.4606 -0.1542
  125OSM    H2F13335   5.908   1.661   6.351  0.5453 -0.4076 -0.1190
  125OSM    H2G13336   5.945   1.509   6.435 -0.0503 -0.7103 -1.2456
  125OSM    C3F13337   5.948   1.689   6.564  0.1970 -0.0849 -0.3265
  125OSM    H3F13338   5.901   1.788   6.552  0.9830  0.2780 -0.4783
  125OSM    H3G13339   6.055   1.710   6.541  0.0837  0.2691 -0.5411
  125OSM    C4F13340   5.924   1.626   6.696 -0.2347  0.4080  0.1656
  125OSM    H4F13341   5.815   1.605   6.701 -0.3359  1.1865  2.0323
  125OSM    H4G13342   5.950   1.705   6.769 -1.5557  0.9670  0.0562
  125OSM    C5F13343   6.008   1.498   6.721  0.8001  0.2014 -0.3204
  125OSM    H5F13344   6.114   1.521   6.698  0.7557 -0.9827 -1.8442
  125OSM    H5G13345   5.960   1.425   6.652  1.6535 -1.8447  1.1272
  125OSM    C6F13346   6.005   1.449   6.867  0.1489 -0.3932  0.2762
  125OSM    H6F13347   5.898   1.455   6.896  0.1539  1.6381  0.0395
  125OSM    H6G13348   6.051   1.531   6.926  0.6546  0.7264 -1.5734
  125OSM    C7F13349   6.069   1.311   6.881  0.1456 -0.6163  0.4989
  125OSM    H7F13350   6.180   1.316   6.888  0.1212  0.9408  0.0591
  125OSM    H7G13351   6.039   1.258   6.788 -2.5429 -0.0927  1.0078
  125OSM    C8F13352   6.019   1.226   7.001  0.1407  0.4958  0.0070
  125OSM    H8F13353   6.069   1.269   7.091  0.0840 -0.0256  0.2927
  125OSM    H8G13354   6.049   1.120   6.986 -0.5882  0.1739  0.7345
  125OSM    C9F13355   5.873   1.232   7.016 -0.0061  0.8856 -0.0232
  125OSM    H9F13356   5.825   1.176   6.934  1.7225 -0.8683  0.0991
  125OSM   C10F13357   5.795   1.296   7.105  0.7004  0.0939  0.1735
  125OSM   H10F13358   5.685   1.288   7.103  0.3672  3.0900  1.1735
  125OSM   C11F13359   5.842   1.384   7.224  0.1178 -0.0329  1.1508
  125OSM   H11F13360   5.818   1.493   7.216  0.1095 -0.1496 -1.4235
  125OSM   H11G13361   5.953   1.380   7.232  0.0499  0.0423  2.2247
  125OSM   C12F13362   5.797   1.322   7.350  0.0401 -0.0230 -0.6395
  125OSM   H12F13363   5.861   1.232   7.363 -1.0594 -0.9009 -1.0646
  125OSM   H12G13364   5.693   1.281   7.343 -0.1782  0.6287 -1.2828
  125OSM   C13F13365   5.826   1.399   7.481  0.6849 -0.0496  0.0499
  125OSM   H13F13366   5.761   1.489   7.484 -0.6277 -0.9987  1.7655
  125OSM   H13G13367   5.924   1.447   7.461 -0.0364  1.0128 -1.0811
  125OSM   C14F13368   5.836   1.321   7.615  0.2297  0.0211 -0.0861
  125OSM   H14F13369   5.945   1.329   7.630  0.3734  0.8253 -1.4221
  125OSM   H14G13370   5.798   1.217   7.604 -0.0195  0.1044 -0.0390
  125OSM   C15F13371   5.783   1.381   7.742  0.1270  0.7480 -0.3604
  125OSM   H15F13372   5.806   1.489   7.754 -1.1734  0.9676  0.3315
  125OSM   H15G13373   5.840   1.338   7.827 -1.6757 -0.1428  0.4379
  125OSM   C16F13374   5.643   1.352   7.770  0.1257  0.0371  0.4397
  125OSM   H16F13375   5.635   1.242   7.762 -1.6097  0.2209 -1.1616
  125OSM   H16G13376   5.578   1.367   7.681  2.1970  0.2141 -1.1060
  125OSM   C17F13377   5.588   1.411   7.901 -0.6079  0.3644 -0.0644
  125OSM   H17F13378   5.635   1.364   7.989 -0.1984 -0.3007 -0.6272
  125OSM   H17G13379   5.482   1.379   7.908 -0.8384  0.8173 -1.1974
  125OSM   C18F13380   5.580   1.563   7.900 -0.4170  0.3686  0.8016
  125OSM   H18F13381   5.537   1.610   7.991  1.7847  1.0652  1.5440
  125OSM   H18G13382   5.514   1.601   7.819 -0.3056 -1.7135 -0.3461
  125OSM   H18H13383   5.681   1.607   7.890 -1.0852  1.5753 -1.3601
  126OSM      N13384   4.162   5.766   6.409  0.0689 -0.2614  0.2569
  126OSM    C1513385   4.068   5.887   6.413  0.1875  0.4659  0.8769
  126OSM   H15A13386   4.055   5.934   6.317  0.0533 -1.9365 -0.3517
  126OSM   H15B13387   4.086   5.964   6.487 -0.0625  1.2381  0.1462
  126OSM   H15C13388   3.967   5.853   6.433 -0.3645  2.8576  2.5902
  126OSM    C1413389   4.117   5.664   6.307 -0.1010 -0.6154 -0.9318
  126OSM   H14A13390   4.191   5.587   6.316  0.2203 -0.1489  0.9420
  126OSM   H14B13391   4.128   5.694   6.204  2.3115 -0.3521 -0.6472
  126OSM   H14C13392   4.019   5.628   6.335 -0.2357  0.9493  0.8439
  126OSM    C1313393   4.296   5.815   6.355  0.3202 -1.0591 -0.3872
  126OSM   H13A13394   4.349   5.727   6.320  1.8951  0.4687 -2.0015
  126OSM   H13B13395   4.359   5.865   6.427  1.9849  1.3481 -3.3483
  126OSM   H13C13396   4.296   5.897   6.286  2.8909  1.2509  2.0678
  126OSM    C1213397   4.183   5.701   6.544  0.5118 -0.2849 -0.2182
  126OSM   H12A13398   4.090   5.652   6.566  0.5203 -0.6996 -1.0668
  126OSM   H12B13399   4.195   5.787   6.608 -1.3683 -1.3025  1.6217
  126OSM    C1113400   4.288   5.592   6.566 -0.4517 -0.4151 -0.6376
  126OSM   H11A13401   4.287   5.566   6.674 -1.6758 -2.2454 -1.0307
  126OSM   H11B13402   4.394   5.618   6.545  0.0695 -2.2501 -0.4784
  126OSM      P13403   4.365   5.376   6.441 -0.0707  0.4022  0.1113
  126OSM    O1313404   4.304   5.280   6.345  0.1272  0.2445  0.0415
  126OSM    O1413405   4.487   5.447   6.396 -0.1315  0.6316 -0.1302
  126OSM    O1113406   4.399   5.294   6.576  0.2767 -0.0587 -0.1720
  126OSM    O1213407   4.255   5.478   6.486  1.0810 -0.5919  0.2353
  126OSM    C1S13408   4.289   5.252   6.662  0.8723 -0.2643 -0.2332
  126OSM    H1S13409   4.237   5.166   6.615 -1.8457  1.5518 -0.7725
  126OSM    H1T13410   4.209   5.328   6.674 -1.1405 -2.6237  3.1393
  126OSM     NF13411   4.216   5.174   6.887 -0.1566 -0.3871 -0.2753
  126OSM    HNF13412   4.175   5.241   6.948  0.5860 -0.8385  0.7342
  126OSM    C2S13413   4.329   5.219   6.809 -0.0053  0.4273  0.4124
  126OSM    H2S13414   4.417   5.151   6.804  1.4708  2.2997 -0.3499
  126OSM    C3S13415   4.395   5.344   6.873 -0.6252 -0.0841  0.2519
  126OSM    H3S13416   4.317   5.422   6.886 -1.0069  0.0262 -2.1726
  126OSM     O313417   4.494   5.413   6.787 -0.0886  0.0193 -1.0451
  126OSM    HO313418   4.482   5.367   6.704  0.7938  0.0643 -1.2003
  126OSM    C4S13419   4.450   5.323   7.020 -0.0597  0.5492  0.5096
  126OSM    H4S13420   4.373   5.340   7.097  0.0659  0.3519  0.6797
  126OSM    C5S13421   4.570   5.274   7.052  0.3455  0.4450  0.0961
  126OSM    H5S13422   4.648   5.252   6.978  1.9045  1.7863  1.2623
  126OSM    C6S13423   4.593   5.262   7.202 -0.3693  0.2924 -0.4989
  126OSM    H6S13424   4.559   5.352   7.258  0.2682  0.7317 -0.8054
  126OSM    H6T13425   4.703   5.247   7.214 -0.5358 -1.7177 -1.0613
  126OSM    C7S13426   4.531   5.139   7.266 -0.2851 -0.0438 -0.4851
  126OSM    H7S13427   4.566   5.052   7.208  2.9046  0.5566  0.3562
  126OSM    H7T13428   4.420   5.139   7.257 -0.3549  2.3661 -0.3584
  126OSM    C8S13429   4.581   5.129   7.413 -0.0240 -0.3060 -0.2661
  126OSM    H8S13430   4.532   5.214   7.464 -0.5780 -0.1711 -1.0028
  126OSM    H8T13431   4.691   5.142   7.405 -0.2518  1.3165 -1.1377
  126OSM    C9S13432   4.531   5.003   7.477  0.1912  0.1455  0.1836
  126OSM    H9S13433   4.543   4.923   7.401  0.6030 -0.9669  1.3865
  126OSM    H9T13434   4.421   5.017   7.489 -0.2351 -1.2382 -1.5592
  126OSM   C10S13435   4.586   4.955   7.617  0.2660 -0.6833 -0.1549
  126OSM   H10S13436   4.692   4.924   7.624  0.8204  0.7811 -1.6624
  126OSM   H10T13437   4.524   4.872   7.657 -1.2973  1.5885  2.5542
  126OSM   C11S13438   4.579   5.054   7.741  0.1123  0.2507  0.3247
  126OSM   H11S13439   4.477   5.098   7.750  0.0702 -0.2230  2.9212
  126OSM   H11T13440   4.657   5.132   7.732  1.6560 -1.1758  0.7372
  126OSM   C12S13441   4.598   4.976   7.873 -0.0301  0.6686  0.2726
  126OSM   H12S13442   4.693   4.919   7.879 -0.2819  0.3509  1.5439
  126OSM   H12T13443   4.515   4.902   7.876  0.3175  0.2924  0.9555
  126OSM   C13S13444   4.596   5.063   7.998 -0.1723  0.2321  0.2889
  126OSM   H13S13445   4.555   5.007   8.085  0.0778 -0.2596  0.0885
  126OSM   H13T13446   4.523   5.143   7.972 -1.6193 -1.6040 -1.5324
  126OSM   C14S13447   4.736   5.122   8.034  0.5524  0.6207  0.2234
  126OSM   H14S13448   4.785   5.171   7.948 -0.0080  3.5454  1.4504
  126OSM   H14T13449   4.795   5.033   8.065 -1.1407 -0.2919  0.9652
  126OSM   C15S13450   4.730   5.219   8.152  0.3269  0.2357  0.0914
  126OSM   H15S13451   4.629   5.256   8.180  1.0946  2.0936  0.5279
  126OSM   H15T13452   4.796   5.301   8.118 -1.5072  0.6690 -2.8062
  126OSM   C16S13453   4.800   5.162   8.276  0.1029 -0.0601  0.0337
  126OSM   H16S13454   4.900   5.121   8.250  0.1845  0.5514 -0.6631
  126OSM   H16T13455   4.740   5.081   8.322 -1.3667  1.6782  1.3044
  126OSM   C17S13456   4.815   5.269   8.385 -0.6547 -0.1553 -0.1572
  126OSM   H17S13457   4.834   5.376   8.363  2.0192 -0.7583 -1.0958
  126OSM   H17T13458   4.895   5.225   8.448  1.4549 -0.7319 -3.0385
  126OSM   C18S13459   4.688   5.276   8.463  0.4294  0.9217  0.5651
  126OSM   H18S13460   4.687   5.332   8.559  0.7324  0.2126  1.0001
  126OSM   H18T13461   4.644   5.177   8.486 -2.1607  1.4523 -1.6839
  126OSM   H18U13462   4.613   5.329   8.403 -1.0041 -0.4458  1.0783
  126OSM    C1F13463   4.150   5.064   6.853  0.0068 -0.8437 -0.0299
  126OSM     OF13464   4.184   4.995   6.761  0.6110  0.2291  0.1750
  126OSM    C2F13465   4.017   5.047   6.923  0.1293 -0.1638 -0.1319
  126OSM    H2F13466   3.924   5.052   6.864 -0.6248  1.9514  1.1427
  126OSM    H2G13467   4.002   5.130   6.996  0.0701 -1.2743  1.1719
  126OSM    C3F13468   4.018   4.914   7.007  0.7411 -0.1636  0.0199
  126OSM    H3F13469   4.007   4.815   6.957  0.9492  0.5436 -1.4880
  126OSM    H3G13470   3.923   4.915   7.065  0.1939 -0.4332 -0.8468
  126OSM    C4F13471   4.132   4.910   7.118  0.1873 -0.8317 -0.4026
  126OSM    H4F13472   4.168   5.010   7.148 -0.3842 -0.6484 -0.3030
  126OSM    H4G13473   4.218   4.872   7.059 -0.5703 -1.1339 -1.3461
  126OSM    C5F13474   4.100   4.818   7.242 -0.2874  0.2141 -0.8963
  126OSM    H5F13475   4.067   4.720   7.201  2.0971  0.1012 -2.7774
  126OSM    H5G13476   4.016   4.869   7.294  0.0112 -1.2460  1.1506
  126OSM    C6F13477   4.217   4.794   7.335 -0.4280  0.2516  0.1987
  126OSM    H6F13478   4.275   4.887   7.347  3.0731 -1.4823 -1.5665
  126OSM    H6G13479   4.300   4.734   7.291 -0.0990  1.4719 -0.9196
  126OSM    C7F13480   4.167   4.735   7.464 -0.0563 -0.1076 -0.3823
  126OSM    H7F13481   4.153   4.625   7.456 -0.3112 -0.1182  0.1672
  126OSM    H7G13482   4.069   4.777   7.495 -0.6795 -1.0284 -1.0543
  126OSM    C8F13483   4.272   4.749   7.571 -0.0579  0.7477 -0.0935
  126OSM    H8F13484   4.295   4.857   7.582  2.7408  0.0130  2.7607
  126OSM    H8G13485   4.361   4.693   7.535  1.7478  2.7563  1.0300
  126OSM    C9F13486   4.219   4.695   7.698  0.2514  0.2178 -0.0106
  126OSM    H9F13487   4.112   4.717   7.713  0.2994 -0.5878  1.7895
  126OSM   C10F13488   4.274   4.606   7.784 -0.2896 -0.3886 -0.3219
  126OSM   H10F13489   4.221   4.571   7.874  0.0976  0.5396  0.2820
  126OSM   C11F13490   4.416   4.545   7.772 -0.4940 -0.0840  0.5333
  126OSM   H11F13491   4.471   4.582   7.683  1.6093 -0.1079  1.7631
  126OSM   H11G13492   4.406   4.436   7.755 -1.4228  0.2808 -1.6236
  126OSM   C12F13493   4.493   4.576   7.899  0.4338 -0.5382 -0.5186
  126OSM   H12F13494   4.463   4.506   7.979  0.5196 -0.0397 -0.0448
  126OSM   H12G13495   4.470   4.681   7.927 -0.2017 -0.9168  0.4103
  126OSM   C13F13496   4.645   4.575   7.878  0.4398  0.1269  0.0309
  126OSM   H13F13497   4.671   4.641   7.793 -1.4874 -0.7777 -1.3432
  126OSM   H13G13498   4.667   4.469   7.852 -1.0073 -0.4149  0.8766
  126OSM   C14F13499   4.730   4.608   8.007 -0.6411  0.6057 -0.4559
  126OSM   H14F13500   4.682   4.554   8.092  1.1147 -0.8592 -0.3307
  126OSM   H14G13501   4.726   4.715   8.037  0.5850  0.3333  0.7633
  126OSM   C15F13502   4.873   4.562   7.998 -0.3354 -0.5616  0.3372
  126OSM   H15F13503   4.921   4.640   7.935 -1.8122 -0.1295 -0.2882
  126OSM   H15G13504   4.883   4.464   7.946  1.7477 -0.0627 -0.3027
  126OSM   C16F13505   4.952   4.545   8.123  0.3323  0.1428 -0.4377
  126OSM   H16F13506   4.907   4.465   8.186 -0.8728 -0.8322 -2.4411
  126OSM   H16G13507   4.958   4.636   8.187  1.9018 -0.3419  0.1613
  126OSM   C17F13508   5.099   4.505   8.105 -0.1200 -0.4185  0.3200
  126OSM   H17F13509   5.158   4.579   8.046 -0.9350 -0.2148 -0.2518
  126OSM   H17G13510   5.105   4.410   8.048 -3.1565  0.2283 -1.2442
  126OSM   C18F13511   5.153   4.479   8.243 -0.2568 -0.1062 -0.6728
  126OSM   H18F13512   5.087   4.411   8.300 -0.1615 -0.6328 -1.1840
  126OSM   H18G13513   5.166   4.562   8.317 -0.0496 -0.1361 -0.6749
  126OSM   H18H13514   5.250   4.425   8.233 -0.6897 -1.3129  1.1209
  127OSM      N13515   1.982   5.303   5.986  0.1813  0.2897  0.0462
  127OSM    C1513516   2.010   5.211   5.872 -0.7215  0.0289  0.8588
  127OSM   H15A13517   1.931   5.202   5.799 -0.7482  1.2655  0.7193
  127OSM   H15B13518   2.042   5.114   5.907  0.2125  0.1770  0.4526
  127OSM   H15C13519   2.095   5.256   5.823  0.1024  0.2980  2.4494
  127OSM    C1413520   1.930   5.438   5.945  0.0917  0.6101  0.6405
  127OSM   H14A13521   1.936   5.514   6.022 -1.8094 -0.6968  2.1804
  127OSM   H14B13522   1.825   5.428   5.923  0.3939 -1.3378 -0.1497
  127OSM   H14C13523   1.985   5.479   5.862  1.0166  2.2172  1.9706
  127OSM    C1313524   1.872   5.229   6.066  0.6918 -0.4481  0.4748
  127OSM   H13A13525   1.831   5.294   6.143  2.0069  0.9900 -0.0035
  127OSM   H13B13526   1.898   5.136   6.114 -1.2622 -0.4226  1.7195
  127OSM   H13C13527   1.792   5.208   5.996  2.8739  5.3413 -4.6716
  127OSM    C1213528   2.093   5.322   6.079 -0.3859 -0.3889  0.3161
  127OSM   H12A13529   2.172   5.365   6.020  1.0611 -0.6824  1.9516
  127OSM   H12B13530   2.133   5.224   6.096 -0.2823 -0.0804  2.1080
  127OSM    C1113531   2.059   5.405   6.206 -0.4800 -0.4836 -0.0921
  127OSM   H11A13532   2.144   5.390   6.276 -0.6367 -0.1774  0.1636
  127OSM   H11B13533   1.984   5.343   6.260 -2.6155  0.0664 -2.2751
  127OSM      P13534   2.128   5.657   6.166 -0.0296  0.1721 -0.2499
  127OSM    O1313535   2.220   5.614   6.063 -0.5361  0.1136  0.2982
  127OSM    O1413536   2.063   5.787   6.146 -0.8217  0.4752  0.3812
  127OSM    O1113537   2.201   5.667   6.310 -0.2288  0.6039  0.2881
  127OSM    O1213538   2.016   5.547   6.181 -0.2120  0.3970  0.2899
  127OSM    C1S13539   2.113   5.667   6.427  0.0905  0.6536 -0.0987
  127OSM    H1S13540   2.105   5.563   6.465  0.4225  0.7074  0.1258
  127OSM    H1T13541   2.012   5.710   6.411 -0.2222  1.3677  3.1628
  127OSM     NF13542   2.088   5.744   6.665 -0.4707 -0.3469  0.7944
  127OSM    HNF13543   2.055   5.838   6.673  1.1199  0.6376 -2.6100
  127OSM    C2S13544   2.178   5.727   6.548  0.3229  0.9892 -0.8782
  127OSM    H2S13545   2.251   5.645   6.569  0.1721  0.8097 -1.0583
  127OSM    C3S13546   2.260   5.852   6.511  0.8064  0.2058 -0.6319
  127OSM    H3S13547   2.204   5.912   6.437 -1.6061 -1.8970 -0.6673
  127OSM     O313548   2.375   5.824   6.434  0.3274 -0.0406 -0.0579
  127OSM    HO313549   2.342   5.749   6.384  0.9262 -1.0675  1.0532
  127OSM    C4S13550   2.304   5.920   6.639 -0.2251 -1.2750  0.1180
  127OSM    H4S13551   2.248   6.013   6.660  2.4398  0.1401  1.5224
  127OSM    C5S13552   2.407   5.893   6.723 -0.6503 -0.6135  0.2696
  127OSM    H5S13553   2.471   5.807   6.703 -1.1601 -0.5897 -1.7263
  127OSM    C6S13554   2.428   5.972   6.855 -0.3265 -0.1772  1.3702
  127OSM    H6S13555   2.408   6.081   6.848 -2.6548 -0.6106  0.5027
  127OSM    H6T13556   2.527   5.955   6.902  1.1414  1.0299 -1.0604
  127OSM    C7S13557   2.326   5.921   6.965 -0.2847 -0.5120  0.0240
  127OSM    H7S13558   2.323   5.810   6.969  1.4131 -0.6080 -0.6370
  127OSM    H7T13559   2.233   5.962   6.921 -0.9954 -1.5847  0.4625
  127OSM    C8S13560   2.374   5.978   7.098 -0.5519  0.1648 -0.1821
  127OSM    H8S13561   2.372   6.089   7.103  2.7074  0.5838 -3.6021
  127OSM    H8T13562   2.476   5.936   7.106 -0.9633 -1.2390 -1.8931
  127OSM    C9S13563   2.302   5.927   7.224  0.3764  0.1653 -0.3803
  127OSM    H9S13564   2.299   5.816   7.230 -1.3134  0.2763  2.0884
  127OSM    H9T13565   2.194   5.952   7.215  0.0302 -0.2967  1.9071
  127OSM   C10S13566   2.356   5.976   7.357 -0.6178 -0.1606 -0.0687
  127OSM   H10S13567   2.345   6.087   7.354  1.8769  0.1271 -0.8288
  127OSM   H10T13568   2.465   5.958   7.364 -0.8267 -1.3024  0.4566
  127OSM   C11S13569   2.279   5.920   7.473 -0.9597  0.1537 -1.1080
  127OSM   H11S13570   2.276   5.809   7.468 -2.0812  0.2263 -3.1850
  127OSM   H11T13571   2.172   5.947   7.483 -1.2704 -1.5549  0.9652
  127OSM   C12S13572   2.348   5.950   7.611 -0.0963 -0.1377 -0.1005
  127OSM   H12S13573   2.388   6.053   7.623  1.3692 -0.7194  0.2444
  127OSM   H12T13574   2.441   5.893   7.634  0.4541  1.8247  3.2538
  127OSM   C13S13575   2.255   5.923   7.735 -0.1819 -0.3909 -0.2321
  127OSM   H13S13576   2.227   5.816   7.726  0.7788 -0.9458  2.4552
  127OSM   H13T13577   2.162   5.983   7.728 -0.4191 -0.6837  0.3034
  127OSM   C14S13578   2.329   5.958   7.868 -1.1247  0.1625  0.3833
  127OSM   H14S13579   2.332   6.069   7.877  2.6243  0.2944 -0.6750
  127OSM   H14T13580   2.436   5.926   7.868 -1.2418 -0.2332  0.6815
  127OSM   C15S13581   2.266   5.892   7.993 -0.3713 -0.6777  0.4212
  127OSM   H15S13582   2.346   5.867   8.066  0.4175 -1.3958 -0.6508
  127OSM   H15T13583   2.222   5.795   7.961  0.6289 -0.2612 -2.5828
  127OSM   C16S13584   2.159   5.974   8.058  0.6406 -0.3347 -0.1059
  127OSM   H16S13585   2.075   5.961   7.986  3.2410 -2.0765 -3.0783
  127OSM   H16T13586   2.180   6.082   8.046  1.3842 -0.7348 -3.0665
  127OSM   C17S13587   2.127   5.933   8.197  0.6058  1.1337 -0.5786
  127OSM   H17S13588   2.102   5.825   8.201  3.9796  0.2959  0.8444
  127OSM   H17T13589   2.041   5.993   8.234  0.2796  0.6941 -0.6201
  127OSM   C18S13590   2.241   5.946   8.294 -0.4440 -0.7944 -0.0591
  127OSM   H18S13591   2.324   5.879   8.265 -0.9610 -2.1205  1.3394
  127OSM   H18T13592   2.205   5.911   8.394 -0.5819 -1.4329 -0.3261
  127OSM   H18U13593   2.277   6.051   8.301 -2.0704 -0.0913 -1.5365
  127OSM    C1F13594   2.027   5.641   6.726  0.0280 -0.3428 -0.0701
  127OSM     OF13595   2.062   5.523   6.697  0.2583 -0.0776  0.4816
  127OSM    C2F13596   1.915   5.671   6.819  0.1760  0.3812 -0.6285
  127OSM    H2F13597   1.825   5.662   6.754 -0.8064  0.7063  0.6563
  127OSM    H2G13598   1.920   5.776   6.856 -0.6354  0.2016  0.0265
  127OSM    C3F13599   1.909   5.574   6.938 -0.2032 -0.3636  0.1684
  127OSM    H3F13600   1.898   5.465   6.918  1.6645 -0.9099  1.7999
  127OSM    H3G13601   1.821   5.588   7.004 -2.1922 -0.8315 -2.2426
  127OSM    C4F13602   2.029   5.596   7.034  0.0973 -0.6131 -0.3315
  127OSM    H4F13603   2.037   5.704   7.060  0.7589 -0.4992 -0.9788
  127OSM    H4G13604   2.120   5.558   6.984 -0.5917 -1.1696 -1.1841
  127OSM    C5F13605   2.006   5.514   7.167 -0.4106  0.0729  0.3021
  127OSM    H5F13606   2.033   5.411   7.134  0.4025  0.8137 -1.4961
  127OSM    H5G13607   1.901   5.514   7.204 -1.1485  0.5719 -1.6308
  127OSM    C6F13608   2.118   5.548   7.264 -0.6537 -0.3269  0.0742
  127OSM    H6F13609   2.109   5.658   7.272 -0.9187 -0.2497 -1.1463
  127OSM    H6G13610   2.225   5.530   7.240 -0.0548  0.2191  2.0843
  127OSM    C7F13611   2.093   5.486   7.408 -0.0313 -0.8447  0.6341
  127OSM    H7F13612   2.124   5.381   7.390  1.3194 -0.5850  1.3189
  127OSM    H7G13613   1.984   5.485   7.428 -0.1393 -1.6174  0.0741
  127OSM    C8F13614   2.154   5.540   7.536  0.3362  0.8900  0.5499
  127OSM    H8F13615   2.104   5.516   7.632  2.0579 -0.7927  1.1011
  127OSM    H8G13616   2.157   5.651   7.542  2.4102  1.0234 -1.4671
  127OSM    C9F13617   2.295   5.495   7.527 -0.2023 -0.2067 -0.4304
  127OSM    H9F13618   2.339   5.474   7.428  2.2395 -1.1844  0.7957
  127OSM   C10F13619   2.380   5.481   7.625 -0.4587 -0.3734  0.0461
  127OSM   H10F13620   2.482   5.450   7.598 -1.1232 -1.0407 -1.9527
  127OSM   C11F13621   2.357   5.518   7.767 -0.5454 -0.5068 -0.4540
  127OSM   H11F13622   2.256   5.504   7.812 -0.1267  0.4034  0.8421
  127OSM   H11G13623   2.371   5.628   7.781  1.1715 -0.8827  1.1710
  127OSM   C12F13624   2.445   5.452   7.870  0.1524  0.1198  0.4992
  127OSM   H12F13625   2.549   5.462   7.832  0.0578  0.7600  0.3882
  127OSM   H12G13626   2.413   5.346   7.871  3.0493 -0.8493 -0.3087
  127OSM   C13F13627   2.427   5.508   8.015 -0.1461 -1.0427 -0.3071
  127OSM   H13F13628   2.319   5.493   8.039 -0.5869 -0.4900 -1.8630
  127OSM   H13G13629   2.451   5.616   8.016  2.7418 -1.5879  1.4597
  127OSM   C14F13630   2.526   5.441   8.117 -0.1901 -0.3067 -0.4636
  127OSM   H14F13631   2.608   5.514   8.129  0.2854 -0.7804 -0.7576
  127OSM   H14G13632   2.568   5.348   8.074 -1.4718 -1.3498  0.4480
  127OSM   C15F13633   2.468   5.437   8.257  0.2997 -0.1660  0.0193
  127OSM   H15F13634   2.374   5.377   8.260  0.8632 -1.1274 -0.7746
  127OSM   H15G13635   2.432   5.536   8.293 -0.9137 -0.9414  1.0134
  127OSM   C16F13636   2.568   5.376   8.357  0.2604 -0.4364 -0.7243
  127OSM   H16F13637   2.648   5.446   8.392 -0.9090  0.0432  1.1495
  127OSM   H16G13638   2.626   5.297   8.305 -1.9630 -2.0692 -0.8683
  127OSM   C17F13639   2.507   5.320   8.484 -0.2517  0.6649  0.1670
  127OSM   H17F13640   2.446   5.401   8.530  0.2551  1.1339  0.0126
  127OSM   H17G13641   2.588   5.301   8.558  0.3462  0.3736 -0.5603
  127OSM   C18F13642   2.430   5.196   8.469 -0.2281  0.0611 -0.4236
  127OSM   H18F13643   2.406   5.137   8.560 -1.3893  0.5035 -0.4291
  127OSM   H18G13644   2.476   5.130   8.392  0.4217  1.6440 -1.4369
  127OSM   H18H13645   2.337   5.222   8.414  0.1047  0.9208 -0.5934
  128OSM      N13646   3.272   1.977   5.955  0.5937 -0.4103  0.4223
  128OSM    C1513647   3.406   1.930   5.940 -0.6210  0.8623 -0.2683
  128OSM   H15A13648   3.444   1.905   5.842  1.3171  0.4729  0.5221
  128OSM   H15B13649   3.423   1.839   5.996 -3.3956  0.9503  0.8582
  128OSM   H15C13650   3.471   2.009   5.976 -0.9804  1.2025 -0.3721
  128OSM    C1413651   3.175   1.882   5.895 -0.0652 -0.3442  0.3675
  128OSM   H14A13652   3.166   1.798   5.963  1.2923 -1.4449 -0.7647
  128OSM   H14B13653   3.205   1.854   5.796 -0.7238 -0.3782  0.1720
  128OSM   H14C13654   3.078   1.928   5.890  1.2613  2.5027 -1.9467
  128OSM    C1313655   3.235   1.997   6.099 -0.4817 -0.0596 -0.7406
  128OSM   H13A13656   3.130   2.021   6.105 -0.3752  0.2103  0.3166
  128OSM   H13B13657   3.295   2.071   6.151 -0.6395 -1.0771  0.9486
  128OSM   H13C13658   3.251   1.906   6.155 -0.0309  0.5135  0.0987
  128OSM    C1213659   3.263   2.113   5.882  0.2199 -0.3422 -0.2100
  128OSM   H12A13660   3.309   2.097   5.786 -0.8293  1.6040 -1.0988
  128OSM   H12B13661   3.323   2.186   5.933 -0.1642 -0.1814  0.0157
  128OSM    C1113662   3.125   2.178   5.859 -0.7181 -0.0192 -0.2006
  128OSM   H11A13663   3.072   2.110   5.789 -1.1039 -1.3130  1.2906
  128OSM   H11B13664   3.133   2.267   5.794 -1.6559 -0.4182 -0.8822
  128OSM      P13665   2.911   2.165   6.005  0.0329  0.0159  0.1153
  128OSM    O1313666   2.817   2.269   5.963 -0.5519 -0.0627 -0.1160
  128OSM    O1413667   2.891   2.031   5.948 -0.9516  0.3786  0.2995
  128OSM    O1113668   2.914   2.158   6.162  0.5870 -0.2793 -0.0574
  128OSM    O1213669   3.060   2.215   5.983 -0.4450 -0.2582 -0.5595
  128OSM    C1S13670   2.986   2.267   6.234 -0.3443  0.1158 -0.5170
  128OSM    H1S13671   2.944   2.365   6.203  0.2847  0.1007 -1.4649
  128OSM    H1T13672   3.097   2.270   6.235 -0.3658  1.6796  0.1296
  128OSM     NF13673   2.970   2.390   6.458 -0.4223  0.0382  0.0431
  128OSM    HNF13674   3.061   2.426   6.476 -1.0897  1.5078  0.6695
  128OSM    C2S13675   2.956   2.259   6.389  0.4275 -0.4765  0.0806
  128OSM    H2S13676   2.852   2.226   6.413 -0.1298  1.2628  0.1642
  128OSM    C3S13677   3.047   2.144   6.442 -0.3553 -0.2720  0.9589
  128OSM    H3S13678   3.148   2.187   6.428 -0.7963  0.8425  1.0622
  128OSM     O313679   3.027   2.025   6.371 -0.0220 -0.1484 -0.5193
  128OSM    HO313680   2.968   2.053   6.301 -0.0870  0.9041 -0.0556
  128OSM    C4S13681   3.033   2.127   6.589 -0.2163 -0.3890  0.6306
  128OSM    H4S13682   3.103   2.183   6.653  0.9441  0.1416 -1.0354
  128OSM    C5S13683   2.950   2.042   6.652 -0.0384  0.5861 -0.1172
  128OSM    H5S13684   2.890   1.975   6.587  0.2700 -0.6931  0.8684
  128OSM    C6S13685   2.932   2.022   6.798  0.8468 -0.4127 -0.3985
  128OSM    H6S13686   2.948   1.913   6.813 -0.0705 -0.1800  3.1159
  128OSM    H6T13687   2.832   2.060   6.828  0.9519 -0.4940  0.0625
  128OSM    C7S13688   3.022   2.106   6.895  0.6441  0.8141  0.4140
  128OSM    H7S13689   3.001   2.213   6.871  1.8126  0.8766 -0.3865
  128OSM    H7T13690   3.128   2.086   6.870  0.4541  1.3321 -0.9085
  128OSM    C8S13691   2.986   2.079   7.038 -0.3497  0.3243  0.5869
  128OSM    H8S13692   2.965   1.971   7.058  1.0870 -0.1194 -0.1387
  128OSM    H8T13693   2.885   2.124   7.050 -0.8294 -0.5065 -0.0947
  128OSM    C9S13694   3.083   2.121   7.152 -0.6673  0.3298  0.1469
  128OSM    H9S13695   3.097   2.231   7.161 -0.8796  0.4821 -1.1466
  128OSM    H9T13696   3.187   2.095   7.124 -0.8829 -1.0613  0.5431
  128OSM   C10S13697   3.057   2.067   7.292  0.4459 -0.3778  0.6049
  128OSM   H10S13698   2.964   2.109   7.336 -0.5647 -1.6703 -0.2155
  128OSM   H10T13699   3.143   2.104   7.351  0.8407 -0.0147 -0.1974
  128OSM   C11S13700   3.051   1.912   7.301  0.1639  0.4816 -1.3821
  128OSM   H11S13701   3.137   1.859   7.256  0.0781 -3.0401  2.0612
  128OSM   H11T13702   2.958   1.881   7.248  1.1045  0.0691 -2.8704
  128OSM   C12S13703   3.040   1.873   7.452  0.4734 -0.1210 -0.5160
  128OSM   H12S13704   3.025   1.763   7.456 -1.4107  0.1265  0.4921
  128OSM   H12T13705   2.945   1.919   7.489  0.8443 -1.1390  1.8710
  128OSM   C13S13706   3.151   1.911   7.551  0.1572 -0.7472  0.6028
  128OSM   H13S13707   3.132   2.020   7.563 -2.0735 -0.9079 -0.8615
  128OSM   H13T13708   3.258   1.906   7.520  0.6144  1.8188  1.5111
  128OSM   C14S13709   3.132   1.847   7.691  0.2046 -0.3561  0.2176
  128OSM   H14S13710   3.186   1.750   7.695 -0.6734 -0.9833 -1.7469
  128OSM   H14T13711   3.023   1.828   7.703  0.2485 -0.8524 -0.1148
  128OSM   C15S13712   3.191   1.940   7.804  0.2617 -0.1823  0.0807
  128OSM   H15S13713   3.172   2.046   7.775 -0.3295  0.3748  2.2804
  128OSM   H15T13714   3.298   1.913   7.795  0.1706 -0.4378 -0.2725
  128OSM   C16S13715   3.135   1.915   7.941 -0.0782 -1.1378 -0.1333
  128OSM   H16S13716   3.025   1.919   7.935 -0.0164  0.5310 -0.4294
  128OSM   H16T13717   3.176   1.988   8.013 -0.9262  0.7806 -1.5044
  128OSM   C17S13718   3.172   1.781   7.997 -0.2721  0.8721 -0.0008
  128OSM   H17S13719   3.274   1.757   7.959 -0.2122  0.1083  0.6171
  128OSM   H17T13720   3.115   1.694   7.958  1.4151  1.0274 -3.1594
  128OSM   C18S13721   3.179   1.783   8.146 -0.0583 -0.7777 -0.4321
  128OSM   H18S13722   3.254   1.857   8.183 -0.2477  0.5762 -2.5806
  128OSM   H18T13723   3.205   1.685   8.191  0.6155 -0.8356 -0.9306
  128OSM   H18U13724   3.081   1.809   8.191 -0.3888 -2.4448 -0.1224
  128OSM    C1F13725   2.870   2.478   6.442  0.1201  0.0508 -0.2596
  128OSM     OF13726   2.775   2.457   6.377 -0.6545 -0.5704  0.4621
  128OSM    C2F13727   2.902   2.610   6.499  0.3204 -0.0100  0.4832
  128OSM    H2F13728   2.808   2.669   6.491  0.0570 -0.4420  0.2867
  128OSM    H2G13729   2.975   2.663   6.435  1.2726 -1.4425  0.3383
  128OSM    C3F13730   2.929   2.614   6.657 -0.0297 -0.1113  0.1589
  128OSM    H3F13731   3.018   2.553   6.684  1.1542  1.7696  0.6708
  128OSM    H3G13732   2.840   2.580   6.714  0.1070 -3.3694 -1.3279
  128OSM    C4F13733   2.968   2.746   6.717  0.7390 -0.0031 -0.3332
  128OSM    H4F13734   2.909   2.823   6.662 -0.3776 -1.3928 -1.1320
  128OSM    H4G13735   3.070   2.775   6.685 -0.2002  2.3081 -1.5124
  128OSM    C5F13736   2.940   2.767   6.865  0.3714 -0.5041  0.1588
  128OSM    H5F13737   2.831   2.752   6.877  0.6921 -1.8742  1.7041
  128OSM    H5G13738   2.960   2.872   6.896 -0.0353 -1.2651  3.3755
  128OSM    C6F13739   3.014   2.663   6.938  0.1211  0.0279 -0.4430
  128OSM    H6F13740   3.119   2.663   6.903 -0.4596 -1.3626 -2.3120
  128OSM    H6G13741   2.976   2.564   6.906 -3.0305  1.2123 -0.7610
  128OSM    C7F13742   3.006   2.679   7.091  0.6199  0.2896  0.1721
  128OSM    H7F13743   2.903   2.647   7.116  1.3928 -3.0607 -0.4122
  128OSM    H7G13744   3.044   2.776   7.128  1.8391 -0.7407  1.7573
  128OSM    C8F13745   3.090   2.572   7.165 -0.2613  0.4748  0.0503
  128OSM    H8F13746   3.046   2.471   7.152  0.5373  0.2885 -1.4191
  128OSM    H8G13747   3.077   2.595   7.273  2.1278  1.2911  0.2278
  128OSM    C9F13748   3.236   2.561   7.111  0.5558 -0.2287  0.6380
  128OSM    H9F13749   3.253   2.484   7.035  1.3007  0.7087 -0.1720
  128OSM   C10F13750   3.348   2.619   7.156 -0.5933  0.2559  0.2905
  128OSM   H10F13751   3.438   2.592   7.100 -0.1984 -1.8810  1.8170
  128OSM   C11F13752   3.362   2.718   7.268  0.2554  0.5726 -0.2031
  128OSM   H11F13753   3.264   2.760   7.296  0.0584  0.6665 -1.0139
  128OSM   H11G13754   3.422   2.810   7.251  0.8662  1.0139  3.4846
  128OSM   C12F13755   3.418   2.664   7.392 -0.1449 -0.1640 -0.6158
  128OSM   H12F13756   3.404   2.745   7.466 -0.5020 -0.1313 -0.7138
  128OSM   H12G13757   3.522   2.628   7.377  0.0266  1.2943 -3.6841
  128OSM   C13F13758   3.331   2.548   7.449 -0.3988  0.0190 -0.7536
  128OSM   H13F13759   3.314   2.458   7.385 -1.4551 -1.0620  0.9807
  128OSM   H13G13760   3.225   2.580   7.458 -0.4852 -0.4307 -0.1545
  128OSM   C14F13761   3.387   2.489   7.579  0.5427  0.2397  0.0819
  128OSM   H14F13762   3.413   2.576   7.643  0.1459  1.4808 -1.3551
  128OSM   H14G13763   3.482   2.443   7.546  1.1809  0.0989  2.0310
  128OSM   C15F13764   3.294   2.391   7.648 -0.7039 -0.0616  0.0185
  128OSM   H15F13765   3.237   2.316   7.589 -2.3180 -0.7094  2.2666
  128OSM   H15G13766   3.206   2.451   7.678 -0.9839  1.1850 -2.9330
  128OSM   C16F13767   3.357   2.296   7.763 -0.3022  0.5690 -0.2942
  128OSM   H16F13768   3.434   2.221   7.733  1.0485  0.8007  2.3719
  128OSM   H16G13769   3.271   2.235   7.798  1.9370 -3.0638 -0.4960
  128OSM   C17F13770   3.395   2.374   7.882 -0.8070 -0.0686  0.1226
  128OSM   H17F13771   3.314   2.437   7.924  0.1903  1.2930  0.1061
  128OSM   H17G13772   3.468   2.455   7.861 -0.3909 -0.1685  1.1605
  128OSM   C18F13773   3.452   2.282   7.993  0.1332  0.6408 -0.0049
  128OSM   H18F13774   3.558   2.255   7.973  0.6982  1.2562  1.9267
  128OSM   H18G13775   3.403   2.183   8.004 -1.1215  1.2504  0.0511
  128OSM   H18H13776   3.455   2.324   8.095  2.1125 -0.2877  0.3583
  129OSM      N13777   0.355   3.276   5.802 -0.0625 -0.7133 -0.4395
  129OSM    C1513778   0.418   3.210   5.687 -0.4818 -0.0103 -1.3806
  129OSM   H15A13779   0.524   3.194   5.698  0.3472  3.7223 -2.4428
  129OSM   H15B13780   0.399   3.267   5.597 -0.5158  3.1760  0.4726
  129OSM   H15C13781   0.373   3.115   5.663  1.6099 -1.2100 -0.7640
  129OSM    C1413782   0.207   3.285   5.771 -0.4721 -0.0483  0.7569
  129OSM   H14A13783   0.167   3.378   5.809 -2.2241 -0.6197  0.4041
  129OSM   H14B13784   0.155   3.202   5.816 -0.0347 -1.4225 -1.1638
  129OSM   H14C13785   0.190   3.284   5.665  0.3151 -0.2134  0.6329
  129OSM    C1313786   0.376   3.200   5.927  0.3219 -0.1252  0.3090
  129OSM   H13A13787   0.332   3.102   5.917 -1.2531  0.2534  2.7190
  129OSM   H13B13788   0.333   3.242   6.016 -1.8450 -0.7523 -0.3787
  129OSM   H13C13789   0.481   3.178   5.943  0.5141 -1.3959 -2.1239
  129OSM    C1213790   0.413   3.418   5.814 -0.0372  0.5710 -0.7872
  129OSM   H12A13791   0.404   3.456   5.713  0.1337 -1.2568 -1.5381
  129OSM   H12B13792   0.518   3.406   5.834 -0.1390 -0.6002 -0.9000
  129OSM    C1113793   0.366   3.516   5.924 -0.1088  0.0091 -0.1397
  129OSM   H11A13794   0.255   3.513   5.928 -0.1306  1.1372  0.6803
  129OSM   H11B13795   0.387   3.616   5.882 -1.0580 -0.0737 -0.8564
  129OSM      P13796   0.570   3.533   6.083  0.0276 -0.8201 -0.0166
  129OSM    O1313797   0.664   3.466   5.990  0.2446  0.2159  0.3812
  129OSM    O1413798   0.571   3.678   6.096 -0.5863 -0.3109 -0.0907
  129OSM    O1113799   0.587   3.462   6.221 -0.5125  0.0739  0.6014
  129OSM    O1213800   0.424   3.481   6.053  0.5315 -0.0254  0.1834
  129OSM    C1S13801   0.528   3.526   6.336 -0.3135  0.3666 -0.7444
  129OSM    H1S13802   0.419   3.545   6.325 -0.6748 -0.5754  0.8616
  129OSM    H1T13803   0.572   3.627   6.349  1.1452  0.0480 -2.7465
  129OSM     NF13804   0.466   3.519   6.580 -0.0215 -0.0835 -0.3650
  129OSM    HNF13805   0.520   3.559   6.654  0.6947 -3.0436  0.8569
  129OSM    C2S13806   0.536   3.446   6.466 -0.2612 -0.2938  0.1467
  129OSM    H2S13807   0.477   3.353   6.450  0.2520 -0.8888  1.5353
  129OSM    C3S13808   0.687   3.407   6.500 -0.0667  0.3462  0.7952
  129OSM    H3S13809   0.747   3.499   6.515 -1.7213  1.0628  3.8802
  129OSM     O313810   0.760   3.344   6.393  0.3450  0.3018 -0.2131
  129OSM    HO313811   0.715   3.365   6.311  0.2775  0.4930 -0.1286
  129OSM    C4S13812   0.690   3.327   6.625 -0.1671  0.6824 -0.9458
  129OSM    H4S13813   0.683   3.398   6.709 -2.7317  1.1424 -1.4555
  129OSM    C5S13814   0.675   3.192   6.645 -0.4310 -0.1817  0.2555
  129OSM    H5S13815   0.657   3.133   6.554  0.9344 -2.0904  1.1506
  129OSM    C6S13816   0.674   3.111   6.773  0.2199 -0.3813  0.0955
  129OSM    H6S13817   0.753   3.035   6.753  1.6332  1.0004  0.2832
  129OSM    H6T13818   0.578   3.056   6.780 -0.4300  0.4385 -1.6920
  129OSM    C7S13819   0.703   3.183   6.904  0.3332  0.1586 -0.5376
  129OSM    H7S13820   0.619   3.248   6.938  0.3172 -0.0306 -0.2093
  129OSM    H7T13821   0.793   3.245   6.886  0.5329  0.8049  2.1714
  129OSM    C8S13822   0.715   3.093   7.027  0.6497 -0.6850 -0.7733
  129OSM    H8S13823   0.798   3.019   7.027 -1.0604 -2.7091  0.1180
  129OSM    H8T13824   0.622   3.038   7.052 -0.2686  1.2542  0.2714
  129OSM    C9S13825   0.740   3.179   7.152  1.2932 -0.3551  0.0126
  129OSM    H9S13826   0.641   3.221   7.180  1.0533  0.3660 -1.7884
  129OSM    H9T13827   0.814   3.261   7.142 -1.5431  2.5578  1.3718
  129OSM   C10S13828   0.768   3.093   7.268 -0.1831 -0.0268 -0.0359
  129OSM   H10S13829   0.852   3.026   7.243  0.0983 -0.4439  1.8274
  129OSM   H10T13830   0.674   3.033   7.270 -0.7829  0.8688 -0.2875
  129OSM   C11S13831   0.800   3.169   7.404  0.5318 -0.6173 -0.5592
  129OSM   H11S13832   0.728   3.251   7.420  2.6100  1.1912  0.0512
  129OSM   H11T13833   0.904   3.208   7.400 -0.2425  1.5333 -0.7873
  129OSM   C12S13834   0.799   3.076   7.520  0.1601 -0.4507  0.5481
  129OSM   H12S13835   0.890   3.014   7.508  0.2106 -0.2576 -0.1141
  129OSM   H12T13836   0.718   3.000   7.520 -0.2882  0.0176  1.1428
  129OSM   C13S13837   0.791   3.146   7.653 -0.5161 -0.3180 -0.2076
  129OSM   H13S13838   0.705   3.217   7.648 -0.9927 -0.4927  3.2374
  129OSM   H13T13839   0.887   3.198   7.672 -1.2497  0.6692  0.9622
  129OSM   C14S13840   0.751   3.061   7.775 -0.3899 -0.2463  0.4280
  129OSM   H14S13841   0.838   2.992   7.790  0.8585  1.4153  1.1174
  129OSM   H14T13842   0.663   2.995   7.763 -0.7922  0.1411  1.2136
  129OSM   C15S13843   0.730   3.157   7.887 -0.4236 -0.3121 -0.4228
  129OSM   H15S13844   0.634   3.212   7.881  0.3494  1.2502  0.8373
  129OSM   H15T13845   0.820   3.221   7.898  2.1780 -3.8426  1.0007
  129OSM   C16S13846   0.735   3.090   8.031  0.1416 -0.3875  1.2418
  129OSM   H16S13847   0.831   3.037   8.045  0.8603  0.1071 -1.1763
  129OSM   H16T13848   0.650   3.019   8.024  0.4184 -0.5594 -1.3824
  129OSM   C17S13849   0.702   3.180   8.152  0.0557 -0.2394 -0.5084
  129OSM   H17S13850   0.598   3.212   8.132  0.5111  0.8135 -1.2526
  129OSM   H17T13851   0.773   3.265   8.150 -0.9723  0.6348 -1.8531
  129OSM   C18S13852   0.716   3.106   8.293  0.1954  0.6977  0.6345
  129OSM   H18S13853   0.822   3.100   8.327  0.4808 -0.6453 -0.3878
  129OSM   H18T13854   0.668   3.006   8.286  0.7749  0.4461  0.1928
  129OSM   H18U13855   0.678   3.160   8.382  1.1283 -0.0626  1.5332
  129OSM    C1F13856   0.333   3.537   6.600  0.2757 -0.0810 -0.3589
  129OSM     OF13857   0.250   3.507   6.513  0.6200 -0.7127 -0.4551
  129OSM    C2F13858   0.288   3.585   6.736 -0.3880 -0.5388  0.0110
  129OSM    H2F13859   0.318   3.690   6.754 -1.6841 -0.2285  0.4514
  129OSM    H2G13860   0.337   3.523   6.814  2.4563  2.2643  0.6328
  129OSM    C3F13861   0.138   3.577   6.767  0.4104 -0.3196 -0.3973
  129OSM    H3F13862   0.110   3.470   6.784 -0.8992  0.0464 -0.1494
  129OSM    H3G13863   0.080   3.625   6.685 -0.9059  2.6023  2.0669
  129OSM    C4F13864   0.098   3.658   6.896  0.7325  0.6971  0.3850
  129OSM    H4F13865  -0.006   3.694   6.881  0.3425  0.2074  1.7229
  129OSM    H4G13866   0.160   3.750   6.889  3.7935 -1.2685 -0.3145
  129OSM    C5F13867   0.112   3.575   7.025  0.0970  0.3886  0.6804
  129OSM    H5F13868   0.205   3.515   7.018  1.5340  2.2612  2.5311
  129OSM    H5G13869   0.029   3.503   7.040 -1.1717  1.5055 -0.6180
  129OSM    C6F13870   0.121   3.670   7.142 -0.2867 -0.3553  0.5435
  129OSM    H6F13871   0.030   3.733   7.142 -0.3484 -0.4161 -0.7579
  129OSM    H6G13872   0.210   3.733   7.119 -0.3995 -1.1992 -2.7750
  129OSM    C7F13873   0.150   3.602   7.272  0.1417 -0.2260  1.0608
  129OSM    H7F13874   0.211   3.516   7.237 -0.6921 -0.6593  0.6418
  129OSM    H7G13875   0.056   3.565   7.318 -1.4539  3.2591  0.9221
  129OSM    C8F13876   0.226   3.695   7.374  0.0852 -0.3183 -0.3955
  129OSM    H8F13877   0.283   3.759   7.303 -2.2287 -0.3722 -2.4800
  129OSM    H8G13878   0.291   3.625   7.431 -0.8961 -0.3094  0.7661
  129OSM    C9F13879   0.120   3.769   7.456 -0.1259  0.2666  0.0903
  129OSM    H9F13880   0.039   3.811   7.395 -0.4028 -0.9778 -0.4371
  129OSM   C10F13881   0.117   3.800   7.589  0.4091 -0.7070 -0.1064
  129OSM   H10F13882   0.036   3.867   7.621  0.6106 -0.7963  0.6110
  129OSM   C11F13883   0.221   3.774   7.688 -0.9529  0.1147 -0.7923
  129OSM   H11F13884   0.320   3.759   7.639  0.2819 -2.1061  2.0487
  129OSM   H11G13885   0.205   3.672   7.730 -0.0507  0.2100 -0.1831
  129OSM   C12F13886   0.233   3.891   7.778  0.1432 -0.5035 -0.0656
  129OSM   H12F13887   0.224   3.984   7.718  1.9404 -1.8305 -2.5844
  129OSM   H12G13888   0.331   3.891   7.830 -0.0089  2.3657  0.4318
  129OSM   C13F13889   0.127   3.902   7.890 -0.3241  0.2557  0.3467
  129OSM   H13F13890   0.028   3.917   7.843 -0.5123 -2.2400 -0.2305
  129OSM   H13G13891   0.137   3.988   7.959 -0.2817 -2.0210  3.3899
  129OSM   C14F13892   0.105   3.771   7.967  0.6229  0.5464  0.8055
  129OSM   H14F13893   0.198   3.740   8.019 -0.4001 -0.0728  2.3277
  129OSM   H14G13894   0.076   3.699   7.888 -0.6828  2.2300 -0.3184
  129OSM   C15F13895   0.006   3.776   8.078 -0.5552  0.8972 -0.0095
  129OSM   H15F13896  -0.097   3.788   8.038  0.4796  0.9202 -2.9093
  129OSM   H15G13897   0.031   3.866   8.139  2.8563  1.7534 -2.3840
  129OSM   C16F13898   0.013   3.649   8.163  0.5522 -0.1309 -0.3881
  129OSM   H16F13899  -0.047   3.669   8.254  1.7643 -0.0870  0.4282
  129OSM   H16G13900   0.113   3.622   8.204 -1.1780 -1.2825  3.5496
  129OSM   C17F13901  -0.057   3.527   8.094 -0.4391  0.7664  0.6907
  129OSM   H17F13902  -0.019   3.511   7.991  0.1885  1.6087  0.7801
  129OSM   H17G13903  -0.162   3.552   8.069 -1.1620 -2.1706  0.4636
  129OSM   C18F13904  -0.047   3.395   8.172  0.2650 -0.2637 -0.3741
  129OSM   H18F13905  -0.106   3.317   8.119 -1.0590  0.6667 -0.3230
  129OSM   H18G13906  -0.079   3.410   8.277 -2.3968 -0.7407 -1.0198
  129OSM   H18H13907   0.058   3.363   8.187  0.3978 -0.3036 -1.3052
  130OSM      N13908   5.748   3.972   5.972  0.1318 -0.5043  0.5407
  130OSM    C1513909   5.706   4.004   5.829 -0.3892 -0.8444  0.7526
  130OSM   H15A13910   5.692   4.110   5.820  0.3250 -0.6140  2.0739
  130OSM   H15B13911   5.614   3.953   5.802 -0.0046 -1.3615  0.4007
  130OSM   H15C13912   5.776   3.973   5.753 -0.4386  1.0923 -0.1189
  130OSM    C1413913   5.738   3.823   5.995 -0.5942  0.3514 -0.9324
  130OSM   H14A13914   5.781   3.794   6.089 -1.0591  1.7119 -0.2696
  130OSM   H14B13915   5.792   3.767   5.920  0.6787  1.2556 -0.7355
  130OSM   H14C13916   5.634   3.797   5.993 -0.8970 -0.3030  5.2182
  130OSM    C1313917   5.892   4.015   5.984 -0.7683  0.3971  0.1705
  130OSM   H13A13918   5.938   3.991   6.079  0.5245  0.8459 -0.3225
  130OSM   H13B13919   5.897   4.122   5.969 -2.7576  0.6792  1.1448
  130OSM   H13C13920   5.959   3.966   5.915 -1.0616 -0.1359  0.2559
  130OSM    C1213921   5.669   4.048   6.079  0.3416 -0.2937  0.1499
  130OSM   H12A13922   5.707   4.148   6.095  2.5801 -1.2001  0.9698
  130OSM   H12B13923   5.683   3.998   6.173 -1.0386 -0.9868  0.0042
  130OSM    C1113924   5.510   4.052   6.059 -0.2267  0.1304 -0.8499
  130OSM   H11A13925   5.483   4.108   5.967 -1.8883 -2.5815 -2.1379
  130OSM   H11B13926   5.462   4.107   6.143 -1.2854 -1.3625 -0.4425
  130OSM      P13927   5.421   3.819   6.158 -0.0323 -0.2093  0.3979
  130OSM    O1313928   5.299   3.861   6.229  0.2221  0.5192 -0.4534
  130OSM    O1413929   5.434   3.686   6.094 -0.5110 -0.0830 -0.1237
  130OSM    O1113930   5.542   3.826   6.250 -0.5338 -0.7112 -0.7430
  130OSM    O1213931   5.449   3.925   6.047  0.4808  0.0511 -0.5762
  130OSM    C1S13932   5.526   3.830   6.394 -0.1287  0.0458 -0.3609
  130OSM    H1S13933   5.436   3.767   6.416 -0.6547 -0.0389 -2.5077
  130OSM    H1T13934   5.503   3.931   6.433 -1.6728 -0.4840  0.1968
  130OSM     NF13935   5.627   3.818   6.615 -0.2094  0.0535  0.4544
  130OSM    HNF13936   5.700   3.879   6.647  0.8024 -0.8423 -0.0609
  130OSM    C2S13937   5.650   3.773   6.477  0.7415 -0.3223  0.2297
  130OSM    H2S13938   5.650   3.663   6.465 -0.4811 -0.1827 -1.3449
  130OSM    C3S13939   5.784   3.811   6.424 -0.8674  0.2446  0.3996
  130OSM    H3S13940   5.795   3.921   6.424 -1.2433  0.3130 -1.3013
  130OSM     O313941   5.807   3.774   6.282 -0.3693 -0.0464 -0.4688
  130OSM    HO313942   5.723   3.805   6.247 -0.5352  0.8934  0.7058
  130OSM    C4S13943   5.882   3.746   6.519 -0.2414  0.8406 -1.1504
  130OSM    H4S13944   5.900   3.807   6.609  1.6899 -0.5504 -0.5189
  130OSM    C5S13945   5.962   3.631   6.503 -0.4773 -0.0032 -0.1026
  130OSM    H5S13946   5.975   3.586   6.403  2.5069  0.7536 -0.1477
  130OSM    C6S13947   6.063   3.573   6.600  0.4365 -0.5760  0.4400
  130OSM    H6S13948   6.148   3.522   6.551  1.0427  0.7191  0.0812
  130OSM    H6T13949   6.002   3.498   6.654 -0.2839 -1.8103 -1.9274
  130OSM    C7S13950   6.122   3.672   6.695 -0.0489  0.3281  0.6190
  130OSM    H7S13951   6.048   3.720   6.763  1.7394  2.8602  0.9262
  130OSM    H7T13952   6.181   3.752   6.647  0.9823  1.5205  3.6624
  130OSM    C8S13953   6.228   3.600   6.788 -0.4671  0.4010  0.6210
  130OSM    H8S13954   6.313   3.556   6.732 -0.6604 -0.0168  0.6530
  130OSM    H8T13955   6.184   3.531   6.863  0.4986 -1.7261 -0.6777
  130OSM    C9S13956   6.302   3.701   6.881  0.0073  0.4634  0.9070
  130OSM    H9S13957   6.229   3.742   6.953 -2.1591 -0.8543 -0.4326
  130OSM    H9T13958   6.353   3.780   6.822  1.2037 -0.4579  0.6663
  130OSM   C10S13959   6.403   3.624   6.966  0.1830  0.6388  0.4147
  130OSM   H10S13960   6.490   3.619   6.897 -1.3925 -1.1991 -1.5653
  130OSM   H10T13961   6.358   3.524   6.981 -3.3147  1.7417 -1.5835
  130OSM   C11S13962   6.439   3.696   7.089 -0.1636  0.9491 -0.3881
  130OSM   H11S13963   6.357   3.748   7.144  1.0387  0.8401  1.6148
  130OSM   H11T13964   6.490   3.790   7.059 -0.9389  1.5222  0.0527
  130OSM   C12S13965   6.514   3.619   7.200 -0.1255 -0.0576 -0.1789
  130OSM   H12S13966   6.607   3.571   7.163 -0.7390 -0.2820 -1.4834
  130OSM   H12T13967   6.441   3.550   7.246 -2.3911  2.3440  0.0741
  130OSM   C13S13968   6.564   3.710   7.315  1.1603 -0.4146  0.0518
  130OSM   H13S13969   6.485   3.782   7.342 -0.8079 -1.3490 -2.7578
  130OSM   H13T13970   6.655   3.766   7.284  1.7018  1.0086  3.6654
  130OSM   C14S13971   6.595   3.635   7.450  0.0826 -0.5348  0.4688
  130OSM   H14S13972   6.702   3.603   7.445 -0.3189 -2.0377  0.7953
  130OSM   H14T13973   6.534   3.543   7.464 -0.2454 -0.1011  2.1192
  130OSM   C15S13974   6.572   3.715   7.576  0.1620 -0.1518  0.0888
  130OSM   H15S13975   6.463   3.736   7.583  0.0859 -1.0901  2.9800
  130OSM   H15T13976   6.628   3.811   7.577 -3.4412  2.1391  1.0454
  130OSM   C16S13977   6.602   3.647   7.716 -0.5902  0.1483 -0.1768
  130OSM   H16S13978   6.598   3.728   7.792  2.6462 -0.8731  1.2472
  130OSM   H16T13979   6.707   3.612   7.713 -0.1559  1.4580 -2.2696
  130OSM   C17S13980   6.514   3.527   7.749  0.1994 -0.2035 -0.5645
  130OSM   H17S13981   6.535   3.488   7.851  1.7093  5.0926  1.5381
  130OSM   H17T13982   6.548   3.454   7.672 -1.4226  0.0331 -1.5477
  130OSM   C18S13983   6.361   3.548   7.750 -0.0716 -0.1538  0.3749
  130OSM   H18S13984   6.304   3.457   7.778 -0.6925  0.2656  0.5230
  130OSM   H18T13985   6.323   3.584   7.652  0.2373 -1.1498 -0.1151
  130OSM   H18U13986   6.335   3.626   7.826 -1.6829  0.2924 -0.5837
  130OSM    C1F13987   5.534   3.779   6.700  0.6093  0.7245 -0.0685
  130OSM     OF13988   5.436   3.719   6.665  0.1063  0.8632 -0.4276
  130OSM    C2F13989   5.563   3.814   6.848 -0.0994 -0.4316 -0.5338
  130OSM    H2F13990   5.592   3.921   6.840 -2.0779  0.0006 -3.7415
  130OSM    H2G13991   5.652   3.760   6.889 -0.0277 -0.4209 -0.6740
  130OSM    C3F13992   5.440   3.786   6.939 -0.0875  1.1693  0.4543
  130OSM    H3F13993   5.410   3.679   6.932 -1.4273  1.3292  2.7077
  130OSM    H3G13994   5.357   3.851   6.903  0.5881  0.4928 -2.5347
  130OSM    C4F13995   5.480   3.823   7.084 -0.9548  0.2300 -0.3463
  130OSM    H4F13996   5.398   3.804   7.156  0.2313  0.7043  1.2051
  130OSM    H4G13997   5.499   3.933   7.082 -0.3777  0.1778  1.2426
  130OSM    C5F13998   5.608   3.760   7.156 -0.8064 -0.1547  0.0061
  130OSM    H5F13999   5.691   3.739   7.085  1.1652 -1.7652  2.6365
  130OSM    H5G14000   5.589   3.661   7.202 -0.7501  0.6653  1.8537
  130OSM    C6F14001   5.681   3.844   7.261 -0.1262  0.4745 -0.0675
  130OSM    H6F14002   5.612   3.862   7.346 -2.7477 -0.5758 -1.8403
  130OSM    H6G14003   5.707   3.947   7.229  0.5207  1.2110  2.6176
  130OSM    C7F14004   5.804   3.767   7.323  0.4245  0.4156 -0.6948
  130OSM    H7F14005   5.882   3.763   7.243  2.1746  1.0560  0.8998
  130OSM    H7G14006   5.780   3.661   7.346 -1.2469  1.1444  1.2257
  130OSM    C8F14007   5.847   3.825   7.456 -0.0913 -0.0432 -0.5669
  130OSM    H8F14008   5.761   3.814   7.526 -0.1874  1.8454 -0.3343
  130OSM    H8G14009   5.859   3.935   7.466  0.0795 -0.2161  1.6488
  130OSM    C9F14010   5.976   3.761   7.491 -0.4075  0.2494  0.2680
  130OSM    H9F14011   6.048   3.734   7.413  2.3577  1.4903  2.2319
  130OSM   C10F14012   6.013   3.713   7.615  0.3511 -0.4371  0.7760
  130OSM   H10F14013   6.115   3.673   7.629  0.7337 -0.1415 -0.9174
  130OSM   C11F14014   5.934   3.737   7.738 -0.2986 -0.1647 -0.1183
  130OSM   H11F14015   5.844   3.672   7.735 -0.1199 -0.4088 -0.2209
  130OSM   H11G14016   5.893   3.840   7.733  1.8487  0.7744  0.1207
  130OSM   C12F14017   6.029   3.726   7.857  0.5647  0.1579 -0.2408
  130OSM   H12F14018   6.126   3.776   7.838  1.7650 -1.9471  0.0019
  130OSM   H12G14019   6.049   3.617   7.866  0.1946  0.1373  0.3648
  130OSM   C13F14020   5.972   3.770   7.990  0.2386 -0.1957 -0.1317
  130OSM   H13F14021   6.020   3.718   8.076 -3.2742  0.3744  2.4029
  130OSM   H13G14022   5.866   3.734   7.995 -0.1039  0.8291  0.1215
  130OSM   C14F14023   5.967   3.921   8.007 -0.0803 -0.0076  0.7209
  130OSM   H14F14024   5.896   3.954   7.929 -0.8340 -0.9267  0.9892
  130OSM   H14G14025   6.071   3.957   7.991 -0.6266  1.3978  0.2043
  130OSM   C15F14026   5.900   3.971   8.136 -0.0353 -0.0765 -0.3516
  130OSM   H15F14027   5.956   3.920   8.218 -0.8322 -1.9985 -0.9379
  130OSM   H15G14028   5.796   3.939   8.115  0.5490  0.0236 -4.1831
  130OSM   C16F14029   5.900   4.124   8.166  0.4680  0.2775  0.4411
  130OSM   H16F14030   5.868   4.181   8.076  0.7214 -0.6019 -0.2195
  130OSM   H16G14031   6.007   4.141   8.189  0.4428  1.0862  0.0243
  130OSM   C17F14032   5.807   4.155   8.282  0.0846  0.2311 -0.1699
  130OSM   H17F14033   5.854   4.241   8.335  0.3396 -0.5243  0.8728
  130OSM   H17G14034   5.807   4.074   8.358  0.0343  0.4870  0.1068
  130OSM   C18F14035   5.662   4.180   8.230 -0.5280 -0.8726  0.6483
  130OSM   H18F14036   5.659   4.239   8.137 -1.3398 -0.5889  0.8521
  130OSM   H18G14037   5.592   4.223   8.305 -1.7282  0.5481 -1.2139
  130OSM   H18H14038   5.615   4.082   8.206 -1.2710 -0.8976  2.1194
  131OSM      N14039   0.842   0.269   5.845 -0.8260  0.0482  0.0315
  131OSM    C1514040   0.920   0.159   5.785 -0.1263  0.4087 -0.1996
  131OSM   H15A14041   0.861   0.069   5.786  0.6713 -0.1410  1.1889
  131OSM   H15B14042   1.001   0.136   5.854 -0.5088 -0.0312  0.1113
  131OSM   H15C14043   0.955   0.185   5.686  0.6328  1.0531  0.2216
  131OSM    C1414044   0.910   0.402   5.836  0.2926  0.7909 -0.7495
  131OSM   H14A14045   1.016   0.393   5.858  0.2509 -1.3069 -1.2437
  131OSM   H14B14046   0.872   0.462   5.918 -0.6868 -2.3823  1.3191
  131OSM   H14C14047   0.906   0.460   5.745 -0.8836 -0.6862 -1.6661
  131OSM    C1314048   0.712   0.289   5.763  0.0613 -0.2665 -0.6413
  131OSM   H13A14049   0.641   0.212   5.792 -1.1663  0.9030 -0.4184
  131OSM   H13B14050   0.739   0.284   5.659  1.1146  2.2626 -0.5722
  131OSM   H13C14051   0.662   0.384   5.778  0.6923  0.3098 -2.0465
  131OSM    C1214052   0.807   0.240   5.990  0.2953  0.2319  0.6339
  131OSM   H12A14053   0.766   0.140   5.996  0.2897  0.2355  0.6542
  131OSM   H12B14054   0.743   0.313   6.037  0.8013  1.4361 -0.4872
  131OSM    C1114055   0.925   0.234   6.086 -0.4022 -0.3037  0.3007
  131OSM   H11A14056   0.882   0.224   6.188  1.5233 -2.9085  0.9652
  131OSM   H11B14057   0.980   0.331   6.092 -3.1099  1.2344  2.6888
  131OSM      P14058   0.959  -0.021   6.101  0.1844 -0.4269  0.2024
  131OSM    O1314059   0.814  -0.038   6.126 -0.1315 -0.0297 -0.0137
  131OSM    O1414060   1.019  -0.118   6.012  0.0819  0.3102  0.1202
  131OSM    O1114061   1.036  -0.036   6.242  0.0999  1.1116  0.2121
  131OSM    O1214062   1.001   0.119   6.055  0.0995 -0.2718  0.1291
  131OSM    C1S14063   1.074   0.063   6.341  0.3345 -0.2632 -0.9246
  131OSM    H1S14064   1.110   0.162   6.304  0.6829 -0.5583 -1.3856
  131OSM    H1T14065   1.156   0.021   6.402  0.6566 -0.8277 -1.7267
  131OSM     NF14066   0.979   0.209   6.534 -0.5774 -0.0876  0.1449
  131OSM    HNF14067   1.004   0.184   6.627 -0.5608 -0.6522 -0.0048
  131OSM    C2S14068   0.953   0.092   6.445 -0.4426  0.1345 -0.5660
  131OSM    H2S14069   0.866   0.123   6.383  1.3619  3.8778 -1.5245
  131OSM    C3S14070   0.919  -0.042   6.521  0.0691  0.9501 -0.2147
  131OSM    H3S14071   1.008  -0.083   6.573 -0.9025 -4.8981 -2.3689
  131OSM     O314072   0.885  -0.147   6.435 -0.7293  0.0947 -0.2978
  131OSM    HO314073   0.903  -0.126   6.343  1.8343 -2.4215 -0.5389
  131OSM    C4S14074   0.816  -0.016   6.622  0.7425 -0.0507  0.4892
  131OSM    H4S14075   0.864  -0.014   6.721 -0.8772  0.6734  1.2885
  131OSM    C5S14076   0.681  -0.003   6.604  0.3511 -0.0894 -0.4092
  131OSM    H5S14077   0.646  -0.018   6.501  0.0695 -1.8372 -0.0949
  131OSM    C6S14078   0.568   0.015   6.701 -0.3028  0.1509 -0.4592
  131OSM    H6S14079   0.488  -0.053   6.664  0.1803 -0.9373  0.4497
  131OSM    H6T14080   0.523   0.116   6.711 -1.6589 -0.3374 -1.4363
  131OSM    C7S14081   0.606  -0.035   6.839  0.0006 -0.0320 -0.2927
  131OSM    H7S14082   0.678   0.038   6.883 -0.5049  0.3422 -0.0675
  131OSM    H7T14083   0.648  -0.138   6.839  1.4623  0.5384  0.4114
  131OSM    C8S14084   0.489  -0.038   6.941 -0.5014 -0.2744  0.0093
  131OSM    H8S14085   0.397  -0.088   6.902 -0.3603  0.5550 -1.4855
  131OSM    H8T14086   0.455   0.065   6.962 -1.2549 -0.4969 -0.0786
  131OSM    C9S14087   0.538  -0.094   7.075  0.1286  0.2610 -0.2164
  131OSM    H9S14088   0.641  -0.056   7.092  0.6601 -1.4507  0.6117
  131OSM    H9T14089   0.556  -0.203   7.059 -0.1826  0.2139 -0.2679
  131OSM   C10S14090   0.428  -0.060   7.170  0.3499 -1.0648 -0.3803
  131OSM   H10S14091   0.329  -0.105   7.146 -1.5527  3.1316 -1.4624
  131OSM   H10T14092   0.408   0.050   7.168  0.9879 -0.9626 -1.7670
  131OSM   C11S14093   0.458  -0.102   7.316 -0.8410 -0.1332  0.2727
  131OSM   H11S14094   0.379  -0.067   7.386 -0.4638  0.2501  0.5085
  131OSM   H11T14095   0.550  -0.051   7.351  0.5058 -2.2432 -0.0236
  131OSM   C12S14096   0.485  -0.254   7.329  0.1309 -0.6892  0.1876
  131OSM   H12S14097   0.569  -0.287   7.264 -0.9478 -0.3702 -1.4442
  131OSM   H12T14098   0.398  -0.305   7.282  1.4297 -3.5340  0.6107
  131OSM   C13S14099   0.496  -0.293   7.473 -0.4068  0.8005  0.1066
  131OSM   H13S14100   0.461  -0.399   7.476  1.2638  0.2116 -0.1497
  131OSM   H13T14101   0.433  -0.226   7.535 -0.1948  1.0410  0.0654
  131OSM   C14S14102   0.634  -0.278   7.533 -0.6320 -0.0232  0.1071
  131OSM   H14S14103   0.655  -0.172   7.559  0.8067 -0.1378 -0.4703
  131OSM   H14T14104   0.706  -0.293   7.449 -1.2803  1.0422 -0.6725
  131OSM   C15S14105   0.652  -0.364   7.655 -0.3700  0.4486 -0.3162
  131OSM   H15S14106   0.646  -0.473   7.635 -1.3269  0.0632  1.8234
  131OSM   H15T14107   0.565  -0.342   7.719 -0.2400 -3.3806  1.4455
  131OSM   C16S14108   0.780  -0.327   7.732  0.5288  0.0861  0.4258
  131OSM   H16S14109   0.778  -0.217   7.741  2.0753  0.2203 -0.5543
  131OSM   H16T14110   0.874  -0.354   7.679  0.2492 -1.7224  0.7584
  131OSM   C17S14111   0.782  -0.395   7.871  0.9695 -0.6658  0.0292
  131OSM   H17S14112   0.688  -0.357   7.917 -0.6505 -1.5046 -2.3670
  131OSM   H17T14113   0.874  -0.359   7.922  1.2618 -2.3320  0.7284
  131OSM   C18S14114   0.800  -0.545   7.863  0.1185  0.2721 -0.8377
  131OSM   H18S14115   0.730  -0.597   7.794 -1.0223 -0.5754  0.8928
  131OSM   H18T14116   0.795  -0.595   7.962  1.3249 -2.0083 -1.8253
  131OSM   H18U14117   0.905  -0.574   7.840  0.7839 -3.1433  4.6882
  131OSM    C1F14118   0.980   0.338   6.494 -0.3441  0.0023 -0.0724
  131OSM     OF14119   0.954   0.374   6.383  0.3065 -0.0944  0.5519
  131OSM    C2F14120   1.012   0.436   6.596 -0.6335 -0.5827 -0.3620
  131OSM    H2F14121   1.002   0.395   6.698  0.4344  1.1296  0.4747
  131OSM    H2G14122   0.939   0.519   6.583  1.3821  1.3771  0.2087
  131OSM    C3F14123   1.162   0.486   6.572 -0.4774  0.5838  0.0033
  131OSM    H3F14124   1.172   0.547   6.479  0.7994  0.6359  0.1517
  131OSM    H3G14125   1.232   0.400   6.565  2.2672  2.6798  0.0290
  131OSM    C4F14126   1.213   0.566   6.699  0.7488  0.2027  0.1825
  131OSM    H4F14127   1.321   0.569   6.671  0.9678 -1.9520  0.6277
  131OSM    H4G14128   1.218   0.498   6.787  2.2185 -1.2172 -0.9155
  131OSM    C5F14129   1.157   0.703   6.713  1.5449  0.1795  0.5678
  131OSM    H5F14130   1.047   0.691   6.718  1.3275  1.3591 -0.8073
  131OSM    H5G14131   1.172   0.759   6.618  0.9832 -1.6008 -0.6038
  131OSM    C6F14132   1.200   0.785   6.831 -0.6284 -0.0132  0.1238
  131OSM    H6F14133   1.173   0.892   6.817 -1.5909 -0.2626 -0.0406
  131OSM    H6G14134   1.311   0.790   6.835 -0.4578 -2.3155 -0.4210
  131OSM    C7F14135   1.145   0.723   6.959 -0.3146  0.0685 -0.3060
  131OSM    H7F14136   1.195   0.626   6.978  2.1679  1.5097  1.1098
  131OSM    H7G14137   1.035   0.713   6.946 -0.2014 -1.3815 -0.2597
  131OSM    C8F14138   1.174   0.825   7.073 -0.2402  0.5177 -0.5258
  131OSM    H8F14139   1.132   0.925   7.049  0.5413  1.1458  0.6285
  131OSM    H8G14140   1.283   0.843   7.087 -0.0725 -0.3281 -0.6818
  131OSM    C9F14141   1.111   0.777   7.204  0.3261  0.1641  0.1143
  131OSM    H9F14142   1.009   0.735   7.211 -0.5422  2.3667  3.6023
  131OSM   C10F14143   1.168   0.788   7.330 -0.6743  0.1282  0.3900
  131OSM   H10F14144   1.107   0.772   7.420 -4.8564  1.8551 -1.8242
  131OSM   C11F14145   1.306   0.837   7.351  0.1033  0.6005 -0.1551
  131OSM   H11F14146   1.304   0.940   7.311 -0.7652  0.8658  0.5359
  131OSM   H11G14147   1.385   0.786   7.291  1.7296  1.1291  1.4353
  131OSM   C12F14148   1.346   0.827   7.500 -0.7881 -0.1386 -0.2569
  131OSM   H12F14149   1.450   0.864   7.516 -1.0275  0.9833 -1.1627
  131OSM   H12G14150   1.332   0.725   7.541  0.0352 -0.3632 -0.5195
  131OSM   C13F14151   1.248   0.925   7.576 -0.0935  0.2208 -0.0077
  131OSM   H13F14152   1.163   0.857   7.599  0.2651  0.0086  0.7105
  131OSM   H13G14153   1.222   0.999   7.497 -0.1881  1.1988  0.9123
  131OSM   C14F14154   1.305   1.000   7.689  0.5376 -0.3507 -0.7313
  131OSM   H14F14155   1.223   1.062   7.732 -0.2505 -0.1219 -2.4776
  131OSM   H14G14156   1.390   1.065   7.662  0.9099 -0.4674  0.0989
  131OSM   C15F14157   1.354   0.905   7.798 -0.7608  0.4919 -0.2808
  131OSM   H15F14158   1.433   0.838   7.757  1.8253  2.6146  0.9105
  131OSM   H15G14159   1.278   0.831   7.831  0.2735 -0.6363 -0.3514
  131OSM   C16F14160   1.397   0.975   7.933  0.5576 -0.0935 -0.4630
  131OSM   H16F14161   1.322   1.052   7.962  2.6657  1.8644  0.0657
  131OSM   H16G14162   1.490   1.027   7.903  0.1356 -0.6305 -2.9331
  131OSM   C17F14163   1.416   0.871   8.041 -0.6077  0.7437  0.1964
  131OSM   H17F14164   1.478   0.793   7.991  0.3109  1.8509 -0.4536
  131OSM   H17G14165   1.322   0.830   8.084  0.1325  1.0503  2.2095
  131OSM   C18F14166   1.512   0.912   8.148  0.1072 -0.4737  0.1519
  131OSM   H18F14167   1.619   0.917   8.118  0.9624 -1.0637  2.8543
  131OSM   H18G14168   1.504   0.846   8.236 -0.8804  2.3209  2.3041
  131OSM   H18H14169   1.493   1.015   8.186 -0.6163 -1.5363  2.9238
  132OSM      N14170   1.867   1.693   5.991 -0.3285 -0.6865 -0.5978
  132OSM    C1514171   1.741   1.747   6.042  0.1140 -0.1405 -0.3151
  132OSM   H15A14172   1.764   1.844   6.085 -0.1741 -0.4706  0.6188
  132OSM   H15B14173   1.705   1.694   6.129  0.8728  1.7758  1.2405
  132OSM   H15C14174   1.674   1.775   5.963  0.7453  2.0185 -0.1496
  132OSM    C1414175   1.835   1.565   5.918  0.2594  0.1069  0.6670
  132OSM   H14A14176   1.925   1.513   5.888  0.8580  1.1611  0.6181
  132OSM   H14B14177   1.780   1.589   5.828  1.6978  0.5320 -0.1250
  132OSM   H14C14178   1.769   1.500   5.975 -0.6440  0.3490 -0.0678
  132OSM    C1314179   1.927   1.785   5.897  0.1900 -0.6803 -0.3941
  132OSM   H13A14180   1.874   1.811   5.807  1.2399 -0.2602 -0.9096
  132OSM   H13B14181   2.024   1.751   5.864 -0.3155  0.1038 -2.8945
  132OSM   H13C14182   1.945   1.880   5.947 -2.7346  0.4993 -1.3593
  132OSM    C1214183   1.961   1.665   6.104  0.5340 -0.0672 -0.5810
  132OSM   H12A14184   2.058   1.641   6.064  0.8510  1.1504 -0.5689
  132OSM   H12B14185   1.933   1.572   6.152  0.1784  0.7644  0.8726
  132OSM    C1114186   1.986   1.767   6.218 -0.0713 -0.9621 -0.4963
  132OSM   H11A14187   2.066   1.726   6.283  0.3648 -0.4908 -0.7275
  132OSM   H11B14188   1.897   1.760   6.285  0.4710 -3.0682  0.0788
  132OSM      P14189   1.943   2.028   6.219 -0.2738 -0.3518  0.2678
  132OSM    O1314190   2.002   2.144   6.151 -0.5611  0.2420 -0.6055
  132OSM    O1414191   1.799   2.020   6.199 -0.1896  0.6722  0.3894
  132OSM    O1114192   1.980   2.025   6.370 -0.0673  0.3351 -0.1377
  132OSM    O1214193   2.011   1.899   6.166 -0.4940  0.0005  0.3641
  132OSM    C1S14194   2.115   2.016   6.414  1.0560 -0.3894  0.5693
  132OSM    H1S14195   2.188   2.079   6.358  1.3780 -1.6734 -0.5100
  132OSM    H1T14196   2.147   1.910   6.410  1.4002 -0.3710  2.3109
  132OSM     NF14197   2.256   2.081   6.615  0.0512 -0.7388  0.2476
  132OSM    HNF14198   2.302   2.006   6.662  1.2958 -0.4674 -0.4911
  132OSM    C2S14199   2.118   2.070   6.566 -0.0046  0.7947  0.1533
  132OSM    H2S14200   2.067   2.168   6.560 -0.5149  0.4622 -1.6224
  132OSM    C3S14201   2.030   1.979   6.649 -0.5253 -0.1215 -0.2335
  132OSM    H3S14202   2.074   1.877   6.659  1.1476  0.6924  1.2052
  132OSM     O314203   1.895   1.960   6.608  0.3156 -0.6548 -0.1939
  132OSM    HO314204   1.903   1.970   6.513 -0.4319  1.1423 -0.1128
  132OSM    C4S14205   2.026   2.037   6.790  0.0544 -0.1554  0.9388
  132OSM    H4S14206   2.106   1.990   6.849  1.2162 -0.2624 -0.6660
  132OSM    C5S14207   1.945   2.136   6.842  0.4340  0.3663 -0.4395
  132OSM    H5S14208   1.853   2.160   6.787 -0.3876  0.6385  0.9911
  132OSM    C6S14209   1.952   2.181   6.988 -0.2426 -0.2074  0.4346
  132OSM    H6S14210   1.863   2.241   7.018  0.2286 -0.7093  3.0831
  132OSM    H6T14211   2.037   2.250   7.009 -0.1738 -0.1886  0.0845
  132OSM    C7S14212   1.951   2.077   7.101  0.7391  0.7563  0.3004
  132OSM    H7S14213   2.050   2.027   7.092  0.6711  0.4037  1.3487
  132OSM    H7T14214   1.875   2.003   7.068 -1.8413  3.6005 -0.6355
  132OSM    C8S14215   1.908   2.124   7.237 -1.1451 -0.1358 -0.3453
  132OSM    H8S14216   1.804   2.159   7.220 -0.5310  0.7152 -2.7491
  132OSM    H8T14217   1.976   2.210   7.257 -0.1301 -1.4310  2.2899
  132OSM    C9S14218   1.926   2.033   7.358  0.0968 -0.3371 -0.1090
  132OSM    H9S14219   2.019   1.972   7.366 -1.3724 -2.6073  0.7849
  132OSM    H9T14220   1.854   1.949   7.349  0.5073 -0.8968  1.4392
  132OSM   C10S14221   1.908   2.095   7.495  0.1071  0.1061 -0.0694
  132OSM   H10S14222   1.803   2.099   7.533  0.5404  4.0196  1.1864
  132OSM   H10T14223   1.949   2.198   7.496  1.8954 -0.5647  0.8680
  132OSM   C11S14224   1.989   2.022   7.609 -0.0552 -0.1698  0.2620
  132OSM   H11S14225   2.094   2.031   7.575  0.0804  0.2933  0.8103
  132OSM   H11T14226   1.972   1.914   7.590  0.8187 -0.2045 -0.3637
  132OSM   C12S14227   1.964   2.083   7.744  0.7948 -0.4501 -0.3727
  132OSM   H12S14228   1.856   2.072   7.767  0.8963 -0.8130 -0.0614
  132OSM   H12T14229   1.986   2.191   7.754  2.1622 -0.8364  1.1289
  132OSM   C13S14230   2.036   2.015   7.862 -0.6617  0.0752 -0.3115
  132OSM   H13S14231   2.136   1.977   7.835  0.0740  0.9743  1.0285
  132OSM   H13T14232   1.982   1.921   7.886 -0.5754  0.2536  0.6435
  132OSM   C14S14233   2.039   2.096   7.995 -0.0211  0.7082  0.3774
  132OSM   H14S14234   1.938   2.138   8.015 -0.1343  0.8956 -0.5359
  132OSM   H14T14235   2.114   2.176   7.977  1.4706 -0.7776 -0.2787
  132OSM   C15S14236   2.080   2.014   8.111 -0.0823 -0.0062  0.7348
  132OSM   H15S14237   2.176   1.967   8.082  0.4158 -0.7246  3.3230
  132OSM   H15T14238   2.007   1.932   8.132 -0.2622  0.5134  2.2706
  132OSM   C16S14239   2.113   2.092   8.234  0.5865  0.5438  0.0802
  132OSM   H16S14240   2.025   2.152   8.267  0.6966  0.3905  0.6646
  132OSM   H16T14241   2.202   2.154   8.215  1.3726 -1.3713 -3.1704
  132OSM   C17S14242   2.152   1.996   8.350 -0.2456 -0.4317  0.0645
  132OSM   H17S14243   2.240   1.941   8.312 -0.0072  0.2258 -0.3614
  132OSM   H17T14244   2.068   1.924   8.367 -0.7543  0.5942  2.2429
  132OSM   C18S14245   2.200   2.064   8.475  0.2744 -0.2727  0.3125
  132OSM   H18S14246   2.290   2.122   8.447 -0.6248  0.8070 -0.4152
  132OSM   H18T14247   2.230   1.994   8.556  0.5198 -1.8645 -1.1112
  132OSM   H18U14248   2.138   2.139   8.530  2.8896  0.1472  2.9374
  132OSM    C1F14249   2.330   2.186   6.592 -0.5648 -0.0001  0.4668
  132OSM     OF14250   2.285   2.286   6.530 -0.1048 -0.0305  0.0033
  132OSM    C2F14251   2.473   2.168   6.630 -0.7318 -0.3339  0.4951
  132OSM    H2F14252   2.518   2.126   6.537 -3.6608  1.4969 -1.9495
  132OSM    H2G14253   2.484   2.091   6.709 -0.6284  0.3287  1.1316
  132OSM    C3F14254   2.550   2.293   6.676 -1.0832  0.0044  0.2355
  132OSM    H3F14255   2.562   2.366   6.593  0.7366  0.4133  0.8213
  132OSM    H3G14256   2.655   2.271   6.702 -1.4728  0.2560  2.1433
  132OSM    C4F14257   2.484   2.374   6.793  0.6724  0.0241  0.4900
  132OSM    H4F14258   2.450   2.307   6.875  0.0392  0.2200  0.3934
  132OSM    H4G14259   2.401   2.439   6.759  0.5341  0.5339  1.7428
  132OSM    C5F14260   2.574   2.490   6.847 -0.0399  0.5594 -0.9649
  132OSM    H5F14261   2.514   2.550   6.918 -1.0123 -0.2276 -1.1064
  132OSM    H5G14262   2.615   2.555   6.767 -1.3475  2.6691 -0.0146
  132OSM    C6F14263   2.688   2.434   6.926 -0.9680  0.5819 -0.0309
  132OSM    H6F14264   2.745   2.518   6.972 -0.0974 -0.7532  1.4118
  132OSM    H6G14265   2.758   2.375   6.864 -2.7890 -1.5486 -0.1790
  132OSM    C7F14266   2.645   2.345   7.042 -0.0614  0.1132 -0.5651
  132OSM    H7F14267   2.742   2.306   7.078 -0.5661  0.0650  0.8088
  132OSM    H7G14268   2.598   2.251   7.006  1.1080 -0.3956 -0.8092
  132OSM    C8F14269   2.545   2.414   7.136 -0.1938 -0.4940  0.2627
  132OSM    H8F14270   2.520   2.339   7.215  0.9935 -0.2841  0.8629
  132OSM    H8G14271   2.451   2.422   7.077 -1.8691 -2.4606  2.4427
  132OSM    C9F14272   2.587   2.541   7.207 -0.5418  0.5985  0.5928
  132OSM    H9F14273   2.552   2.637   7.167 -0.8051  0.2095 -0.1315
  132OSM   C10F14274   2.654   2.540   7.326  0.6698  0.0068  0.2614
  132OSM   H10F14275   2.681   2.642   7.357 -2.6218  1.1955 -0.3421
  132OSM   C11F14276   2.711   2.427   7.410 -0.1998  0.0275  0.0875
  132OSM   H11F14277   2.690   2.325   7.370 -5.2557  0.6596  0.3901
  132OSM   H11G14278   2.649   2.432   7.503  1.0119  2.7839  0.8340
  132OSM   C12F14279   2.852   2.437   7.457 -0.7343  0.1301  0.0116
  132OSM   H12F14280   2.912   2.466   7.368 -0.7137 -0.2674 -0.1098
  132OSM   H12G14281   2.901   2.343   7.491 -2.4943 -0.5240  0.8640
  132OSM   C13F14282   2.878   2.546   7.563 -0.4727 -0.5017 -0.5786
  132OSM   H13F14283   2.825   2.639   7.532  2.1918  0.9791 -0.9356
  132OSM   H13G14284   2.986   2.571   7.569 -0.1960 -1.9354  1.9809
  132OSM   C14F14285   2.834   2.517   7.703  0.1666 -0.1887  0.6962
  132OSM   H14F14286   2.729   2.482   7.693  0.0347  0.2664  0.4579
  132OSM   H14G14287   2.831   2.608   7.767 -0.5433  0.5107 -0.3025
  132OSM   C15F14288   2.919   2.406   7.770 -0.0356  0.3105  0.1330
  132OSM   H15F14289   3.025   2.438   7.771 -0.8768  3.3985  0.3384
  132OSM   H15G14290   2.905   2.314   7.708  1.5588  1.0888 -1.4723
  132OSM   C16F14291   2.883   2.382   7.915  0.0461  0.4282 -0.5623
  132OSM   H16F14292   2.915   2.283   7.952  1.0029  1.2197  0.8284
  132OSM   H16G14293   2.773   2.369   7.914  0.1400 -0.4653 -0.0887
  132OSM   C17F14294   2.915   2.492   8.015  0.0240 -0.1084 -0.2151
  132OSM   H17F14295   2.915   2.444   8.115  0.7277  0.8540  0.2589
  132OSM   H17G14296   2.851   2.583   8.017  1.3603  0.8567  0.9638
  132OSM   C18F14297   3.057   2.553   8.013 -0.1867 -0.0269 -0.1952
  132OSM   H18F14298   3.129   2.469   7.999 -0.5015  0.0873 -3.1300
  132OSM   H18G14299   3.079   2.601   8.111  0.4826  0.5086 -0.5994
  132OSM   H18H14300   3.085   2.627   7.935  1.0697  1.3967  1.5070
  133SAPE     N14301   6.661   0.951  10.817  0.2500  0.0923  0.3891
  133SAPE   HN114302   6.683   1.042  10.772  1.8034 -0.6191 -0.3608
  133SAPE   HN214303   6.755   0.912  10.839 -2.0487 -4.6058  3.3980
  133SAPE   HN314304   6.605   0.892  10.753 -0.6165  0.6197  0.6405
  133SAPE   C1214305   6.587   0.974  10.948  0.1986 -0.9523  0.1817
  133SAPE  H12A14306   6.652   1.034  11.015 -1.7286  0.7215  0.6400
  133SAPE  H12B14307   6.580   0.872  10.992 -0.9161 -1.6252 -1.4694
  133SAPE   C1114308   6.446   1.015  10.922 -0.6397 -0.0427 -0.0427
  133SAPE  H11A14309   6.401   1.038  11.021 -0.7341  1.1280 -0.3404
  133SAPE  H11B14310   6.397   0.926  10.878  1.5712 -2.0089  1.2315
  133SAPE     P14311   6.291   1.173  10.771  0.4663 -0.5806 -0.2692
  133SAPE   O1314312   6.187   1.187  10.876 -0.2983  0.2077  0.1990
  133SAPE   O1414313   6.313   1.287  10.682 -0.1643  0.4000 -1.1842
  133SAPE   O1214314   6.431   1.132  10.834 -0.0685 -0.0769 -0.5172
  133SAPE   O1114315   6.259   1.050  10.689 -0.3207 -0.0823  0.3853
  133SAPE    C114316   6.349   0.975  10.614 -0.0566 -0.2884 -0.2344
  133SAPE    HA14317   6.446   0.957  10.664 -1.1644 -0.0876  2.1331
  133SAPE    HB14318   6.299   0.877  10.602 -1.4616  0.4936 -1.1249
  133SAPE    C214319   6.370   1.024  10.473 -0.2463 -0.2960 -0.5177
  133SAPE    HS14320   6.410   1.127  10.466 -1.8223  0.2295 -2.5564
  133SAPE   O2114321   6.245   1.007  10.403  0.1078  0.5695  0.2527
  133SAPE   C2114322   6.188   1.105  10.334  1.1233 -0.0046  0.7412
  133SAPE   O2214323   6.231   1.219  10.330 -0.2074 -0.0652  0.2374
  133SAPE   C2214324   6.086   1.044  10.235  0.2506  0.0273  0.2126
  133SAPE   H2R14325   6.116   0.944  10.197 -0.7753  0.4734 -1.9650
  133SAPE   H2S14326   5.984   1.043  10.280 -0.0850  2.7453 -0.3432
  133SAPE    C314327   6.476   0.929  10.406  0.7194 -0.3647 -0.5178
  133SAPE    HX14328   6.437   0.825  10.395 -0.9772  0.3018 -1.2054
  133SAPE    HY14329   6.569   0.916  10.465  1.2890 -0.3452 -1.4045
  133SAPE   O3114330   6.499   0.988  10.279  0.3429  0.2191 -0.4920
  133SAPE   C3114331   6.584   1.091  10.274 -0.0726  0.1571  0.2628
  133SAPE   O3214332   6.645   1.131  10.370 -0.1926  0.4531  0.2203
  133SAPE   C3214333   6.605   1.144  10.132  1.0147  0.3488  0.7088
  133SAPE   H2X14334   6.679   1.088  10.071  0.7647  1.8932 -1.1185
  133SAPE   H2Y14335   6.636   1.250  10.143 -1.5789  1.1314  1.2757
  133SAPE   C2314336   6.077   1.131  10.104 -0.6367  0.4751 -0.1881
  133SAPE   H3R14337   6.166   1.124  10.038 -1.0453 -0.4826 -0.6637
  133SAPE   H3S14338   6.077   1.238  10.133 -0.7406  0.0948  1.3037
  133SAPE   C2414339   5.956   1.088  10.010 -0.1851 -0.0655  0.7891
  133SAPE   H4R14340   5.940   1.173   9.940 -2.4304 -0.8442  0.2827
  133SAPE   H4S14341   5.881   1.083  10.091 -1.8535 -1.0320 -0.7578
  133SAPE   C2514342   5.961   0.954   9.940  0.1676  0.1584  0.7382
  133SAPE   H5R14343   5.888   0.877   9.966  0.7576  0.0408  2.1206
  133SAPE   C2614344   6.057   0.926   9.843 -0.1532  0.6769  0.1132
  133SAPE   H6R14345   6.067   0.822   9.808 -1.7833  0.3495  0.5048
  133SAPE   C2714346   6.172   1.021   9.813  0.3339  0.3309 -0.0344
  133SAPE   H7R14347   6.256   1.013   9.884  0.2794  3.9313  0.6418
  133SAPE   H7S14348   6.136   1.127   9.814  1.1431  0.6134 -0.1718
  133SAPE   C2814349   6.229   0.991   9.677 -0.3575  0.1767 -0.1135
  133SAPE   H8R14350   6.239   0.885   9.650  0.8610 -0.0921  1.2207
  133SAPE   C2914351   6.254   1.081   9.582 -0.3025 -0.4405  0.2394
  133SAPE   H9R14352   6.296   1.043   9.488  0.8484 -1.9239  1.3061
  133SAPE  C21014353   6.253   1.232   9.600 -0.4619  0.3880  0.3120
  133SAPE  H10R14354   6.314   1.256   9.690  2.0112  0.8803 -1.3904
  133SAPE  H10S14355   6.148   1.254   9.627  0.0977  1.1405  2.0601
  133SAPE  C21114356   6.299   1.322   9.486  0.5845 -0.0404  0.2201
  133SAPE  H11R14357   6.401   1.363   9.491  0.3439  0.4588  1.3066
  133SAPE  C21214358   6.228   1.342   9.373 -0.7751 -0.0025  0.2176
  133SAPE  H12R14359   6.257   1.428   9.311 -1.0411  0.9975  1.4141
  133SAPE  C21314360   6.100   1.282   9.341  0.4487  0.1746 -0.8213
  133SAPE  H13R14361   6.042   1.358   9.284 -1.1650  0.9312  1.6458
  133SAPE  H13S14362   6.040   1.260   9.432  0.3988  0.8471 -0.6895
  133SAPE  C21414363   6.104   1.144   9.275 -0.1637 -0.2177 -0.0478
  133SAPE  H14R14364   6.160   1.072   9.337  1.6961  0.0141 -1.3664
  133SAPE  C21514365   6.054   1.105   9.157 -0.5569  0.0756  0.4679
  133SAPE  H15R14366   6.076   1.003   9.122  1.7275  1.6237 -3.2020
  133SAPE  C21614367   5.974   1.191   9.060 -0.3523  0.2242 -0.2677
  133SAPE  H16R14368   5.928   1.276   9.114  2.0419  0.6044  1.3755
  133SAPE  H16S14369   5.897   1.133   9.005  1.3386  0.0880 -2.6653
  133SAPE  C21714370   6.070   1.259   8.965  0.2922  0.1974 -0.3837
  133SAPE  H17R14371   6.097   1.184   8.887 -0.6577  0.6471 -1.1809
  133SAPE  H17S14372   6.156   1.297   9.023 -0.4420 -1.4790  1.9729
  133SAPE  C21814373   6.009   1.379   8.892 -0.0227 -0.0393 -0.0869
  133SAPE  H18R14374   5.957   1.444   8.965 -0.3500  1.6702 -1.7800
  133SAPE  H18S14375   5.925   1.339   8.830  1.0028 -1.1155 -0.8559
  133SAPE  C21914376   6.117   1.452   8.813  0.9560 -0.2721  0.1504
  133SAPE  H19R14377   6.213   1.456   8.869  1.8201 -2.2295 -1.0957
  133SAPE  H19S14378   6.085   1.558   8.805  1.0187 -0.2155  0.5869
  133SAPE  C22014379   6.154   1.402   8.677  1.0336  0.9747  0.4841
  133SAPE  H20R14380   6.076   1.413   8.599  1.0182  1.8536  0.6154
  133SAPE  H20S14381   6.158   1.291   8.676 -4.5142  0.5029 -0.1957
  133SAPE  H20T14382   6.241   1.444   8.623  1.1511 -1.0343 -0.9875
  133SAPE   C3314383   6.473   1.150  10.058 -0.2776  0.9510  0.4088
  133SAPE   H3X14384   6.393   1.213  10.103 -0.1886  0.0444  1.9020
  133SAPE   H3Y14385   6.431   1.047  10.069  0.1392  0.8302  0.8883
  133SAPE   C3414386   6.508   1.201   9.918  0.5214  0.3194 -0.6779
  133SAPE   H4X14387   6.579   1.286   9.921 -0.3794  1.1268 -1.4941
  133SAPE   H4Y14388   6.411   1.238   9.879 -0.7237 -1.4194  0.6106
  133SAPE   C3514389   6.563   1.093   9.827  0.0059  0.5142  0.0616
  133SAPE   H5X14390   6.485   1.016   9.809  0.7788 -0.3154  0.1990
  133SAPE   H5Y14391   6.640   1.027   9.873  0.8676 -0.1703 -2.2294
  133SAPE   C3614392   6.634   1.135   9.695 -0.0719 -0.0549 -0.3691
  133SAPE   H6X14393   6.726   1.191   9.723 -1.3440  2.1685 -0.3504
  133SAPE   H6Y14394   6.567   1.202   9.637  0.9320  0.3441 -1.0858
  133SAPE   C3714395   6.672   1.013   9.612 -0.1367  0.0674  0.4673
  133SAPE   H7X14396   6.582   0.949   9.602 -1.2292  1.6405 -0.2633
  133SAPE   H7Y14397   6.754   0.954   9.657  0.7552 -0.1038 -1.2911
  133SAPE   C3814398   6.717   1.038   9.465  0.9416  0.4356 -0.0422
  133SAPE   H8X14399   6.775   0.948   9.438 -0.5903 -1.3583  2.1935
  133SAPE   H8Y14400   6.786   1.123   9.452  1.9390 -0.5133 -1.1020
  133SAPE   C3914401   6.605   1.041   9.359  0.4209 -0.4573 -0.6395
  133SAPE   H9X14402   6.539   1.121   9.399 -3.8678 -2.4552 -3.1083
  133SAPE   H9Y14403   6.548   0.946   9.366  0.0843 -0.3142 -1.3271
  133SAPE  C31014404   6.638   1.063   9.209  0.4752 -0.0305 -0.7974
  133SAPE  H10X14405   6.670   0.964   9.169 -3.4025 -1.3086 -1.1225
  133SAPE  H10Y14406   6.724   1.131   9.191  3.6078 -3.1288  1.2870
  133SAPE  C31114407   6.516   1.105   9.123 -0.2058  0.2836 -0.1091
  133SAPE  H11X14408   6.486   1.212   9.136  0.6811  0.6394 -0.8876
  133SAPE  H11Y14409   6.433   1.043   9.162 -0.9050  2.0139  1.3084
  133SAPE  C31214410   6.546   1.094   8.970 -0.1800 -0.3476 -0.6648
  133SAPE  H12X14411   6.592   0.995   8.947 -1.7090 -0.7229 -2.3466
  133SAPE  H12Y14412   6.614   1.176   8.936  0.5365  0.8212  3.1335
  133SAPE  C31314413   6.416   1.108   8.888  0.7489  0.1226 -0.1496
  133SAPE  H13X14414   6.378   1.209   8.911  1.0533  0.0439  0.7249
  133SAPE  H13Y14415   6.338   1.037   8.921 -0.3073  1.5781  0.5830
  133SAPE  C31414416   6.427   1.100   8.734  0.3762 -0.4738  0.7483
  133SAPE  H14X14417   6.488   1.185   8.699 -0.9729 -0.2139 -1.1287
  133SAPE  H14Y14418   6.324   1.104   8.693  0.9981 -0.0262 -0.8266
  133SAPE  C31514419   6.495   0.972   8.680  0.1043 -0.2447  0.0973
  133SAPE  H15X14420   6.445   0.883   8.723  0.4243 -0.8807 -0.8178
  133SAPE  H15Y14421   6.601   0.972   8.712 -0.4530 -3.6459  2.4752
  133SAPE  C31614422   6.479   0.963   8.530  0.6323 -0.1408  0.3473
  133SAPE  H16X14423   6.535   1.046   8.482  2.7185 -1.2451  0.7615
  133SAPE  H16Y14424   6.369   0.960   8.515  0.4367 -2.5791  1.6787
  133SAPE  C31714425   6.535   0.838   8.470 -0.1462  0.0664  0.3323
  133SAPE  H17X14426   6.474   0.756   8.512 -0.1662 -0.8253 -1.3687
  133SAPE  H17Y14427   6.639   0.824   8.507 -0.4071  2.8877  2.4451
  133SAPE  C31814428   6.509   0.830   8.321  0.3084 -0.7973  0.6424
  133SAPE  H18X14429   6.400   0.833   8.299  0.7477 -0.0151 -1.7445
  133SAPE  H18Y14430   6.558   0.739   8.280 -2.2158 -1.5630 -0.8690
  133SAPE  H18Z14431   6.560   0.920   8.281 -0.2472 -0.5874  0.3899
  134SAPE     N14432   0.470   1.448  10.404  0.2758 -0.3835  0.1912
  134SAPE   HN114433   0.381   1.491  10.372 -0.3720 -0.5490  1.7239
  134SAPE   HN214434   0.557   1.499  10.376 -0.8350  1.1695 -0.5782
  134SAPE   HN314435   0.473   1.357  10.353 -1.6169 -1.1464  1.3556
  134SAPE   C1214436   0.463   1.446  10.549  0.6875  0.4248 -0.0927
  134SAPE  H12A14437   0.364   1.410  10.584  0.8761  1.3103  1.4633
  134SAPE  H12B14438   0.474   1.547  10.594 -0.5834  1.8366 -2.6981
  134SAPE   C1114439   0.571   1.341  10.589  0.7594 -0.5041 -0.0695
  134SAPE  H11A14440   0.580   1.337  10.700 -2.6373  1.5702  0.4157
  134SAPE  H11B14441   0.667   1.375  10.545  1.5152 -0.9434  1.1686
  134SAPE     P14442   0.633   1.104  10.504 -0.0548 -0.0529 -0.6434
  134SAPE   O1314443   0.704   1.146  10.381  0.2609 -0.0551  0.4781
  134SAPE   O1414444   0.708   1.055  10.621  0.6199  0.3704  0.0273
  134SAPE   O1214445   0.536   1.216  10.543  0.6520  0.2792  0.3460
  134SAPE   O1114446   0.526   1.000  10.469  0.4413  0.1196  0.4996
  134SAPE    C114447   0.403   1.025  10.400  0.0736 -0.4645  0.0556
  134SAPE    HA14448   0.336   0.943  10.432  0.1848  0.1093  1.8833
  134SAPE    HB14449   0.348   1.117  10.431  0.0669  0.2051 -1.8611
  134SAPE    C214450   0.428   1.033  10.253 -0.2893 -0.5027  0.3122
  134SAPE    HS14451   0.489   1.122  10.228 -0.3480 -0.6498 -0.3898
  134SAPE   O2114452   0.301   1.036  10.187 -0.3907  0.7406  0.7404
  134SAPE   C2114453   0.249   1.157  10.185 -0.2428  0.1660 -0.2772
  134SAPE   O2214454   0.310   1.260  10.227 -0.1420  0.0309  0.4234
  134SAPE   C2214455   0.106   1.158  10.149 -0.1059  0.1486 -0.0294
  134SAPE   H2R14456   0.061   1.057  10.157 -0.6204  0.4261  0.6858
  134SAPE   H2S14457   0.052   1.234  10.209 -0.8520  0.1704 -0.7140
  134SAPE    C314458   0.516   0.916  10.202 -0.3452  0.8049  0.5757
  134SAPE    HX14459   0.494   0.815  10.243  1.8433 -1.1388 -2.5405
  134SAPE    HY14460   0.619   0.939  10.236 -0.2125 -0.2741  0.9612
  134SAPE   O3114461   0.519   0.900  10.055  0.1099 -0.4442 -0.3597
  134SAPE   C3114462   0.440   0.816   9.999  0.4094  0.7305 -0.0370
  134SAPE   O3214463   0.343   0.756  10.049 -0.5094  0.0970 -0.4509
  134SAPE   C3214464   0.465   0.830   9.847 -0.2648 -0.0249 -0.6813
  134SAPE   H2X14465   0.575   0.821   9.831  0.1171  0.9283  1.1059
  134SAPE   H2Y14466   0.433   0.932   9.820  0.7785  1.2473  2.4585
  134SAPE   C2314467   0.099   1.203   9.995 -0.4494 -0.8691 -0.7629
  134SAPE   H3R14468   0.154   1.299   9.990 -1.3815 -0.0584  2.4027
  134SAPE   H3S14469  -0.007   1.222   9.970 -0.6176 -1.8597 -0.8392
  134SAPE   C2414470   0.164   1.102   9.903  0.2588  0.2409  0.2355
  134SAPE   H4R14471   0.116   1.003   9.915  0.8939 -0.2507 -1.1517
  134SAPE   H4S14472   0.271   1.080   9.924  0.1675 -2.3724 -1.6428
  134SAPE   C2514473   0.141   1.132   9.754  0.0090  0.0926  0.5259
  134SAPE   H5R14474   0.044   1.096   9.718  0.4925 -1.0443  0.3003
  134SAPE   C2614475   0.227   1.195   9.677  0.5217  0.0196  0.1630
  134SAPE   H6R14476   0.188   1.222   9.578  1.1338 -0.0815 -0.1089
  134SAPE   C2714477   0.362   1.246   9.711 -0.2822  0.1017  0.5154
  134SAPE   H7R14478   0.414   1.250   9.613  1.2055  0.3832  1.2930
  134SAPE   H7S14479   0.416   1.172   9.775  2.0021  0.7057 -0.6134
  134SAPE   C2814480   0.362   1.376   9.782  0.2457  0.5494  0.1804
  134SAPE   H8R14481   0.312   1.369   9.880  0.2411  0.3630  0.1649
  134SAPE   C2914482   0.401   1.494   9.737 -0.5330  0.1325 -1.0180
  134SAPE   H9R14483   0.403   1.583   9.801  2.7360  0.3470 -1.2489
  134SAPE  C21014484   0.457   1.522   9.601 -0.8010  0.1729  0.3235
  134SAPE  H10R14485   0.486   1.435   9.539 -0.0830  2.0654 -2.1747
  134SAPE  H10S14486   0.553   1.576   9.613 -0.1483 -0.5233 -1.4178
  134SAPE  C21114487   0.366   1.614   9.522 -0.0228 -0.4510 -0.1119
  134SAPE  H11R14488   0.302   1.676   9.586  1.6038  0.7474  0.4259
  134SAPE  C21214489   0.351   1.633   9.384 -0.3566  0.5766  0.0782
  134SAPE  H12R14490   0.282   1.710   9.347 -2.3009 -0.9242  0.4498
  134SAPE  C21314491   0.435   1.549   9.286  0.2773 -0.3925 -0.3237
  134SAPE  H13R14492   0.524   1.513   9.342 -2.6307 -3.3984  2.8424
  134SAPE  H13S14493   0.469   1.606   9.197  0.5854 -3.1505 -2.0862
  134SAPE  C21414494   0.361   1.430   9.237 -0.3900  0.2989  0.1075
  134SAPE  H14R14495   0.311   1.360   9.307  1.4906 -3.1212 -1.7012
  134SAPE  C21514496   0.341   1.408   9.108  0.4451 -0.3072  0.4950
  134SAPE  H15R14497   0.269   1.327   9.088 -1.3150  0.6135  2.6732
  134SAPE  C21614498   0.377   1.486   8.989  0.0628 -0.0093  0.3823
  134SAPE  H16R14499   0.448   1.428   8.926 -0.3191 -2.4806  2.0815
  134SAPE  H16S14500   0.441   1.575   9.009  2.6061 -1.2420 -1.6753
  134SAPE  C21714501   0.258   1.530   8.903 -0.4590  0.1660  0.7538
  134SAPE  H17R14502   0.181   1.584   8.962 -1.3714 -1.0632  0.7191
  134SAPE  H17S14503   0.209   1.437   8.868  0.7815  0.2534 -1.3495
  134SAPE  C21814504   0.294   1.622   8.788 -0.3220  0.1769  0.2257
  134SAPE  H18R14505   0.370   1.696   8.819  0.0651  0.0481 -0.3825
  134SAPE  H18S14506   0.204   1.680   8.759  0.1778  0.8793  0.0694
  134SAPE  C21914507   0.367   1.559   8.677  0.7305  0.1683  1.0955
  134SAPE  H19R14508   0.304   1.477   8.635 -2.2791  2.5341  0.6816
  134SAPE  H19S14509   0.466   1.521   8.712  1.7238  0.8790 -0.7998
  134SAPE  C22014510   0.398   1.660   8.560 -0.0464  0.4469 -0.8900
  134SAPE  H20R14511   0.476   1.733   8.593 -1.0212  2.1984 -2.3248
  134SAPE  H20S14512   0.299   1.707   8.540 -1.6797 -1.2632  2.4227
  134SAPE  H20T14513   0.448   1.609   8.475  0.7697 -0.4406  0.1018
  134SAPE   C3314514   0.393   0.731   9.757 -0.3723 -0.4011  0.3175
  134SAPE   H3X14515   0.284   0.749   9.775 -0.2317  1.0402 -0.1568
  134SAPE   H3Y14516   0.420   0.626   9.783 -1.4122 -0.7846 -0.0787
  134SAPE   C3414517   0.426   0.744   9.606 -0.1863  0.2194  0.3090
  134SAPE   H4X14518   0.376   0.656   9.559 -0.5441  0.1106  0.8798
  134SAPE   H4Y14519   0.536   0.732   9.595 -0.1238  1.3237 -0.3702
  134SAPE   C3514520   0.369   0.878   9.557  0.2456  0.0481 -0.4421
  134SAPE   H5X14521   0.412   0.962   9.616  0.3289 -0.7711  0.6921
  134SAPE   H5Y14522   0.263   0.876   9.590  0.5613 -0.2336  0.6214
  134SAPE   C3614523   0.381   0.923   9.413 -0.7240  0.5336  0.8301
  134SAPE   H6X14524   0.376   0.822   9.367  0.1114  1.3842 -1.2506
  134SAPE   H6Y14525   0.486   0.950   9.390 -1.0522 -0.3880 -2.2457
  134SAPE   C3714526   0.282   1.015   9.354 -0.2208  0.8176  0.1916
  134SAPE   H7X14527   0.307   1.122   9.372 -0.5004  0.8627  0.3172
  134SAPE   H7Y14528   0.190   0.998   9.413 -0.5781  0.7528 -0.3725
  134SAPE   C3814529   0.263   0.984   9.207  0.1907  0.2804  0.4203
  134SAPE   H8X14530   0.263   0.876   9.180  1.5068  0.7811 -1.8598
  134SAPE   H8Y14531   0.334   1.036   9.139  1.0362 -1.0736  0.2284
  134SAPE   C3914532   0.116   1.013   9.166 -0.0820 -0.0113 -0.4551
  134SAPE   H9X14533   0.104   1.123   9.183 -0.5972  0.3184 -2.6376
  134SAPE   H9Y14534   0.042   0.953   9.222  0.7710 -0.2098  0.4754
  134SAPE  C31014535   0.089   0.995   9.012  0.0625  0.3599 -0.5498
  134SAPE  H10X14536  -0.018   0.966   9.012  0.5644 -1.7333  1.4214
  134SAPE  H10Y14537   0.157   0.918   8.971  0.4625  0.1013  0.5612
  134SAPE  C31114538   0.114   1.120   8.932 -0.3892 -0.1205 -0.2562
  134SAPE  H11X14539   0.217   1.158   8.953 -1.7440  3.9968 -0.2003
  134SAPE  H11Y14540   0.054   1.201   8.977 -0.6640  0.1763 -1.1286
  134SAPE  C31214541   0.068   1.102   8.784 -0.3914 -0.4437  0.5756
  134SAPE  H12X14542  -0.041   1.086   8.774 -0.3194 -0.2614 -0.6521
  134SAPE  H12Y14543   0.118   1.015   8.735  0.1328  1.0461 -1.6992
  134SAPE  C31314544   0.090   1.231   8.701 -0.4162  0.4403  0.3507
  134SAPE  H13X14545   0.191   1.269   8.728 -0.0615 -0.5754  0.5200
  134SAPE  H13Y14546   0.029   1.316   8.738 -0.5784  0.5672 -0.1911
  134SAPE  C31414547   0.089   1.206   8.544 -0.5533 -0.2695 -0.1027
  134SAPE  H14X14548   0.163   1.128   8.516  0.0565  0.4016 -0.4194
  134SAPE  H14Y14549   0.120   1.302   8.497 -0.5306  0.0148  0.4901
  134SAPE  C31514550  -0.050   1.170   8.495  0.5986  0.0163 -0.1086
  134SAPE  H15X14551  -0.125   1.252   8.502  0.0151 -0.4579 -0.7225
  134SAPE  H15Y14552  -0.087   1.089   8.562 -2.0886  2.3211  1.4846
  134SAPE  C31614553  -0.056   1.133   8.345  0.0580 -0.3434  0.9294
  134SAPE  H16X14554  -0.013   1.202   8.270  3.1675 -3.5848 -0.5631
  134SAPE  H16Y14555  -0.163   1.119   8.317  0.3091 -2.8351  0.9582
  134SAPE  C31714556  -0.002   0.996   8.312  0.7076  0.2113 -0.0408
  134SAPE  H17X14557  -0.071   0.915   8.343  0.0894  0.6575 -0.2089
  134SAPE  H17Y14558   0.092   0.981   8.368  1.5157 -0.7444 -1.5900
  134SAPE  C31814559   0.026   0.978   8.166  0.3395  0.2233  0.3515
  134SAPE  H18X14560   0.072   0.881   8.138  3.0628  1.9179 -1.5704
  134SAPE  H18Y14561   0.107   1.053   8.149 -0.0957  1.0654  1.8244
  134SAPE  H18Z14562  -0.063   0.995   8.101 -2.2963  0.7126  3.8178
  135SAPE     N14563   5.971   0.957  10.724 -0.4405 -0.8003  0.9438
  135SAPE   HN114564   6.074   0.968  10.728 -0.5868  1.4302 -0.0502
  135SAPE   HN214565   5.942   1.056  10.708 -1.3897 -1.0268  1.1701
  135SAPE   HN314566   5.937   0.929  10.819  2.2069  0.8900  2.5209
  135SAPE   C1214567   5.932   0.869  10.614  0.4896  0.3145  0.0660
  135SAPE  H12A14568   5.961   0.910  10.515  0.0462  0.4197 -0.0213
  135SAPE  H12B14569   5.821   0.863  10.621  0.5115  0.4673  0.5641
  135SAPE   C1114570   6.004   0.736  10.633  1.1438 -0.2885  0.3001
  135SAPE  H11A14571   6.115   0.748  10.637  1.0803 -0.0662  2.1845
  135SAPE  H11B14572   5.988   0.670  10.545  0.2740  0.4753 -0.1374
  135SAPE     P14573   5.849   0.575  10.774 -0.4886 -0.0387  0.0787
  135SAPE   O1314574   5.885   0.455  10.854 -0.6075 -0.1444  0.2824
  135SAPE   O1414575   5.734   0.649  10.836 -0.2494  0.0196 -0.0365
  135SAPE   O1214576   5.975   0.673  10.761 -0.1962  0.1970 -0.3948
  135SAPE   O1114577   5.809   0.537  10.625 -0.2554  0.0301  0.4080
  135SAPE    C114578   5.696   0.468  10.584  0.2196  0.5831 -0.8108
  135SAPE    HA14579   5.726   0.363  10.562  3.4902  0.9652  1.1052
  135SAPE    HB14580   5.623   0.467  10.667  1.1171 -0.4885  0.0066
  135SAPE    C214581   5.624   0.527  10.462  0.0847  0.7996  0.3105
  135SAPE    HS14582   5.527   0.483  10.433  0.1592  1.3255 -0.8149
  135SAPE   O2114583   5.715   0.525  10.350  0.1370 -0.7334  0.3538
  135SAPE   C2114584   5.738   0.406  10.296 -0.1848  0.6764  0.2454
  135SAPE   O2214585   5.682   0.307  10.335  0.1923  0.0203  0.1419
  135SAPE   C2214586   5.829   0.427  10.175  0.2178 -0.0368 -0.3808
  135SAPE   H2R14587   5.934   0.441  10.210  0.1626  2.8906 -1.0713
  135SAPE   H2S14588   5.815   0.326  10.132 -1.1152  0.1224 -0.3432
  135SAPE    C314589   5.582   0.665  10.506  0.0881 -0.0312  0.4178
  135SAPE    HX14590   5.678   0.716  10.527 -0.4601  0.5159  1.7446
  135SAPE    HY14591   5.527   0.659  10.603 -1.3665 -2.1441 -0.4563
  135SAPE   O3114592   5.508   0.742  10.403 -0.5496  0.0483 -0.1277
  135SAPE   C3114593   5.371   0.759  10.432 -0.2432  0.3998  0.4124
  135SAPE   O3214594   5.317   0.702  10.519 -0.2235 -0.1042  0.5520
  135SAPE   C3214595   5.311   0.845  10.327  0.4092  0.3793 -0.0011
  135SAPE   H2X14596   5.351   0.799  10.234 -0.6390 -0.8486  0.1199
  135SAPE   H2Y14597   5.349   0.949  10.334 -0.3658  0.5730  2.1336
  135SAPE   C2314598   5.771   0.529  10.077  0.1059  0.4518  0.2650
  135SAPE   H3R14599   5.792   0.634  10.104  1.1007  0.4643 -0.4793
  135SAPE   H3S14600   5.664   0.515  10.054  1.1630 -2.6573 -4.0313
  135SAPE   C2414601   5.839   0.510   9.936 -0.4871 -0.3773 -0.2713
  135SAPE   H4R14602   5.825   0.404   9.908 -1.7436  0.1273 -1.6814
  135SAPE   H4S14603   5.949   0.528   9.937 -0.5765  0.2213 -0.4930
  135SAPE   C2514604   5.773   0.607   9.840 -0.3649 -0.3955  0.5802
  135SAPE   H5R14605   5.761   0.704   9.891  2.3758  0.2266  0.2167
  135SAPE   C2614606   5.720   0.562   9.728  0.1175 -0.5022  0.2900
  135SAPE   H6R14607   5.654   0.625   9.667  1.6881  1.9026  0.9316
  135SAPE   C2714608   5.733   0.425   9.669  0.4094  0.0564  0.2215
  135SAPE   H7R14609   5.647   0.405   9.601  0.6585  3.4945 -1.2728
  135SAPE   H7S14610   5.730   0.338   9.739  0.5066 -0.2727 -0.1805
  135SAPE   C2814611   5.845   0.398   9.573  0.3835  0.1125 -0.4482
  135SAPE   H8R14612   5.901   0.306   9.594  0.1438  0.3421  1.3519
  135SAPE   C2914613   5.852   0.457   9.453  0.0426  0.9336 -0.2681
  135SAPE   H9R14614   5.937   0.425   9.391 -0.4337 -1.5899  0.2521
  135SAPE  C21014615   5.758   0.565   9.405  0.7093 -0.7481 -0.2288
  135SAPE  H10R14616   5.671   0.566   9.474  2.7584  2.2175  2.6315
  135SAPE  H10S14617   5.730   0.545   9.299  2.9812  2.7818 -1.6853
  135SAPE  C21114618   5.831   0.695   9.421 -0.6594  0.1712 -0.1555
  135SAPE  H11R14619   5.906   0.692   9.501 -2.9301 -1.3700  2.0865
  135SAPE  C21214620   5.805   0.809   9.362 -0.2118  0.5717 -0.0858
  135SAPE  H12R14621   5.873   0.891   9.389  0.5679 -0.3969  0.9541
  135SAPE  C21314622   5.692   0.844   9.268  0.0221  0.1491  0.8387
  135SAPE  H13R14623   5.658   0.749   9.220  3.1131 -0.3702 -0.5440
  135SAPE  H13S14624   5.739   0.897   9.183  0.4005 -1.6492 -0.1243
  135SAPE  C21414625   5.573   0.908   9.322  0.0460  0.5605  0.4257
  135SAPE  H14R14626   5.568   0.924   9.431 -1.3024  2.1986  0.1663
  135SAPE  C21514627   5.476   0.964   9.249 -0.6019  0.1092 -0.0187
  135SAPE  H15R14628   5.394   1.019   9.299  0.4192 -0.4650  2.4510
  135SAPE  C21614629   5.466   0.957   9.100 -0.0220 -0.7292 -0.2151
  135SAPE  H16R14630   5.356   0.947   9.085 -0.0880 -0.7992  0.2721
  135SAPE  H16S14631   5.513   0.871   9.049 -0.8497 -0.9368 -0.6516
  135SAPE  C21714632   5.522   1.087   9.032 -0.6076 -0.0913 -0.5017
  135SAPE  H17R14633   5.628   1.101   9.061 -1.2786  0.9135  1.6972
  135SAPE  H17S14634   5.475   1.171   9.088  1.5621  0.0418  1.2399
  135SAPE  C21814635   5.479   1.092   8.881  0.7946  0.1500 -0.1341
  135SAPE  H18R14636   5.475   1.198   8.850 -0.3539 -0.0492 -0.7126
  135SAPE  H18S14637   5.377   1.048   8.885  1.1119 -0.5058  1.8143
  135SAPE  C21914638   5.583   1.016   8.806  0.0424 -0.0859  0.2391
  135SAPE  H19R14639   5.580   0.914   8.851 -1.8019 -0.8075 -1.3957
  135SAPE  H19S14640   5.677   1.069   8.831 -0.0526  0.0744  0.2539
  135SAPE  C22014641   5.561   1.016   8.658 -0.2349 -0.1829  0.1145
  135SAPE  H20R14642   5.625   0.938   8.610  0.4944  1.3354 -1.4696
  135SAPE  H20S14643   5.611   1.107   8.620 -0.5254  0.4558  1.2323
  135SAPE  H20T14644   5.457   1.014   8.621 -0.1365 -0.7053 -0.1390
  135SAPE   C3314645   5.158   0.845  10.327  0.1349 -0.4504 -0.4467
  135SAPE   H3X14646   5.123   0.931  10.388  3.4685  1.0337 -0.3892
  135SAPE   H3Y14647   5.116   0.749  10.364 -1.6521  0.0381 -1.1401
  135SAPE   C3414648   5.097   0.874  10.186 -0.1042 -0.2995 -0.2424
  135SAPE   H4X14649   5.161   0.819  10.114  1.6088  1.7863 -0.4119
  135SAPE   H4Y14650   5.118   0.982  10.179  0.0019  0.0242  3.2264
  135SAPE   C3514651   4.951   0.843  10.169 -0.1639  0.0418 -0.0536
  135SAPE   H5X14652   4.888   0.891  10.247 -2.2282 -2.1273 -0.2937
  135SAPE   H5Y14653   4.934   0.736  10.191 -1.7279 -0.0195 -1.3586
  135SAPE   C3614654   4.887   0.874  10.034 -0.0504 -0.5625  0.1616
  135SAPE   H6X14655   4.908   0.982  10.019 -2.0442 -0.1706 -0.1030
  135SAPE   H6Y14656   4.776   0.870  10.033 -0.0790 -1.1941 -2.7464
  135SAPE   C3714657   4.957   0.794   9.921  0.2069  0.2158 -0.7191
  135SAPE   H7X14658   4.971   0.690   9.956  0.3579  0.2535 -0.6719
  135SAPE   H7Y14659   5.049   0.855   9.907 -1.1841  3.1901  1.8616
  135SAPE   C3814660   4.872   0.801   9.788 -0.1409  0.8776  0.0178
  135SAPE   H8X14661   4.857   0.910   9.770  0.3449  1.0078  0.3819
  135SAPE   H8Y14662   4.777   0.746   9.806 -0.4806  1.0828 -1.0802
  135SAPE   C3914663   4.937   0.732   9.669 -0.3243 -0.1559  0.1121
  135SAPE   H9X14664   4.981   0.639   9.712  0.0813 -0.1441 -0.2682
  135SAPE   H9Y14665   5.024   0.792   9.636 -0.7158  0.4907  0.2480
  135SAPE  C31014666   4.833   0.674   9.567  0.7535 -0.3616 -0.2287
  135SAPE  H10X14667   4.741   0.641   9.620  0.9866 -0.7152 -0.0464
  135SAPE  H10Y14668   4.878   0.583   9.523  1.7245 -0.3200  0.6352
  135SAPE  C31114669   4.785   0.755   9.441 -0.0163  0.3177 -0.2057
  135SAPE  H11X14670   4.766   0.859   9.474  4.3329  1.3575 -0.3662
  135SAPE  H11Y14671   4.693   0.703   9.407 -0.1168  1.4986 -1.8401
  135SAPE  C31214672   4.893   0.744   9.330  0.2169 -0.3071  0.2110
  135SAPE  H12X14673   4.898   0.635   9.310  3.4394  0.1260 -2.0678
  135SAPE  H12Y14674   4.994   0.781   9.355  0.4897 -1.1948  0.4361
  135SAPE  C31314675   4.858   0.822   9.203 -0.3363  0.5865  0.1846
  135SAPE  H13X14676   4.870   0.927   9.237  1.7446  0.1070  1.0562
  135SAPE  H13Y14677   4.749   0.808   9.184 -0.1954 -1.3491  0.5181
  135SAPE  C31414678   4.944   0.790   9.084  0.1200 -0.4704  0.1156
  135SAPE  H14X14679   4.923   0.687   9.049  0.4917  0.2268 -2.3799
  135SAPE  H14Y14680   5.051   0.793   9.114  0.8362  1.3924 -2.2475
  135SAPE  C31514681   4.921   0.892   8.966  0.5847  0.6044 -0.4928
  135SAPE  H15X14682   4.946   0.997   8.993 -2.3519  1.3470 -0.3067
  135SAPE  H15Y14683   4.812   0.881   8.948  0.5867 -3.9095  1.0918
  135SAPE  C31614684   5.000   0.868   8.838  0.1948 -0.0548 -0.5621
  135SAPE  H16X14685   4.993   0.763   8.803 -1.3059  0.1714 -0.9997
  135SAPE  H16Y14686   5.106   0.895   8.857 -0.1283  1.6772 -1.0733
  135SAPE  C31714687   4.951   0.958   8.724  0.1778 -0.3901  0.1201
  135SAPE  H17X14688   4.948   1.064   8.758 -0.5703 -0.1886 -0.5185
  135SAPE  H17Y14689   4.847   0.935   8.690 -0.2500  3.1031 -1.4604
  135SAPE  C31814690   5.049   0.960   8.599  0.2874 -0.3406  1.1339
  135SAPE  H18X14691   5.074   0.863   8.551 -0.6376  0.5961 -1.4052
  135SAPE  H18Y14692   5.140   1.015   8.631  0.9521 -0.7200 -0.0547
  135SAPE  H18Z14693   4.998   1.009   8.513  0.2574 -1.5330  0.4468
  136SAPE     N14694   1.634   4.983  10.923 -0.1356 -0.6894 -0.0826
  136SAPE   HN114695   1.573   4.900  10.941 -2.4038  0.3663 -2.3593
  136SAPE   HN214696   1.625   5.016  10.824  3.4688  1.3582  0.1034
  136SAPE   HN314697   1.735   4.959  10.913 -0.1134 -0.0061 -2.0007
  136SAPE   C1214698   1.594   5.096  11.013 -0.4417  0.4939 -0.2261
  136SAPE  H12A14699   1.669   5.088  11.095 -0.7038 -3.0590 -0.1634
  136SAPE  H12B14700   1.493   5.077  11.056  0.4815  1.3959  2.5389
  136SAPE   C1114701   1.599   5.228  10.946 -0.6342 -0.1127  0.1048
  136SAPE  H11A14702   1.577   5.308  11.020 -0.7351 -0.1781  0.1443
  136SAPE  H11B14703   1.516   5.228  10.872 -2.1498  2.9846  1.5791
  136SAPE     P14704   1.773   5.403  10.858 -0.0798 -0.0802 -0.1666
  136SAPE   O1314705   1.692   5.510  10.917  0.0970  0.2193 -0.0552
  136SAPE   O1414706   1.913   5.398  10.905  0.0289 -0.3776  0.1268
  136SAPE   O1214707   1.728   5.260  10.881  0.6179 -0.0607 -0.5279
  136SAPE   O1114708   1.768   5.428  10.697  0.0634  0.3687  0.0233
  136SAPE    C114709   1.697   5.330  10.622  1.1196  0.1544  0.0916
  136SAPE    HA14710   1.740   5.228  10.632 -0.3985 -0.5475 -0.1442
  136SAPE    HB14711   1.588   5.321  10.643  0.1677  1.6317 -3.3973
  136SAPE    C214712   1.687   5.370  10.471  0.8744  0.1225 -0.1590
  136SAPE    HS14713   1.618   5.303  10.415  1.4085  0.4187 -1.2018
  136SAPE   O2114714   1.820   5.370  10.415 -0.3447 -0.2629 -0.6346
  136SAPE   C2114715   1.863   5.250  10.377  0.7378  0.2132  0.4403
  136SAPE   O2214716   1.809   5.145  10.401 -0.4562  0.4240  0.5424
  136SAPE   C2214717   1.973   5.281  10.270 -0.2453 -0.0380 -0.1824
  136SAPE   H2R14718   1.981   5.392  10.264  0.2994 -0.0625  0.0719
  136SAPE   H2S14719   2.068   5.245  10.314 -1.2871  0.1574  2.3728
  136SAPE    C314720   1.630   5.519  10.472  0.3896  0.8260  0.2925
  136SAPE    HX14721   1.700   5.588  10.524  0.8597  0.2839  0.3828
  136SAPE    HY14722   1.544   5.519  10.542 -0.7928 -1.1316 -1.0559
  136SAPE   O3114723   1.588   5.567  10.337  0.6042 -0.4472 -0.2347
  136SAPE   C3114724   1.466   5.543  10.298 -0.2782  0.0915 -0.1745
  136SAPE   O3214725   1.374   5.498  10.365 -0.3175 -0.2224  0.1674
  136SAPE   C3214726   1.472   5.564  10.146 -0.0138 -0.6556 -0.6976
  136SAPE   H2X14727   1.540   5.482  10.112 -0.8439 -1.4699 -0.4352
  136SAPE   H2Y14728   1.519   5.659  10.114 -0.3113  0.2422  1.4053
  136SAPE   C2314729   1.952   5.216  10.134  0.1635 -0.1200  0.4509
  136SAPE   H3R14730   1.871   5.274  10.086  0.5583  0.4259  0.4238
  136SAPE   H3S14731   1.906   5.116  10.149 -0.4233  0.4651  3.1798
  136SAPE   C2414732   2.083   5.234  10.053  0.1007  0.0229 -0.2583
  136SAPE   H4R14733   2.123   5.338  10.059  2.2513 -0.8616  2.1790
  136SAPE   H4S14734   2.060   5.220   9.945 -2.2494  2.5815 -0.2094
  136SAPE   C2514735   2.186   5.130  10.101  0.0830 -0.8328  0.3264
  136SAPE   H5R14736   2.247   5.168  10.183  0.5271 -1.9582  0.5391
  136SAPE   C2614737   2.200   5.005  10.059 -0.1285 -0.3827 -0.3080
  136SAPE   H6R14738   2.286   4.947  10.095  0.5309  0.5816 -0.2755
  136SAPE   C2714739   2.116   4.939   9.952  1.0611  0.9171  0.5200
  136SAPE   H7R14740   2.183   4.880   9.885 -2.7997 -1.5833 -1.4676
  136SAPE   H7S14741   2.091   5.018   9.877  4.1818 -0.8326 -2.6988
  136SAPE   C2814742   1.995   4.855  10.012  0.1671 -0.1478  0.5330
  136SAPE   H8R14743   1.960   4.898  10.107 -1.7921  1.1246 -0.6804
  136SAPE   C2914744   1.922   4.761   9.946 -1.0385  0.9129  0.2087
  136SAPE   H9R14745   1.846   4.702   9.999  2.3431 -1.9138  2.3640
  136SAPE  C21014746   1.959   4.720   9.806  0.0251 -0.6755 -0.0780
  136SAPE  H10R14747   1.918   4.622   9.775 -1.1763  0.1142 -1.0782
  136SAPE  H10S14748   2.068   4.699   9.797 -0.1606 -1.6343 -0.2275
  136SAPE  C21114749   1.920   4.816   9.707 -0.3330  0.3132  0.8854
  136SAPE  H11R14750   1.935   4.923   9.726  2.1597  0.3287 -0.7083
  136SAPE  C21214751   1.885   4.783   9.578 -0.2341  0.4082 -0.1551
  136SAPE  H12R14752   1.840   4.860   9.513 -1.9680  0.7759  1.4028
  136SAPE  C21314753   1.867   4.647   9.509 -0.1932 -0.0869  0.1437
  136SAPE  H13R14754   1.860   4.561   9.578  0.2135 -0.8951 -0.7970
  136SAPE  H13S14755   1.947   4.621   9.436  0.0337  2.8838 -0.8060
  136SAPE  C21414756   1.735   4.642   9.438  0.7041  0.0503 -0.4353
  136SAPE  H14R14757   1.656   4.613   9.508  1.4831  2.6584  1.6675
  136SAPE  C21514758   1.711   4.666   9.308  0.2844 -0.1160  0.2954
  136SAPE  H15R14759   1.607   4.680   9.276 -0.1960  1.9461  2.4077
  136SAPE  C21614760   1.822   4.705   9.207 -0.0562  0.3229 -0.3182
  136SAPE  H16R14761   1.919   4.737   9.250 -0.0539  0.7680 -0.6404
  136SAPE  H16S14762   1.780   4.801   9.169 -0.8791  0.8794  1.8283
  136SAPE  C21714763   1.844   4.613   9.085 -0.2497  0.6976 -0.5290
  136SAPE  H17R14764   1.837   4.507   9.118 -1.1860 -0.7428 -4.7485
  136SAPE  H17S14765   1.950   4.611   9.050 -0.7298 -0.5759 -2.0239
  136SAPE  C21814766   1.760   4.638   8.967 -1.3732 -0.7260  0.4104
  136SAPE  H18R14767   1.784   4.734   8.919  0.5089 -1.4028 -0.0575
  136SAPE  H18S14768   1.650   4.640   8.987 -1.5487 -0.3282 -0.5425
  136SAPE  C21914769   1.767   4.534   8.850  0.1523  0.2013 -0.4574
  136SAPE  H19R14770   1.748   4.431   8.887  0.6140  0.3645  0.2649
  136SAPE  H19S14771   1.874   4.539   8.820  0.4702 -0.2169  0.5481
  136SAPE  C22014772   1.673   4.561   8.738 -0.2598 -0.0175 -0.1705
  136SAPE  H20R14773   1.706   4.656   8.690 -0.8945 -0.0635 -0.7092
  136SAPE  H20S14774   1.567   4.575   8.770  0.3038  0.7805  1.4329
  136SAPE  H20T14775   1.667   4.478   8.665  1.4142 -1.4726  1.2687
  136SAPE   C3314776   1.335   5.554  10.078 -0.1560 -0.1938 -0.3401
  136SAPE   H3X14777   1.266   5.631  10.116  0.5249  0.3295 -0.1489
  136SAPE   H3Y14778   1.287   5.459  10.108  0.6245 -0.2360  0.8328
  136SAPE   C3414779   1.349   5.569   9.926 -0.7986 -0.1965  0.3535
  136SAPE   H4X14780   1.402   5.481   9.885  0.1725  1.2187 -1.6061
  136SAPE   H4Y14781   1.419   5.654   9.910  1.4703 -2.1953 -0.9972
  136SAPE   C3514782   1.209   5.589   9.865  0.5531  0.8538 -0.6222
  136SAPE   H5X14783   1.167   5.687   9.894 -1.4895 -0.0721 -0.3172
  136SAPE   H5Y14784   1.136   5.509   9.889  0.8017  1.2697  1.7282
  136SAPE   C3614785   1.216   5.591   9.713 -0.2678 -0.4560  0.0207
  136SAPE   H6X14786   1.301   5.530   9.675  1.0410  0.8989  0.6698
  136SAPE   H6Y14787   1.238   5.697   9.685  2.6078 -0.6658  1.0987
  136SAPE   C3714788   1.084   5.544   9.654  0.5819 -0.1385  0.9881
  136SAPE   H7X14789   0.991   5.598   9.683 -0.0842 -0.3869 -0.5498
  136SAPE   H7Y14790   1.074   5.435   9.674 -1.6029 -0.0778  0.5357
  136SAPE   C3814791   1.080   5.552   9.496  0.3252  0.4131  0.7827
  136SAPE   H8X14792   1.088   5.658   9.462  0.7646  0.1063 -0.1173
  136SAPE   H8Y14793   0.977   5.513   9.482  1.1713 -1.4437 -0.7067
  136SAPE   C3914794   1.183   5.466   9.415  0.4330 -0.6794  1.0047
  136SAPE   H9X14795   1.283   5.512   9.430  0.1002  0.1366  0.7841
  136SAPE   H9Y14796   1.167   5.492   9.308 -0.2004  2.7909  1.8273
  136SAPE  C31014797   1.182   5.313   9.430  0.5825 -0.5386  0.1057
  136SAPE  H10X14798   1.078   5.276   9.418 -0.8159  1.0866  4.8002
  136SAPE  H10Y14799   1.209   5.283   9.534 -3.2835 -0.0418  1.4272
  136SAPE  C31114800   1.282   5.251   9.323 -0.9670  0.1773  0.5076
  136SAPE  H11X14801   1.311   5.147   9.347  0.9163  0.8293  1.2286
  136SAPE  H11Y14802   1.377   5.309   9.333 -0.5695 -0.6832  1.9069
  136SAPE  C31214803   1.224   5.248   9.181 -0.6092  0.1880  0.3369
  136SAPE  H12X14804   1.201   5.346   9.134 -1.2902 -0.8801 -1.7054
  136SAPE  H12Y14805   1.128   5.198   9.205 -0.8253  1.3636  2.0362
  136SAPE  C31314806   1.301   5.159   9.078  0.3274 -0.0726 -0.6845
  136SAPE  H13X14807   1.338   5.068   9.131  2.5263  0.4810 -1.1694
  136SAPE  H13Y14808   1.387   5.223   9.052  2.2239 -2.3024 -0.2131
  136SAPE  C31414809   1.223   5.118   8.952  0.3705 -0.3007 -0.1686
  136SAPE  H14X14810   1.217   5.200   8.877 -3.6364 -1.9799 -2.0094
  136SAPE  H14Y14811   1.117   5.101   8.979  0.9975 -1.5507  1.6939
  136SAPE  C31514812   1.269   4.992   8.872 -0.6235 -0.1708 -0.0568
  136SAPE  H15X14813   1.192   4.996   8.792 -1.0393  1.9731  0.3837
  136SAPE  H15Y14814   1.276   4.907   8.943 -0.2354  0.5884  0.8280
  136SAPE  C31614815   1.409   5.010   8.811 -0.4005 -0.1357  0.2460
  136SAPE  H16X14816   1.480   5.018   8.896 -1.1684 -1.3047  1.0194
  136SAPE  H16Y14817   1.405   5.099   8.745  0.0068 -0.0172  0.3798
  136SAPE  C31714818   1.445   4.890   8.719  0.0938  0.4008  0.6728
  136SAPE  H17X14819   1.369   4.857   8.644  1.7043 -1.4579 -0.2387
  136SAPE  H17Y14820   1.454   4.800   8.784  2.6696  0.2408  0.1885
  136SAPE  C31814821   1.590   4.907   8.664  0.5293 -0.3033  0.0276
  136SAPE  H18X14822   1.612   4.823   8.596 -0.2861 -1.1467  0.7730
  136SAPE  H18Y14823   1.661   4.911   8.750  1.1053 -0.2887 -0.4437
  136SAPE  H18Z14824   1.594   5.008   8.618  0.3652  0.0341  0.7303
  137SAPE     N14825   0.700   2.731  11.162 -0.0026 -0.2262 -0.2680
  137SAPE   HN114826   0.756   2.643  11.165 -1.6117 -1.2921 -0.2777
  137SAPE   HN214827   0.745   2.803  11.101  0.8442 -0.9122 -0.4847
  137SAPE   HN314828   0.699   2.770  11.258  4.1521  0.2972 -0.2603
  137SAPE   C1214829   0.562   2.701  11.118 -0.2246  0.1079  0.1095
  137SAPE  H12A14830   0.492   2.783  11.144 -1.5386 -1.1289  0.6128
  137SAPE  H12B14831   0.528   2.611  11.173 -0.3607  1.0031  1.5185
  137SAPE   C1114832   0.548   2.669  10.965 -0.2983  0.1667  0.5403
  137SAPE  H11A14833   0.447   2.633  10.937  0.1369  0.2078 -1.1344
  137SAPE  H11B14834   0.623   2.590  10.946 -0.0537  0.7360 -0.9192
  137SAPE     P14835   0.491   2.839  10.775 -0.0462 -0.1359 -0.2647
  137SAPE   O1314836   0.362   2.839  10.842 -0.3656  0.1818 -0.2948
  137SAPE   O1414837   0.537   2.967  10.725  0.4074 -0.2445  0.3266
  137SAPE   O1214838   0.595   2.784  10.881 -0.2471  0.2087  0.3752
  137SAPE   O1114839   0.510   2.733  10.652 -0.3654 -0.5915 -0.0471
  137SAPE    C114840   0.648   2.705  10.613  0.0776  0.1765  0.3790
  137SAPE    HA14841   0.704   2.801  10.605 -1.9514  1.3164 -1.1835
  137SAPE    HB14842   0.702   2.647  10.691 -0.9637 -0.2363  0.8155
  137SAPE    C214843   0.658   2.650  10.468 -0.3388  0.5612 -0.3225
  137SAPE    HS14844   0.760   2.662  10.425 -0.0858 -1.7832 -0.5119
  137SAPE   O2114845   0.561   2.725  10.389  0.3755 -0.0927  0.1384
  137SAPE   C2114846   0.591   2.842  10.359 -1.1386 -0.0811  0.2023
  137SAPE   O2214847   0.700   2.898  10.381 -0.5335 -0.5338  0.2349
  137SAPE   C2214848   0.472   2.912  10.287 -0.0730  0.2334 -0.4967
  137SAPE   H2R14849   0.393   2.836  10.270 -1.0508  1.1647 -0.2256
  137SAPE   H2S14850   0.448   2.997  10.354 -1.8010 -1.5520  1.3026
  137SAPE    C314851   0.622   2.498  10.472 -0.6806  1.1461  0.1556
  137SAPE    HX14852   0.520   2.482  10.513 -0.6901 -1.9596 -0.8559
  137SAPE    HY14853   0.703   2.451  10.531 -1.2871 -0.0441  0.0767
  137SAPE   O3114854   0.632   2.434  10.337  0.1385  0.8991  0.2479
  137SAPE   C3114855   0.524   2.437  10.258 -0.5616 -0.2560 -0.5710
  137SAPE   O3214856   0.419   2.492  10.283  0.0982  0.2089  0.0124
  137SAPE   C3214857   0.550   2.355  10.136  0.3558 -0.1130  0.5368
  137SAPE   H2X14858   0.453   2.314  10.101  1.5437 -1.3402 -1.5092
  137SAPE   H2Y14859   0.613   2.265  10.155  2.5689  1.2339 -0.0874
  137SAPE   C2314860   0.509   2.983  10.141  0.4467 -0.5923 -0.4336
  137SAPE   H3R14861   0.605   2.941  10.106 -0.2377 -0.4776 -2.6388
  137SAPE   H3S14862   0.533   3.089  10.164  1.6665 -1.0272  0.3616
  137SAPE   C2414863   0.408   2.966  10.030 -0.4953  0.1839 -0.7038
  137SAPE   H4R14864   0.395   2.856  10.024  1.9547 -0.1600 -0.7183
  137SAPE   H4S14865   0.451   2.995   9.932 -1.8885  2.3752 -0.7487
  137SAPE   C2514866   0.281   3.044  10.052 -1.3749 -0.0106 -0.6562
  137SAPE   H5R14867   0.250   3.075  10.153 -0.1953 -0.2946 -0.1956
  137SAPE   C2614868   0.200   3.093   9.960  0.2836 -0.1081 -0.3676
  137SAPE   H6R14869   0.125   3.163  10.000 -0.4085 -0.0814 -1.6701
  137SAPE   C2714870   0.203   3.078   9.807 -1.0725  0.4068 -0.3438
  137SAPE   H7R14871   0.302   3.040   9.775 -0.3832  1.0822  0.8850
  137SAPE   H7S14872   0.195   3.173   9.749  1.5536 -0.3526 -2.0992
  137SAPE   C2814873   0.099   2.985   9.754  0.3889  0.0117 -0.3490
  137SAPE   H8R14874   0.122   2.879   9.773 -0.0909 -0.1966 -0.8787
  137SAPE   C2914875  -0.008   3.017   9.677  0.2687  0.5941 -0.0586
  137SAPE   H9R14876  -0.065   2.932   9.637  0.8282 -0.4546  1.2876
  137SAPE  C21014877  -0.054   3.157   9.628 -0.8822 -0.0793 -0.1592
  137SAPE  H10R14878   0.041   3.213   9.616  1.7311 -3.6773  2.1834
  137SAPE  H10S14879  -0.115   3.205   9.708  0.1469  1.4909 -0.2855
  137SAPE  C21114880  -0.138   3.156   9.503 -0.1240 -0.4892  0.0338
  137SAPE  H11R14881  -0.243   3.183   9.520 -0.2392  0.7317 -2.2355
  137SAPE  C21214882  -0.087   3.135   9.380 -0.3545  0.3092  0.0410
  137SAPE  H12R14883  -0.164   3.127   9.302 -1.0330 -0.5728  0.7826
  137SAPE  C21314884   0.060   3.104   9.355  0.2939  0.3911  1.2362
  137SAPE  H13R14885   0.114   3.055   9.438 -1.3949 -1.2402  1.4405
  137SAPE  H13S14886   0.119   3.195   9.330  0.6228 -0.0262  0.4416
  137SAPE  C21414887   0.078   3.013   9.237 -0.7340 -0.8052 -0.1413
  137SAPE  H14R14888   0.116   3.067   9.149 -1.0943 -0.2659  0.0307
  137SAPE  C21514889   0.060   2.878   9.238 -0.6782  0.7548  0.4659
  137SAPE  H15R14890   0.074   2.822   9.145 -1.6782  1.5665 -0.1918
  137SAPE  C21614891   0.006   2.794   9.355 -0.1369  0.1288  0.1464
  137SAPE  H16R14892  -0.100   2.762   9.343  0.5172 -1.7373 -1.1061
  137SAPE  H16S14893   0.008   2.851   9.450  0.5760 -1.1383  0.9021
  137SAPE  C21714894   0.091   2.668   9.371  1.1514 -0.0261 -0.8382
  137SAPE  H17R14895   0.084   2.596   9.287  2.1848 -1.9824  0.6901
  137SAPE  H17S14896   0.048   2.615   9.459 -0.1191  0.0282 -1.4011
  137SAPE  C21814897   0.241   2.701   9.401  0.2475 -0.1858  0.2166
  137SAPE  H18R14898   0.247   2.790   9.467  0.2166 -1.2676  1.7110
  137SAPE  H18S14899   0.290   2.732   9.305  0.4389 -0.6942  0.1493
  137SAPE  C21914900   0.312   2.588   9.479  0.5061 -0.7042  0.1733
  137SAPE  H19R14901   0.423   2.588   9.480  0.5237 -1.1091  1.9573
  137SAPE  H19S14902   0.275   2.496   9.428 -2.1821  1.6156 -2.4348
  137SAPE  C22014903   0.278   2.573   9.635  0.2442  0.0430 -0.0394
  137SAPE  H20R14904   0.356   2.544   9.708  0.7856 -1.1107 -1.0241
  137SAPE  H20S14905   0.197   2.497   9.650 -0.0447  0.4735  0.6132
  137SAPE  H20T14906   0.239   2.670   9.672 -0.0461  0.3877 -1.1978
  137SAPE   C3314907   0.622   2.422  10.018  0.2411 -0.7268  0.6592
  137SAPE   H3X14908   0.723   2.433  10.061  0.2908 -0.4481  0.4759
  137SAPE   H3Y14909   0.573   2.519   9.993 -0.0852 -1.3140 -1.1708
  137SAPE   C3414910   0.631   2.325   9.903  0.6815 -0.3948 -0.3834
  137SAPE   H4X14911   0.530   2.306   9.862  0.7510 -0.0335 -0.7202
  137SAPE   H4Y14912   0.680   2.229   9.931  0.7946 -0.0856  0.5302
  137SAPE   C3514913   0.710   2.395   9.794 -0.5343 -0.1402  0.8926
  137SAPE   H5X14914   0.815   2.412   9.828 -0.3265 -0.2070  0.2993
  137SAPE   H5Y14915   0.674   2.495   9.765 -0.6017 -0.6379 -0.8794
  137SAPE   C3614916   0.714   2.299   9.676  0.5081 -0.5336  0.0857
  137SAPE   H6X14917   0.623   2.304   9.612  0.6028  0.7997  0.0291
  137SAPE   H6Y14918   0.732   2.198   9.720 -0.9022 -0.9432 -0.2278
  137SAPE   C3714919   0.823   2.330   9.569 -0.6469  0.4277  0.0866
  137SAPE   H7X14920   0.924   2.317   9.615  0.0478  1.9780 -0.8892
  137SAPE   H7Y14921   0.821   2.438   9.541 -1.4762  0.4711  0.2944
  137SAPE   C3814922   0.805   2.242   9.450 -0.7130  0.1727 -0.0970
  137SAPE   H8X14923   0.705   2.256   9.405 -0.5366 -1.8713 -1.2594
  137SAPE   H8Y14924   0.803   2.134   9.478 -1.8840  0.8534  2.8485
  137SAPE   C3914925   0.908   2.263   9.335  0.7975 -0.3427 -0.1010
  137SAPE   H9X14926   0.999   2.203   9.358  0.7792 -0.2489  0.2166
  137SAPE   H9Y14927   0.944   2.368   9.331  1.5801 -0.5976  0.0696
  137SAPE  C31014928   0.850   2.226   9.197 -0.0863  0.6986 -0.0034
  137SAPE  H10X14929   0.765   2.292   9.170 -1.7157 -1.1115  0.4808
  137SAPE  H10Y14930   0.799   2.127   9.197 -0.8806  1.0837  1.6999
  137SAPE  C31114931   0.960   2.227   9.084 -0.1968  0.1057  0.3883
  137SAPE  H11X14932   1.034   2.147   9.105  1.0916  1.1964  0.1720
  137SAPE  H11Y14933   1.004   2.330   9.085  0.6240 -0.1892 -1.3939
  137SAPE  C31214934   0.914   2.201   8.938  0.5025 -0.5808  0.6498
  137SAPE  H12X14935   0.873   2.098   8.933  0.0429 -0.4569  1.5448
  137SAPE  H12Y14936   1.009   2.206   8.882  0.1738 -1.3158  0.0144
  137SAPE  C31314937   0.814   2.311   8.896  0.3076 -0.3683  0.1637
  137SAPE  H13X14938   0.867   2.408   8.909  0.5429 -0.5923  0.9134
  137SAPE  H13Y14939   0.724   2.313   8.961 -0.7230 -0.4209 -1.2186
  137SAPE  C31414940   0.758   2.304   8.747 -0.3433 -0.3091 -0.3348
  137SAPE  H14X14941   0.847   2.303   8.681 -0.3241  0.1246 -0.3177
  137SAPE  H14Y14942   0.702   2.397   8.722  0.0764  0.6614  1.9853
  137SAPE  C31514943   0.677   2.178   8.723  0.7890  0.2091 -0.4676
  137SAPE  H15X14944   0.621   2.143   8.811 -1.2346  0.9188 -1.4128
  137SAPE  H15Y14945   0.744   2.104   8.674  2.3225  0.7103  0.7816
  137SAPE  C31614946   0.551   2.219   8.638 -0.0224 -0.0126 -0.5991
  137SAPE  H16X14947   0.584   2.276   8.548 -0.5221  0.1489 -0.6823
  137SAPE  H16Y14948   0.488   2.286   8.700  3.4162  2.1514  0.8626
  137SAPE  C31714949   0.467   2.108   8.580  0.7049 -0.1723  1.0340
  137SAPE  H17X14950   0.521   2.033   8.518  0.0013  1.1793 -1.3630
  137SAPE  H17Y14951   0.389   2.150   8.513  2.6602  2.5812  0.2955
  137SAPE  C31814952   0.384   2.036   8.691  0.2809 -0.9484 -0.4702
  137SAPE  H18X14953   0.440   1.959   8.748 -1.6944 -1.2127  1.2563
  137SAPE  H18Y14954   0.290   1.989   8.655 -1.3500  0.6162  1.4851
  137SAPE  H18Z14955   0.355   2.115   8.763  1.6036 -0.7876 -0.0853
  138SAPE     N14956   5.004   4.527  10.684 -0.0938 -0.8495  0.1946
  138SAPE   HN114957   4.958   4.469  10.612  0.5647  1.8503 -2.5915
  138SAPE   HN214958   4.955   4.617  10.672  0.9256 -0.0972  1.3383
  138SAPE   HN314959   5.100   4.537  10.645 -0.7729  2.3016 -0.9229
  138SAPE   C1214960   4.995   4.453  10.808 -0.4156  0.2861 -0.2006
  138SAPE  H12A14961   5.043   4.523  10.880 -1.0608  0.6674 -0.1350
  138SAPE  H12B14962   5.058   4.361  10.811  2.9874  2.4042 -1.3755
  138SAPE   C1114963   4.843   4.425  10.850 -0.6587  0.4412  0.2932
  138SAPE  H11A14964   4.778   4.515  10.845 -1.3699 -0.1295 -1.0788
  138SAPE  H11B14965   4.846   4.389  10.956  2.3376  1.6112  0.7119
  138SAPE     P14966   4.630   4.307  10.766  0.0111 -0.2704 -0.1412
  138SAPE   O1314967   4.612   4.202  10.663 -0.5401  0.6607 -0.9417
  138SAPE   O1414968   4.572   4.293  10.899  0.3268 -0.4350 -0.2563
  138SAPE   O1214969   4.787   4.320  10.766 -0.7029  0.3663 -0.1002
  138SAPE   O1114970   4.578   4.445  10.709 -0.3449 -0.2518 -0.2870
  138SAPE    C114971   4.635   4.505  10.592 -0.6110  0.1933 -0.3456
  138SAPE    HA14972   4.692   4.594  10.626 -0.9106  0.0838  0.4534
  138SAPE    HB14973   4.705   4.441  10.533 -2.5033 -0.0754 -2.4490
  138SAPE    C214974   4.530   4.555  10.491 -0.0041 -0.2551  0.6303
  138SAPE    HS14975   4.452   4.614  10.543  1.6589 -0.5687  3.7298
  138SAPE   O2114976   4.478   4.441  10.427  0.4356  0.1672 -0.0054
  138SAPE   C2114977   4.372   4.387  10.476 -0.1820  0.9087  0.0136
  138SAPE   O2214978   4.301   4.429  10.564  0.0236 -0.0706 -1.0278
  138SAPE   C2214979   4.344   4.258  10.398  0.5454  0.3261 -0.0498
  138SAPE   H2R14980   4.394   4.177  10.454 -0.6516 -0.4590 -0.0861
  138SAPE   H2S14981   4.237   4.231  10.409  0.6548  0.4800  1.7304
  138SAPE    C314982   4.590   4.644  10.384 -0.3013 -0.5849 -0.7123
  138SAPE    HX14983   4.626   4.736  10.436 -0.2686 -0.3236 -1.1883
  138SAPE    HY14984   4.505   4.675  10.321  0.8372  1.8354 -1.1652
  138SAPE   O3114985   4.693   4.569  10.322  0.6413  0.0383  0.0350
  138SAPE   C3114986   4.669   4.529  10.193  0.0628 -0.2183  0.4021
  138SAPE   O3214987   4.578   4.559  10.123  0.3582 -0.1693 -0.4187
  138SAPE   C3214988   4.764   4.413  10.160 -0.4680  0.5201 -0.4929
  138SAPE   H2X14989   4.723   4.321  10.208  0.5652  0.6071  0.5995
  138SAPE   H2Y14990   4.861   4.423  10.214 -0.7276 -2.4168  0.7134
  138SAPE   C2314991   4.381   4.258  10.251 -0.2645 -0.0631  0.7155
  138SAPE   H3R14992   4.370   4.151  10.221  1.1653  0.3318 -1.3686
  138SAPE   H3S14993   4.488   4.283  10.235 -0.4747  2.1131  2.2936
  138SAPE   C2414994   4.293   4.350  10.162 -0.1675 -1.2946  0.1351
  138SAPE   H4R14995   4.335   4.334  10.060  0.8182  0.6226  0.1902
  138SAPE   H4S14996   4.311   4.458  10.177 -1.5703 -1.3000  2.2549
  138SAPE   C2514997   4.148   4.317  10.166  0.2802 -0.7549 -0.1803
  138SAPE   H5R14998   4.105   4.341  10.264  2.0386  1.8122  0.0634
  138SAPE   C2614999   4.086   4.254  10.067  0.3400  0.2813  0.3853
  138SAPE   H6R15000   3.984   4.222  10.089  0.3078  0.9911  1.3211
  138SAPE   C2715001   4.150   4.215   9.933 -0.2531 -0.3562  0.0045
  138SAPE   H7R15002   4.078   4.153   9.875 -0.4482  0.6579 -0.8715
  138SAPE   H7S15003   4.239   4.152   9.955  0.6774 -0.2039 -2.9160
  138SAPE   C2815004   4.201   4.332   9.848 -0.3062 -0.1768  0.3122
  138SAPE   H8R15005   4.245   4.415   9.906 -0.4533  0.6246 -0.6834
  138SAPE   C2915006   4.188   4.347   9.713  0.6913  0.1485 -0.6841
  138SAPE   H9R15007   4.214   4.439   9.658  2.0830  1.1405  1.5088
  138SAPE  C21015008   4.126   4.244   9.618 -0.3440  0.0195 -0.1951
  138SAPE  H10R15009   4.048   4.299   9.560  1.2848  2.3334 -0.3605
  138SAPE  H10S15010   4.063   4.165   9.662 -1.0316 -0.8353 -2.5574
  138SAPE  C21115011   4.236   4.185   9.529  0.9426 -0.7328  0.5378
  138SAPE  H11R15012   4.294   4.100   9.568  1.4710 -0.6359 -0.0249
  138SAPE  C21215013   4.250   4.218   9.394 -0.6364  0.3887 -1.1384
  138SAPE  H12R15014   4.340   4.186   9.339 -0.5428  1.5072 -1.6781
  138SAPE  C21315015   4.161   4.307   9.314 -0.3551  0.2998  0.1857
  138SAPE  H13R15016   4.095   4.366   9.381  0.3031  0.5253  0.6353
  138SAPE  H13S15017   4.093   4.241   9.255 -0.8695  1.0234 -0.0564
  138SAPE  C21415018   4.233   4.404   9.223 -0.6682 -0.5655 -0.3824
  138SAPE  H14R15019   4.274   4.494   9.271  1.9842 -2.5141  1.2555
  138SAPE  C21515020   4.268   4.379   9.095  0.3012 -0.3810 -0.8274
  138SAPE  H15R15021   4.316   4.461   9.040  1.3668  0.5734  1.3982
  138SAPE  C21615022   4.237   4.253   9.017 -0.4056  0.0100 -0.1750
  138SAPE  H16R15023   4.239   4.271   8.907  0.7253  0.8415 -0.0379
  138SAPE  H16S15024   4.139   4.213   9.049 -0.0778 -1.3071 -0.7576
  138SAPE  C21715025   4.341   4.137   9.045  0.3935  0.4544 -0.2638
  138SAPE  H17R15026   4.303   4.043   9.000  0.6563  0.2949 -0.1557
  138SAPE  H17S15027   4.342   4.110   9.153  1.0053  0.5940 -0.2348
  138SAPE  C21815028   4.480   4.173   8.998  0.2260  0.5563  0.6216
  138SAPE  H18R15029   4.517   4.252   9.066  0.6066  0.6800  0.2758
  138SAPE  H18S15030   4.475   4.210   8.893 -2.1673  0.3718  0.6059
  138SAPE  C21915031   4.582   4.055   9.002  0.1219 -0.4654 -0.6128
  138SAPE  H19R15032   4.532   3.986   8.931 -3.0115  0.4619  0.5465
  138SAPE  H19S15033   4.580   4.004   9.101 -0.4262 -0.0964 -0.4305
  138SAPE  C22015034   4.731   4.093   8.966  0.0029  0.2328 -0.9242
  138SAPE  H20R15035   4.792   4.001   8.953  1.9783  1.4317 -0.6718
  138SAPE  H20S15036   4.790   4.150   9.041 -0.5952 -0.0478 -0.2389
  138SAPE  H20T15037   4.733   4.166   8.882 -2.7970  1.3087 -0.1553
  138SAPE   C3315038   4.791   4.405  10.010  0.2487  0.3830 -0.7281
  138SAPE   H3X15039   4.834   4.503   9.977 -0.5562  1.2704  0.7406
  138SAPE   H3Y15040   4.694   4.397   9.957 -0.1843  1.2440 -0.0904
  138SAPE   C3415041   4.876   4.286   9.971 -0.1221 -0.9485 -0.3388
  138SAPE   H4X15042   4.863   4.199  10.039  0.0481 -0.7152 -0.0010
  138SAPE   H4Y15043   4.984   4.308   9.988 -0.3337 -1.9425  3.1781
  138SAPE   C3515044   4.837   4.230   9.835  0.5325 -0.1798  0.4019
  138SAPE   H5X15045   4.859   4.308   9.760 -0.0070 -1.1412 -0.7840
  138SAPE   H5Y15046   4.728   4.211   9.830  0.6398 -2.2588  3.1193
  138SAPE   C3615047   4.921   4.104   9.796 -0.4390 -0.6077 -0.5084
  138SAPE   H6X15048   4.938   4.055   9.894  0.9205  3.5074  1.5149
  138SAPE   H6Y15049   5.017   4.142   9.755 -1.1621  1.1941 -0.5955
  138SAPE   C3715050   4.837   4.011   9.699  0.2608 -0.7191  0.7509
  138SAPE   H7X15051   4.842   4.064   9.601  0.7100  0.8976  1.6172
  138SAPE   H7Y15052   4.731   3.997   9.726  0.1375  0.8479  1.1926
  138SAPE   C3815053   4.915   3.878   9.681 -0.5148 -0.2444 -0.1384
  138SAPE   H8X15054   4.921   3.837   9.784  1.5127  1.6597  0.5705
  138SAPE   H8Y15055   5.013   3.900   9.633 -1.9605 -0.7548 -3.6542
  138SAPE   C3915056   4.852   3.782   9.578 -0.7695  0.3332  0.2674
  138SAPE   H9X15057   4.743   3.771   9.599 -0.7018 -0.2946  0.3145
  138SAPE   H9Y15058   4.906   3.686   9.573  0.2535  0.9071  0.0785
  138SAPE  C31015059   4.863   3.838   9.434 -0.4886  1.0626  0.2214
  138SAPE  H10X15060   4.965   3.875   9.412 -0.1869  0.4603  0.5781
  138SAPE  H10Y15061   4.801   3.930   9.434  0.6278  1.8273  0.7252
  138SAPE  C31115062   4.827   3.740   9.318 -0.0434  0.2596  0.5577
  138SAPE  H11X15063   4.716   3.733   9.306  0.0658  0.0115 -0.3612
  138SAPE  H11Y15064   4.874   3.644   9.348  1.0764  0.6656  0.1534
  138SAPE  C31215065   4.892   3.790   9.183 -0.0430 -0.0888 -0.2898
  138SAPE  H12X15066   5.001   3.812   9.189 -0.1828  0.4354  0.5537
  138SAPE  H12Y15067   4.845   3.888   9.161  1.3139  0.9273  1.0589
  138SAPE  C31315068   4.869   3.685   9.070 -0.3004  0.8629  0.0459
  138SAPE  H13X15069   4.944   3.607   9.092 -1.2729  0.4416  2.1384
  138SAPE  H13Y15070   4.894   3.732   8.973 -4.0424  0.4178 -1.3076
  138SAPE  C31415071   4.730   3.627   9.069  0.3866  0.0583  0.7805
  138SAPE  H14X15072   4.645   3.699   9.066  0.3837  0.0229 -0.2379
  138SAPE  H14Y15073   4.708   3.567   9.160 -2.1668  0.5904  0.5848
  138SAPE  C31515074   4.696   3.527   8.948 -0.0942  0.2802  0.0872
  138SAPE  H15X15075   4.614   3.457   8.975  1.1210 -0.6738  1.4346
  138SAPE  H15Y15076   4.786   3.471   8.916  1.1464  2.4377 -0.3989
  138SAPE  C31615077   4.647   3.594   8.812 -0.4877  0.4920 -0.1075
  138SAPE  H16X15078   4.536   3.596   8.806 -0.4519  1.0010 -0.7695
  138SAPE  H16Y15079   4.661   3.515   8.734  0.1871  0.4120  0.0893
  138SAPE  C31715080   4.717   3.720   8.767  0.1621 -0.1383  0.3413
  138SAPE  H17X15081   4.821   3.682   8.758  0.5716  0.5683  1.8382
  138SAPE  H17Y15082   4.717   3.806   8.837  2.1633  1.1729 -1.1733
  138SAPE  C31815083   4.679   3.773   8.630  0.2000  0.2401  0.5018
  138SAPE  H18X15084   4.665   3.683   8.567 -2.0963 -0.6549  2.1451
  138SAPE  H18Y15085   4.768   3.823   8.587  1.9244 -3.2616 -0.3135
  138SAPE  H18Z15086   4.591   3.841   8.636  0.9705  1.3184  0.0496
  139SAPE     N15087   6.053   1.638  10.523 -0.1251  0.4470  0.1676
  139SAPE   HN115088   6.045   1.651  10.420  1.1348 -0.0675 -0.0138
  139SAPE   HN215089   5.966   1.659  10.576  0.5461  0.0354  1.4938
  139SAPE   HN315090   6.117   1.714  10.552  1.4307 -0.6712 -0.1707
  139SAPE   C1215091   6.094   1.503  10.577  0.1210 -0.7139 -0.4405
  139SAPE  H12A15092   6.072   1.500  10.686  0.2159 -2.4335 -0.4479
  139SAPE  H12B15093   6.202   1.482  10.573 -0.1183 -3.2249  2.5345
  139SAPE   C1115094   6.017   1.396  10.502  0.7577  0.5362  0.5142
  139SAPE  H11A15095   6.057   1.293  10.513 -1.5557 -0.3237  1.3133
  139SAPE  H11B15096   6.024   1.413  10.393 -3.0559  0.2772  0.0991
  139SAPE     P15097   5.790   1.283  10.576  0.0999 -0.1269  0.1231
  139SAPE   O1315098   5.879   1.191  10.646  0.6785  0.4220 -0.5826
  139SAPE   O1415099   5.672   1.329  10.653  0.0707 -0.3630  0.3461
  139SAPE   O1215100   5.876   1.409  10.524 -0.6448 -0.0240  0.2766
  139SAPE   O1115101   5.750   1.230  10.437 -0.2295  0.0919  0.4415
  139SAPE    C115102   5.654   1.306  10.363  0.4792 -0.3891 -0.4781
  139SAPE    HA15103   5.559   1.249  10.375 -0.6526  1.7404  1.5543
  139SAPE    HB15104   5.627   1.406  10.402 -1.8292 -0.3884 -1.8579
  139SAPE    C215105   5.664   1.319  10.209  0.2958  0.0222  0.0530
  139SAPE    HS15106   5.577   1.380  10.177  0.1616  0.2045  0.7554
  139SAPE   O2115107   5.671   1.193  10.136  0.1126 -0.1302 -0.1403
  139SAPE   C2115108   5.548   1.132  10.121 -0.5336 -0.2347 -0.2881
  139SAPE   O2215109   5.440   1.171  10.160 -0.1900 -0.2272 -0.8112
  139SAPE   C2215110   5.580   0.990  10.072  0.2010  0.5017  1.1980
  139SAPE   H2R15111   5.675   0.998  10.014 -1.4511  1.2055 -1.5734
  139SAPE   H2S15112   5.594   0.926  10.162 -2.2966 -0.9237  0.6603
  139SAPE    C315113   5.785   1.407  10.175 -0.3685  0.7140 -0.2045
  139SAPE    HX15114   5.868   1.339  10.205  0.2930  2.0705  1.1627
  139SAPE    HY15115   5.794   1.486  10.252  2.5326  0.5058 -0.2212
  139SAPE   O3115116   5.797   1.452  10.038  0.3542  0.3027 -0.2094
  139SAPE   C3115117   5.740   1.566  10.017  0.3013 -0.1058 -0.5065
  139SAPE   O3215118   5.691   1.635  10.106  0.3030  0.1691  0.4179
  139SAPE   C3215119   5.748   1.611   9.872 -0.5218 -0.3499  0.3604
  139SAPE   H2X15120   5.769   1.523   9.807 -4.4613 -0.6335 -0.7748
  139SAPE   H2Y15121   5.828   1.687   9.858 -1.5372  0.8404  0.9034
  139SAPE   C2315122   5.465   0.921  10.005 -0.1383 -0.3191  0.4944
  139SAPE   H3R15123   5.377   0.940  10.069  1.8540  0.3585  3.1813
  139SAPE   H3S15124   5.481   0.811  10.006 -1.6505 -0.5710  2.1416
  139SAPE   C2415125   5.456   0.964   9.857  0.0089  0.3400  0.0977
  139SAPE   H4R15126   5.444   1.075   9.862  2.9733  0.7594 -0.2250
  139SAPE   H4S15127   5.364   0.922   9.811  0.4823 -1.1469  0.4477
  139SAPE   C2515128   5.569   0.940   9.752  0.8168 -0.3365 -0.1790
  139SAPE   H5R15129   5.572   0.835   9.720  1.5830 -0.9941  1.8741
  139SAPE   C2615130   5.667   1.022   9.711 -0.6250 -0.2394  0.1130
  139SAPE   H6R15131   5.735   0.987   9.631 -2.1244  1.1005 -1.8470
  139SAPE   C2715132   5.700   1.162   9.756 -0.6064 -0.0487 -0.1620
  139SAPE   H7R15133   5.761   1.150   9.848  0.3284  1.3673 -0.5617
  139SAPE   H7S15134   5.618   1.227   9.792 -0.1626 -0.0834  0.9542
  139SAPE   C2815135   5.789   1.249   9.676 -0.1022  0.0685 -0.1044
  139SAPE   H8R15136   5.884   1.274   9.726 -1.1376  1.3187  1.3024
  139SAPE   C2915137   5.759   1.289   9.555 -0.7819 -1.0691  0.1585
  139SAPE   H9R15138   5.830   1.353   9.501 -1.2663  0.1126  0.8694
  139SAPE  C21015139   5.643   1.254   9.478 -0.0408 -0.0918  0.3876
  139SAPE  H10R15140   5.553   1.313   9.505  0.2062  1.4783 -1.9707
  139SAPE  H10S15141   5.614   1.146   9.483 -1.5069  0.2887  0.7692
  139SAPE  C21115142   5.655   1.270   9.331 -0.3033 -0.3213  0.0374
  139SAPE  H11R15143   5.689   1.176   9.284  0.5801 -0.7048  1.3858
  139SAPE  C21215144   5.637   1.386   9.263  0.3824  0.2723  0.2482
  139SAPE  H12R15145   5.637   1.385   9.153 -2.5513 -0.7077  0.1524
  139SAPE  C21315146   5.588   1.521   9.318  0.4008 -0.3404  0.5482
  139SAPE  H13R15147   5.667   1.593   9.288 -1.8964  1.0827 -2.6046
  139SAPE  H13S15148   5.581   1.510   9.428  2.1632  1.9329  0.9594
  139SAPE  C21415149   5.459   1.569   9.264  0.6044 -0.4488  0.1913
  139SAPE  H14R15150   5.381   1.588   9.339 -0.3250 -1.2006 -0.5635
  139SAPE  C21515151   5.433   1.607   9.136 -0.3961  0.3028 -0.3218
  139SAPE  H15R15152   5.328   1.629   9.111  0.2091  0.8783 -2.5461
  139SAPE  C21615153   5.523   1.605   9.013  0.0563 -0.7169  0.9156
  139SAPE  H16R15154   5.619   1.555   9.040  0.6579 -0.2522 -0.2964
  139SAPE  H16S15155   5.556   1.706   8.979 -1.5474 -1.0052 -1.7802
  139SAPE  C21715156   5.462   1.528   8.894 -1.0301 -0.6466 -0.9593
  139SAPE  H17R15157   5.366   1.575   8.863 -1.3007  1.6146  2.7618
  139SAPE  H17S15158   5.440   1.423   8.922 -0.4993 -0.3046  0.8197
  139SAPE  C21815159   5.564   1.526   8.775 -0.0556  1.3984  0.5806
  139SAPE  H18R15160   5.658   1.481   8.812  0.0271 -0.3369 -1.5115
  139SAPE  H18S15161   5.578   1.629   8.735  1.7887  0.6817 -0.7396
  139SAPE  C21915162   5.512   1.442   8.660 -0.1541 -0.4809 -0.5556
  139SAPE  H19R15163   5.434   1.494   8.600  0.1588 -2.4307 -2.7745
  139SAPE  H19S15164   5.468   1.346   8.695 -1.2642  0.2838  0.2344
  139SAPE  C22015165   5.624   1.403   8.556 -0.7480  0.5519  0.5406
  139SAPE  H20R15166   5.576   1.360   8.465  0.6173  1.3146 -0.5923
  139SAPE  H20S15167   5.691   1.336   8.614 -1.0734 -0.9338 -0.7362
  139SAPE  H20T15168   5.685   1.491   8.524  0.7686 -1.3261 -2.1992
  139SAPE   C3315169   5.611   1.653   9.818  0.1487 -0.6677  0.0106
  139SAPE   H3X15170   5.562   1.733   9.878  0.6204 -0.6887  0.4316
  139SAPE   H3Y15171   5.545   1.565   9.802 -0.6732 -0.1980  0.7061
  139SAPE   C3415172   5.628   1.721   9.684  0.0577 -0.1150  0.3203
  139SAPE   H4X15173   5.525   1.749   9.655  0.8876  3.0903  0.0545
  139SAPE   H4Y15174   5.667   1.655   9.604 -2.5857 -1.4395  0.0294
  139SAPE   C3515175   5.707   1.852   9.685  0.5480 -0.1458  0.1761
  139SAPE   H5X15176   5.808   1.831   9.729  0.3950 -0.6959  0.2723
  139SAPE   H5Y15177   5.655   1.926   9.750  0.1611  2.1129 -2.5518
  139SAPE   C3615178   5.719   1.911   9.544  0.0712  0.1598  0.1741
  139SAPE   H6X15179   5.690   1.857   9.452 -1.4506  2.6058 -0.8637
  139SAPE   H6Y15180   5.830   1.916   9.532  0.2028 -0.1518  1.1461
  139SAPE   C3715181   5.640   2.044   9.547  0.5980  0.0469 -0.4818
  139SAPE   H7X15182   5.682   2.114   9.623  1.7890  0.0480 -1.1318
  139SAPE   H7Y15183   5.535   2.019   9.575  0.9307  1.4147  2.3962
  139SAPE   C3815184   5.654   2.126   9.412 -0.1073 -0.1282  0.0075
  139SAPE   H8X15185   5.763   2.141   9.402 -0.1805  1.3329  0.9441
  139SAPE   H8Y15186   5.621   2.232   9.426 -2.6896 -0.5971 -1.8063
  139SAPE   C3915187   5.575   2.057   9.301 -0.3991 -0.2087 -0.1297
  139SAPE   H9X15188   5.467   2.081   9.302  0.0093  2.2057 -2.6808
  139SAPE   H9Y15189   5.591   1.947   9.303 -0.1546 -0.1748 -0.1616
  139SAPE  C31015190   5.619   2.098   9.158  0.4746  0.7284  0.3025
  139SAPE  H10X15191   5.560   2.029   9.094  0.4840  0.0139  1.0373
  139SAPE  H10Y15192   5.730   2.091   9.148  0.7599  0.0660  3.0555
  139SAPE  C31115193   5.577   2.234   9.125  0.0055 -0.0515  0.1668
  139SAPE  H11X15194   5.631   2.298   9.198  1.8814 -1.0160 -0.2929
  139SAPE  H11Y15195   5.468   2.244   9.145 -0.0454  1.1720 -0.6146
  139SAPE  C31215196   5.604   2.268   8.979  0.2902  0.6031 -0.3804
  139SAPE  H12X15197   5.545   2.354   8.941 -1.2638 -1.1256 -2.0904
  139SAPE  H12Y15198   5.550   2.194   8.917  0.1608 -1.0685  1.6350
  139SAPE  C31315199   5.747   2.291   8.942 -0.5140 -0.3493 -0.9128
  139SAPE  H13X15200   5.819   2.227   8.998  0.5008 -0.4139 -2.2527
  139SAPE  H13Y15201   5.758   2.394   8.981 -2.1567 -1.3044  2.4485
  139SAPE  C31415202   5.789   2.265   8.799 -0.2506  0.2492 -0.2684
  139SAPE  H14X15203   5.765   2.160   8.772  0.3744  0.5168 -2.0865
  139SAPE  H14Y15204   5.899   2.280   8.802 -0.1679 -0.1770 -0.9231
  139SAPE  C31515205   5.719   2.363   8.706 -0.6112  0.5942 -0.0573
  139SAPE  H15X15206   5.724   2.469   8.738  1.1385 -0.1349  2.3775
  139SAPE  H15Y15207   5.613   2.332   8.694 -0.5373  0.7312 -1.1418
  139SAPE  C31615208   5.791   2.354   8.564  0.2462  0.0777  0.2584
  139SAPE  H16X15209   5.895   2.389   8.580 -0.4243  1.4504  2.0565
  139SAPE  H16Y15210   5.789   2.247   8.537  2.0888  0.1225 -0.1811
  139SAPE  C31715211   5.711   2.434   8.468  0.8323 -0.3040 -0.5945
  139SAPE  H17X15212   5.702   2.541   8.496 -0.5535 -0.6056  0.2186
  139SAPE  H17Y15213   5.609   2.389   8.464  0.8409 -0.2631 -2.3017
  139SAPE  C31815214   5.761   2.426   8.317  0.3351  0.1363 -0.2895
  139SAPE  H18X15215   5.771   2.320   8.287 -0.1852 -0.1550  0.5228
  139SAPE  H18Y15216   5.866   2.461   8.310  0.2063  0.4889 -0.4898
  139SAPE  H18Z15217   5.694   2.483   8.248  1.4278  4.3143  1.8014
  140SAPE     N15218   0.849   6.734  10.850  0.3403 -0.2809 -0.8078
  140SAPE   HN115219   0.896   6.809  10.906  0.4034 -2.0704  1.6840
  140SAPE   HN215220   0.892   6.641  10.868 -1.1798 -0.8264  0.2104
  140SAPE   HN315221   0.868   6.753  10.750  0.7629  0.3451 -0.6197
  140SAPE   C1215222   0.702   6.748  10.887  0.6032  0.1858  0.3539
  140SAPE  H12A15223   0.690   6.748  10.997 -1.4583 -0.1477  0.1552
  140SAPE  H12B15224   0.650   6.654  10.859 -0.0660  0.2495  1.3367
  140SAPE   C1115225   0.626   6.869  10.823 -0.2793  0.1234 -0.5741
  140SAPE  H11A15226   0.523   6.872  10.865  0.1336  2.2493  0.4544
  140SAPE  H11B15227   0.617   6.846  10.715 -0.6716  1.9266 -0.9532
  140SAPE     P15228   0.640   7.130  10.822 -0.4042  0.0413 -0.2418
  140SAPE   O1315229   0.505   7.145  10.870 -0.0069 -0.3275  0.4422
  140SAPE   O1415230   0.734   7.231  10.869  0.5899 -0.3975 -0.5150
  140SAPE   O1215231   0.708   6.987  10.853  0.2587  0.6683 -0.5322
  140SAPE   O1115232   0.639   7.123  10.665  0.7555 -0.0909  0.0334
  140SAPE    C115233   0.753   7.080  10.589  0.1598  0.6048  0.6193
  140SAPE    HA15234   0.820   7.168  10.586 -3.3633  3.5236  0.2115
  140SAPE    HB15235   0.794   6.984  10.626 -1.2879  0.1501  1.1144
  140SAPE    C215236   0.722   7.059  10.433  0.7329  0.1330  0.3096
  140SAPE    HS15237   0.670   7.148  10.393 -0.5349 -1.8838 -2.8745
  140SAPE   O2115238   0.645   6.936  10.426  0.2587  0.0069  0.1386
  140SAPE   C2115239   0.547   6.944  10.340 -0.1899 -0.1624  0.3456
  140SAPE   O2215240   0.544   7.027  10.251 -0.2467 -0.8354  0.6041
  140SAPE   C2215241   0.440   6.837  10.367  0.2640 -0.3363  0.1940
  140SAPE   H2R15242   0.484   6.734  10.368 -0.6009 -0.7129  0.6185
  140SAPE   H2S15243   0.399   6.858  10.468 -3.2364 -0.4725 -1.0523
  140SAPE    C315244   0.859   7.037  10.360  0.3209 -0.2144 -0.2165
  140SAPE    HX15245   0.911   6.940  10.378 -0.0296 -0.5293 -0.8757
  140SAPE    HY15246   0.933   7.105  10.406 -1.4945  0.7027  1.4717
  140SAPE   O3115247   0.851   7.067  10.220 -0.6001 -0.0151  0.4761
  140SAPE   C3115248   0.825   6.966  10.143  0.1807 -0.1076 -0.1538
  140SAPE   O3215249   0.815   6.850  10.176 -0.0470 -0.6035 -0.4303
  140SAPE   C3215250   0.811   7.015  10.002  0.0556 -0.2308  0.7563
  140SAPE   H2X15251   0.910   7.047   9.960 -1.0364  0.8437 -1.1662
  140SAPE   H2Y15252   0.736   7.096   9.993  0.4014 -0.0205 -0.5173
  140SAPE   C2315253   0.329   6.858  10.266 -0.1893  0.8729  0.8745
  140SAPE   H3R15254   0.305   6.966  10.257 -2.3859  0.3056 -0.8769
  140SAPE   H3S15255   0.238   6.806  10.303 -0.3972 -0.4989 -1.3472
  140SAPE   C2415256   0.360   6.803  10.124  0.3982  0.0789  0.2261
  140SAPE   H4R15257   0.417   6.708  10.128  4.3318  1.9562 -3.1684
  140SAPE   H4S15258   0.436   6.871  10.081  1.9292 -1.1083  0.9710
  140SAPE   C2515259   0.234   6.810  10.039 -0.3403 -0.3689  0.5867
  140SAPE   H5R15260   0.171   6.897  10.064  1.3946  0.3189  2.9626
  140SAPE   C2615261   0.207   6.743   9.928  0.3130  0.0745 -0.0731
  140SAPE   H6R15262   0.109   6.763   9.884  0.4966 -0.4468 -0.7444
  140SAPE   C2715263   0.291   6.635   9.857  0.6909 -1.4902  0.0051
  140SAPE   H7R15264   0.363   6.595   9.932  1.8976 -0.2409 -0.4379
  140SAPE   H7S15265   0.359   6.690   9.788 -0.4904  2.2516  1.5540
  140SAPE   C2815266   0.239   6.517   9.786 -0.0906  0.3289  0.0790
  140SAPE   H8R15267   0.196   6.440   9.853 -0.1639  0.3925  0.1054
  140SAPE   C2915268   0.228   6.488   9.657  0.6257  0.5862 -0.5754
  140SAPE   H9R15269   0.197   6.387   9.628  1.1851 -0.4454  2.0842
  140SAPE  C21015270   0.269   6.580   9.547  0.5773 -0.2459 -0.2682
  140SAPE  H10R15271   0.328   6.665   9.588 -2.6652  1.4974  1.2021
  140SAPE  H10S15272   0.181   6.632   9.501  1.0443 -1.1234 -2.2874
  140SAPE  C21115273   0.339   6.513   9.433 -0.4031 -0.4535 -0.4816
  140SAPE  H11R15274   0.436   6.470   9.464 -0.8478 -1.9210 -1.0049
  140SAPE  C21215275   0.288   6.502   9.307  0.5820 -0.1022 -0.1971
  140SAPE  H12R15276   0.332   6.439   9.229 -2.6512 -1.4702 -1.0848
  140SAPE  C21315277   0.163   6.567   9.253 -0.0712 -0.2705 -0.5623
  140SAPE  H13R15278   0.083   6.549   9.329  1.3789 -1.8472  0.6637
  140SAPE  H13S15279   0.129   6.509   9.165 -1.2573  2.1849 -1.8240
  140SAPE  C21415280   0.170   6.708   9.216  0.2378 -0.1684  0.5410
  140SAPE  H14R15281   0.192   6.778   9.298  0.1069 -1.2103  1.4895
  140SAPE  C21515282   0.142   6.755   9.096  0.3074  0.0563 -0.7939
  140SAPE  H15R15283   0.152   6.864   9.085 -1.5101  0.3431  0.0617
  140SAPE  C21615284   0.095   6.682   8.968  0.1603  0.1783  0.4171
  140SAPE  H16R15285  -0.013   6.654   8.962  0.4425 -1.4443  1.9136
  140SAPE  H16S15286   0.139   6.580   8.968 -1.6076 -0.6859 -2.0759
  140SAPE  C21715287   0.136   6.766   8.840  0.2816 -0.8833 -0.1617
  140SAPE  H17R15288   0.089   6.863   8.865  0.9389 -1.1334  2.2912
  140SAPE  H17S15289   0.090   6.731   8.745 -0.4457  1.5385 -0.7573
  140SAPE  C21815290   0.289   6.775   8.811  0.1239  0.0212 -1.3033
  140SAPE  H18R15291   0.349   6.818   8.894  1.1519 -4.0062  0.2692
  140SAPE  H18S15292   0.306   6.828   8.714 -0.2318 -0.7079 -1.7738
  140SAPE  C21915293   0.346   6.630   8.794  0.4790 -0.1031  0.1873
  140SAPE  H19R15294   0.283   6.569   8.726  1.3082 -0.0865 -0.6040
  140SAPE  H19S15295   0.340   6.578   8.892 -1.9531  1.0724  0.7559
  140SAPE  C22015296   0.489   6.631   8.740  0.8241  0.0049  0.0992
  140SAPE  H20R15297   0.484   6.668   8.635  0.6757  1.5894  0.6537
  140SAPE  H20S15298   0.550   6.538   8.747  0.8071  0.0769  1.2946
  140SAPE  H20T15299   0.549   6.707   8.793 -0.7218  1.6454 -0.4008
  140SAPE   C3315300   0.766   6.902   9.904 -0.0918 -1.0122 -0.1340
  140SAPE   H3X15301   0.672   6.860   9.944 -0.4388 -0.1287  0.0119
  140SAPE   H3Y15302   0.841   6.821   9.889 -0.0735 -0.8386 -1.0544
  140SAPE   C3415303   0.737   6.959   9.766 -0.6741  0.4029  0.3428
  140SAPE   H4X15304   0.828   7.018   9.742 -1.1306  1.5135  1.2537
  140SAPE   H4Y15305   0.651   7.029   9.770 -1.7414 -0.8629  0.4483
  140SAPE   C3515306   0.707   6.851   9.654 -0.0081 -0.0127  0.1905
  140SAPE   H5X15307   0.617   6.791   9.678 -0.1387 -1.5408 -3.4526
  140SAPE   H5Y15308   0.791   6.779   9.654  0.0964 -0.0464  3.8553
  140SAPE   C3615309   0.682   6.916   9.519  0.2268  0.1430 -0.1783
  140SAPE   H6X15310   0.767   6.985   9.499 -1.4381  1.9852 -1.1913
  140SAPE   H6Y15311   0.598   6.988   9.519  0.8456  0.9717  2.1600
  140SAPE   C3715312   0.684   6.823   9.399  0.4268 -0.4753 -0.2045
  140SAPE   H7X15313   0.596   6.754   9.397 -0.2006  0.3239 -0.9600
  140SAPE   H7Y15314   0.774   6.758   9.400  0.1224 -0.9013  0.3159
  140SAPE   C3815315   0.681   6.912   9.268  0.1471 -0.2719 -1.3443
  140SAPE   H8X15316   0.762   6.981   9.300 -0.1864 -0.7074  0.6028
  140SAPE   H8Y15317   0.580   6.959   9.262  0.3223  0.5723  1.1208
  140SAPE   C3915318   0.712   6.845   9.142 -0.3508  0.1124  0.4417
  140SAPE   H9X15319   0.662   6.746   9.133 -0.0245 -0.1582  1.4393
  140SAPE   H9Y15320   0.821   6.822   9.142 -0.1031  1.1561  1.7405
  140SAPE  C31015321   0.691   6.930   9.022 -0.1470 -0.5202 -0.0690
  140SAPE  H10X15322   0.716   7.035   9.048  1.0235 -0.9773  0.7277
  140SAPE  H10Y15323   0.586   6.926   8.987 -0.7532 -2.1440  1.7734
  140SAPE  C31115324   0.783   6.882   8.915  0.1270 -0.0204  0.5215
  140SAPE  H11X15325   0.756   6.774   8.903 -0.1067 -0.4594  3.7998
  140SAPE  H11Y15326   0.890   6.891   8.942  0.4627 -0.5590 -0.5937
  140SAPE  C31215327   0.757   6.949   8.775 -0.0387  0.1201 -0.5025
  140SAPE  H12X15328   0.778   7.058   8.782  1.3861 -0.2277  1.3117
  140SAPE  H12Y15329   0.647   6.947   8.763 -0.4115  1.0347  2.1778
  140SAPE  C31315330   0.829   6.882   8.656 -0.0300 -0.5223 -0.0512
  140SAPE  H13X15331   0.786   6.925   8.562 -0.3852 -2.4075 -0.7974
  140SAPE  H13Y15332   0.814   6.773   8.642  1.1111 -1.2232  3.3293
  140SAPE  C31415333   0.984   6.894   8.645  0.2814  0.5552  0.0128
  140SAPE  H14X15334   1.030   6.826   8.719 -1.7572 -0.4826  0.4089
  140SAPE  H14Y15335   1.010   7.000   8.665  1.5197  0.5035 -1.2096
  140SAPE  C31515336   1.031   6.855   8.507 -0.2625  0.3795  0.4452
  140SAPE  H15X15337   0.974   6.918   8.435 -0.9403 -1.2481 -0.4907
  140SAPE  H15Y15338   1.001   6.749   8.493  0.6040 -0.1468  2.3180
  140SAPE  C31615339   1.186   6.885   8.497  0.1407 -0.1929 -0.0347
  140SAPE  H16X15340   1.226   6.832   8.586  0.3782  0.4832  0.2689
  140SAPE  H16Y15341   1.200   6.995   8.512  1.0548 -0.3769  0.5452
  140SAPE  C31715342   1.254   6.840   8.366 -0.3707  0.2768  0.2514
  140SAPE  H17X15343   1.232   6.908   8.281 -0.1307  0.2178  0.1392
  140SAPE  H17Y15344   1.226   6.736   8.337  1.3277 -0.2430  0.3162
  140SAPE  C31815345   1.402   6.847   8.386  0.2819  0.1528  0.4237
  140SAPE  H18X15346   1.466   6.831   8.296 -0.9064  1.7008 -0.7593
  140SAPE  H18Y15347   1.457   6.794   8.466  0.6316 -0.7907 -0.4232
  140SAPE  H18Z15348   1.415   6.949   8.430  0.3346  0.4906 -0.3547
  141SAPE     N15349   0.112   5.569  10.653 -0.2645 -0.1310 -0.3938
  141SAPE   HN115350   0.176   5.488  10.665 -0.2875 -0.0838  0.0585
  141SAPE   HN215351   0.158   5.659  10.629  0.0414 -0.0711  0.3670
  141SAPE   HN315352   0.067   5.589  10.744 -2.2203 -0.8088 -1.1710
  141SAPE   C1215353   0.002   5.541  10.551 -0.8546  0.5233  0.3468
  141SAPE  H12A15354  -0.051   5.456  10.599 -1.7322  0.2483 -1.0383
  141SAPE  H12B15355   0.061   5.528  10.458 -3.2251  0.9608 -1.3224
  141SAPE   C1115356  -0.096   5.652  10.522 -0.0181  0.2703  0.2335
  141SAPE  H11A15357  -0.174   5.615  10.452 -0.9044  1.3471  0.6156
  141SAPE  H11B15358  -0.046   5.744  10.485 -1.4267  1.8481  2.0313
  141SAPE     P15359  -0.295   5.765  10.647  0.3033 -0.7666  0.0990
  141SAPE   O1315360  -0.406   5.681  10.595  0.1171 -0.3984  0.1892
  141SAPE   O1415361  -0.312   5.827  10.782 -0.4288  1.0845 -0.4486
  141SAPE   O1215362  -0.158   5.688  10.645 -0.5787 -0.0936  0.2192
  141SAPE   O1115363  -0.267   5.887  10.543  0.0035  0.6518  0.5019
  141SAPE    C115364  -0.329   5.892  10.414  0.2549  0.4330 -0.1310
  141SAPE    HA15365  -0.338   5.790  10.371  1.1867  0.5285 -0.5740
  141SAPE    HB15366  -0.425   5.946  10.430  0.3111  1.7266 -3.3842
  141SAPE    C215367  -0.252   5.982  10.321 -0.0930 -0.6012  0.3278
  141SAPE    HS15368  -0.151   5.939  10.307  0.0541 -0.2005  0.1514
  141SAPE   O2115369  -0.252   6.121  10.369 -0.8329  0.3718  0.0830
  141SAPE   C2115370  -0.132   6.181  10.345 -0.1559 -0.1881 -0.7162
  141SAPE   O2215371  -0.037   6.141  10.279 -0.0314  0.5355  0.0221
  141SAPE   C2215372  -0.120   6.306  10.429  0.4566 -0.1751  0.1638
  141SAPE   H2R15373  -0.222   6.349  10.425  0.2790 -0.4625  1.1338
  141SAPE   H2S15374  -0.102   6.282  10.536 -1.2511 -0.3644  0.4341
  141SAPE    C315375  -0.325   5.977  10.178 -1.0488 -0.1527 -0.1686
  141SAPE    HX15376  -0.430   6.008  10.199 -0.4393  0.7790  1.7074
  141SAPE    HY15377  -0.305   5.875  10.139 -0.7585  0.2524 -1.1181
  141SAPE   O3115378  -0.259   6.068  10.082  0.0122 -0.1161  0.4372
  141SAPE   C3115379  -0.141   6.026  10.036  0.2671 -0.7874  0.0602
  141SAPE   O3215380  -0.101   5.913  10.068  0.8215  0.0739  0.2673
  141SAPE   C3215381  -0.075   6.127   9.944 -0.3699 -0.1838 -0.0452
  141SAPE   H2X15382   0.020   6.081   9.911  1.2359  2.2840  0.8889
  141SAPE   H2Y15383  -0.054   6.217  10.005 -0.3838  0.9336 -1.6254
  141SAPE   C2315384  -0.019   6.406  10.381 -0.3316 -0.7280 -0.4680
  141SAPE   H3R15385   0.070   6.352  10.340 -0.3625 -0.8243 -0.4121
  141SAPE   H3S15386   0.028   6.459  10.467  1.9198  1.2596 -2.7600
  141SAPE   C2415387  -0.070   6.504  10.280  0.1845  0.8980  0.5742
  141SAPE   H4R15388  -0.107   6.458  10.185  0.4511  2.1642 -0.1672
  141SAPE   H4S15389   0.023   6.557  10.248 -0.2571  0.3313 -1.8815
  141SAPE   C2515390  -0.171   6.598  10.340 -0.6730  0.0078  0.0912
  141SAPE   H5R15391  -0.140   6.651  10.432 -0.4637 -1.4685  0.9115
  141SAPE   C2615392  -0.299   6.612  10.298 -0.1924  0.3824 -0.3653
  141SAPE   H6R15393  -0.353   6.693  10.349  0.8885  1.0612 -0.2570
  141SAPE   C2715394  -0.361   6.548  10.180  0.1760 -0.0830 -0.7834
  141SAPE   H7R15395  -0.285   6.546  10.099  1.1191  2.1592 -0.0316
  141SAPE   H7S15396  -0.446   6.617  10.165 -0.7564  0.8188  5.7504
  141SAPE   C2815397  -0.409   6.408  10.210  0.9006  0.1400  0.0080
  141SAPE   H8R15398  -0.402   6.370  10.313 -0.1385  0.5194  0.2250
  141SAPE   C2915399  -0.475   6.327  10.126 -0.0193  0.6853  0.0284
  141SAPE   H9R15400  -0.488   6.226  10.169 -4.0870  1.7417  1.7912
  141SAPE  C21015401  -0.506   6.355   9.982  0.8499 -0.6716  0.2370
  141SAPE  H10R15402  -0.541   6.266   9.926 -1.2380  0.4940 -0.4183
  141SAPE  H10S15403  -0.410   6.377   9.931  0.4769 -0.4579 -0.3824
  141SAPE  C21115404  -0.609   6.464   9.950 -0.2025  0.7057 -0.3535
  141SAPE  H11R15405  -0.660   6.511  10.035 -0.2165  1.1164 -0.5851
  141SAPE  C21215406  -0.636   6.516   9.823 -0.2442 -0.5860  0.2553
  141SAPE  H12R15407  -0.709   6.598   9.811  1.0561  0.9829  2.4183
  141SAPE  C21315408  -0.581   6.469   9.689  0.5136  0.0064  0.0440
  141SAPE  H13R15409  -0.648   6.404   9.627 -0.8642  1.3519  0.0624
  141SAPE  H13S15410  -0.501   6.402   9.727  1.5731  0.5808 -1.1002
  141SAPE  C21415411  -0.523   6.584   9.603  0.3842  0.5096 -0.0821
  141SAPE  H14R15412  -0.468   6.660   9.659  1.7205 -0.9091  0.6141
  141SAPE  C21515413  -0.540   6.588   9.471 -0.1160 -0.0798 -0.1914
  141SAPE  H15R15414  -0.499   6.670   9.411 -0.4997 -1.4628 -2.4384
  141SAPE  C21615415  -0.624   6.495   9.388  0.2513 -0.4444 -0.5695
  141SAPE  H16R15416  -0.724   6.490   9.436 -0.0776  0.0672 -1.1816
  141SAPE  H16S15417  -0.591   6.390   9.391  0.2963 -0.4200  1.7956
  141SAPE  C21715418  -0.634   6.541   9.243 -0.1666 -0.9062  0.2869
  141SAPE  H17R15419  -0.538   6.574   9.197  0.2533 -0.7054  1.2908
  141SAPE  H17S15420  -0.697   6.632   9.232  2.0893  0.5127 -2.0151
  141SAPE  C21815421  -0.701   6.440   9.148 -0.3897  0.1632  0.0003
  141SAPE  H18R15422  -0.802   6.426   9.191  1.0515  0.6013  4.0141
  141SAPE  H18S15423  -0.649   6.343   9.162  0.9975  0.5356 -2.0786
  141SAPE  C21915424  -0.696   6.480   8.998  0.1520  0.2894  0.1349
  141SAPE  H19R15425  -0.594   6.510   8.966 -0.3982  2.4319  0.2079
  141SAPE  H19S15426  -0.757   6.573   9.005  2.3465  1.7989  0.2703
  141SAPE  C22015427  -0.746   6.372   8.908 -0.2300 -0.6620  0.0056
  141SAPE  H20R15428  -0.853   6.349   8.927 -0.7314  1.5636  0.0856
  141SAPE  H20S15429  -0.673   6.288   8.912 -0.3633 -0.7576  0.4615
  141SAPE  H20T15430  -0.743   6.409   8.803  0.4080  1.5092  0.7443
  141SAPE   C3315431  -0.163   6.190   9.835 -0.2978  0.1024  0.2821
  141SAPE   H3X15432  -0.254   6.236   9.879 -0.0004 -0.3753  1.4544
  141SAPE   H3Y15433  -0.205   6.108   9.773 -0.1857 -0.2975  0.7280
  141SAPE   C3415434  -0.095   6.299   9.752 -1.3562 -0.0114  0.2076
  141SAPE   H4X15435   0.004   6.261   9.719 -0.0467  0.6936  2.9802
  141SAPE   H4Y15436  -0.078   6.398   9.801  1.0379 -1.4007  2.4484
  141SAPE   C3515437  -0.167   6.339   9.615  0.1075  0.3219 -0.2431
  141SAPE   H5X15438  -0.101   6.414   9.566 -0.0370  0.8158  0.3059
  141SAPE   H5Y15439  -0.265   6.383   9.643 -1.1396  0.0348 -3.6812
  141SAPE   C3615440  -0.187   6.218   9.524  0.7257 -0.3601 -0.3806
  141SAPE   H6X15441  -0.250   6.140   9.571  1.0982 -0.4390 -0.0038
  141SAPE   H6Y15442  -0.085   6.173   9.516  0.4086 -1.3074  0.6876
  141SAPE   C3715443  -0.242   6.256   9.385  0.2592  0.1732  0.4837
  141SAPE   H7X15444  -0.334   6.318   9.389 -0.5809 -0.8128 -1.8206
  141SAPE   H7Y15445  -0.266   6.155   9.347  1.3317  0.6896 -1.6868
  141SAPE   C3815446  -0.134   6.310   9.296 -0.2743  0.1170 -0.1730
  141SAPE   H8X15447  -0.069   6.226   9.263 -0.3404  0.0613 -0.1599
  141SAPE   H8Y15448  -0.076   6.382   9.358 -2.8927  0.8295  1.6346
  141SAPE   C3915449  -0.186   6.369   9.164  0.1408 -0.4799 -0.6464
  141SAPE   H9X15450  -0.103   6.405   9.100  0.2550 -0.4805 -0.4977
  141SAPE   H9Y15451  -0.257   6.454   9.173 -0.5570 -1.2544  3.1636
  141SAPE  C31015452  -0.281   6.269   9.086  0.1336  0.3684  0.3822
  141SAPE  H10X15453  -0.370   6.230   9.139  0.2849  0.6446  0.8425
  141SAPE  H10Y15454  -0.214   6.190   9.047  0.4342  1.6303 -1.8475
  141SAPE  C31115455  -0.328   6.342   8.959 -0.0126  0.0107  0.4431
  141SAPE  H11X15456  -0.238   6.380   8.906  0.0731 -1.7346 -0.7456
  141SAPE  H11Y15457  -0.385   6.431   8.993  0.5764  1.8557 -2.9602
  141SAPE  C31215458  -0.421   6.265   8.868  0.2047 -0.4579 -0.1355
  141SAPE  H12X15459  -0.486   6.349   8.833  1.3606  1.5143  2.1391
  141SAPE  H12Y15460  -0.474   6.193   8.934  0.5947  2.1382  3.3018
  141SAPE  C31315461  -0.340   6.198   8.760  0.0279 -0.0144 -0.6167
  141SAPE  H13X15462  -0.274   6.121   8.804 -0.9167 -0.5974 -0.2024
  141SAPE  H13Y15463  -0.269   6.269   8.711  1.5177 -0.3079  1.0076
  141SAPE  C31415464  -0.417   6.121   8.656  0.8557  0.3005 -0.8319
  141SAPE  H14X15465  -0.472   6.042   8.712  2.1289  0.9414  1.4528
  141SAPE  H14Y15466  -0.357   6.064   8.582  0.3008 -2.1620  0.4728
  141SAPE  C31515467  -0.502   6.208   8.573  0.5105 -0.1072 -0.0675
  141SAPE  H15X15468  -0.474   6.316   8.571 -1.7548  0.6061 -3.2450
  141SAPE  H15Y15469  -0.602   6.212   8.621 -1.2631 -0.9246 -3.3551
  141SAPE  C31615470  -0.516   6.157   8.433  0.1692 -0.2327  0.1197
  141SAPE  H16X15471  -0.530   6.047   8.427  1.7300 -0.3587 -2.7977
  141SAPE  H16Y15472  -0.429   6.173   8.366  0.1291 -0.0956  0.0986
  141SAPE  C31715473  -0.638   6.214   8.363 -0.0960 -0.4422 -0.4720
  141SAPE  H17X15474  -0.612   6.320   8.341 -0.2239 -0.1468  0.7274
  141SAPE  H17Y15475  -0.725   6.196   8.430  2.3135 -2.8974  2.2318
  141SAPE  C31815476  -0.665   6.152   8.229  0.4069 -0.3133  0.4504
  141SAPE  H18X15477  -0.749   6.213   8.189 -1.5616 -1.0578  3.1471
  141SAPE  H18Y15478  -0.684   6.042   8.228  2.8883 -0.8160 -0.1654
  141SAPE  H18Z15479  -0.574   6.165   8.166 -0.3619 -1.3530 -0.9258
  142SAPE     N15480   1.665   2.253  11.008  0.0424 -0.1106  0.6409
  142SAPE   HN115481   1.602   2.197  10.947 -0.5049 -1.2588  2.1810
  142SAPE   HN215482   1.659   2.198  11.096 -2.7384  0.7311  1.0715
  142SAPE   HN315483   1.630   2.351  11.007  1.1672  0.3147 -0.7790
  142SAPE   C1215484   1.807   2.251  10.976 -0.3243 -0.0861  0.1419
  142SAPE  H12A15485   1.817   2.152  10.926  0.5380 -0.0295  0.2008
  142SAPE  H12B15486   1.865   2.259  11.071 -0.7500 -0.6594  0.4601
  142SAPE   C1115487   1.849   2.348  10.868  0.4048  1.0611 -0.6522
  142SAPE  H11A15488   1.806   2.322  10.769 -0.5887  1.2576 -0.2862
  142SAPE  H11B15489   1.958   2.334  10.856  0.3334  0.3967 -0.5694
  142SAPE     P15490   1.918   2.571  10.966 -0.3581  0.1254  0.6534
  142SAPE   O1315491   1.861   2.704  10.998  0.2921  0.7706  0.0755
  142SAPE   O1415492   1.962   2.489  11.081 -0.3062 -0.4048 -0.4408
  142SAPE   O1215493   1.811   2.481  10.891 -0.5456  0.3398  0.3453
  142SAPE   O1115494   2.043   2.582  10.869  0.1947  0.6503 -0.1088
  142SAPE    C115495   2.038   2.653  10.746 -0.0497 -0.2563  0.4858
  142SAPE    HA15496   1.982   2.749  10.755  0.3289  0.0681 -0.5264
  142SAPE    HB15497   2.142   2.680  10.718 -0.8113  3.0326  0.3785
  142SAPE    C215498   1.978   2.571  10.631  0.5770  0.1686 -0.1698
  142SAPE    HS15499   1.891   2.514  10.668 -0.9074  0.7070 -2.6290
  142SAPE   O2115500   2.085   2.487  10.584 -0.7992  0.5987 -0.3264
  142SAPE   C2115501   2.043   2.369  10.527  0.3232  0.3323 -0.4902
  142SAPE   O2215502   1.928   2.326  10.544 -0.4766  0.6152  0.5830
  142SAPE   C2215503   2.150   2.298  10.456  0.1166  0.9562  0.0871
  142SAPE   H2R15504   2.159   2.347  10.356  1.1865 -0.4862 -0.5468
  142SAPE   H2S15505   2.248   2.306  10.507  0.0907 -1.7366  0.6813
  142SAPE    C315506   1.925   2.654  10.519 -0.3732 -0.4104 -0.9229
  142SAPE    HX15507   1.845   2.723  10.554 -0.4698 -0.2180 -1.5136
  142SAPE    HY15508   1.894   2.589  10.435  1.7931  0.8524 -2.8167
  142SAPE   O3115509   2.027   2.749  10.473  0.4399  1.0247  0.1378
  142SAPE   C3115510   2.081   2.737  10.355 -0.6321 -0.1935  0.3771
  142SAPE   O3215511   2.069   2.660  10.269  0.1978  0.2176 -0.4445
  142SAPE   C3215512   2.176   2.861  10.334 -0.6637  0.9657 -0.2495
  142SAPE   H2X15513   2.263   2.830  10.396 -2.5373 -2.2138  1.0675
  142SAPE   H2Y15514   2.136   2.952  10.385 -0.3628  1.1363 -0.3164
  142SAPE   C2315515   2.108   2.157  10.453  0.4326  0.8961 -0.2287
  142SAPE   H3R15516   2.013   2.152  10.395 -1.4688  1.3795  2.5997
  142SAPE   H3S15517   2.092   2.116  10.556  0.9743  1.0879 -0.0678
  142SAPE   C2415518   2.227   2.073  10.381 -0.4537 -0.4176 -0.2207
  142SAPE   H4R15519   2.211   1.972  10.423  1.9224 -0.6457  0.2645
  142SAPE   H4S15520   2.330   2.094  10.417  1.0735 -2.9420 -2.7345
  142SAPE   C2515521   2.213   2.087  10.234  0.2785  0.3441 -0.1036
  142SAPE   H5R15522   2.249   2.188  10.209 -0.7419  0.1575 -2.6867
  142SAPE   C2615523   2.175   1.995  10.140 -0.0408 -0.1046 -0.3063
  142SAPE   H6R15524   2.179   2.021  10.034  2.9711 -0.1795 -0.2884
  142SAPE   C2715525   2.126   1.847  10.162  0.7373 -0.2653  0.3635
  142SAPE   H7R15526   2.016   1.843  10.144  0.6260  1.3224  0.5181
  142SAPE   H7S15527   2.144   1.810  10.265 -1.3436  0.5892  1.0945
  142SAPE   C2815528   2.192   1.749  10.067  0.7173  0.0529  0.5947
  142SAPE   H8R15529   2.290   1.707  10.096 -1.3077 -3.8363  2.6471
  142SAPE   C2915530   2.128   1.679   9.969 -1.0787  0.0276 -0.2397
  142SAPE   H9R15531   2.193   1.615   9.907 -0.5927  1.5553 -1.3882
  142SAPE  C21015532   1.983   1.685   9.936 -0.4202 -0.8637 -0.5575
  142SAPE  H10R15533   1.937   1.781   9.967  2.5119  0.8634 -1.1309
  142SAPE  H10S15534   1.917   1.619   9.996 -1.2548  0.5057  0.0638
  142SAPE  C21115535   1.965   1.680   9.786  0.1738 -0.4830 -0.5341
  142SAPE  H11R15536   1.976   1.776   9.735  0.9091  0.2607  0.9486
  142SAPE  C21215537   1.921   1.587   9.708  1.1327  0.4450 -0.6747
  142SAPE  H12R15538   1.899   1.615   9.604 -0.9789  0.7861 -0.1886
  142SAPE  C21315539   1.877   1.442   9.750  0.0358 -0.6334  0.4128
  142SAPE  H13R15540   1.823   1.414   9.657  0.3046  2.7411 -0.8834
  142SAPE  H13S15541   1.804   1.440   9.833  0.1858 -0.2939  0.5548
  142SAPE  C21415542   1.984   1.352   9.793 -0.0604  0.7740  0.9995
  142SAPE  H14R15543   2.061   1.394   9.859 -1.3771  2.2136  1.7054
  142SAPE  C21515544   2.007   1.224   9.745 -0.5772 -0.0033 -0.6002
  142SAPE  H15R15545   2.107   1.191   9.776 -0.1803  1.5204 -0.2029
  142SAPE  C21615546   1.925   1.151   9.645 -0.1626  0.3285  0.0721
  142SAPE  H16R15547   1.827   1.203   9.647  0.1304  1.1022 -2.2056
  142SAPE  H16S15548   1.896   1.047   9.673 -0.5242  0.3691 -0.1490
  142SAPE  C21715549   1.976   1.148   9.502  0.5164  0.2184  0.1966
  142SAPE  H17R15550   1.913   1.081   9.440  1.9754 -2.1710  1.1602
  142SAPE  H17S15551   2.076   1.101   9.501  0.9960  1.2141  0.1673
  142SAPE  C21815552   1.983   1.283   9.432  0.3350 -0.8325 -0.5734
  142SAPE  H18R15553   2.066   1.339   9.481  2.2038 -2.0359 -2.1876
  142SAPE  H18S15554   1.889   1.338   9.454  0.8373 -0.3060  0.3245
  142SAPE  C21915555   2.012   1.274   9.279  0.8968 -0.0832  0.0311
  142SAPE  H19R15556   1.933   1.215   9.230  0.8612  0.4204 -0.5311
  142SAPE  H19S15557   2.107   1.218   9.270  0.2284 -1.3281  0.5726
  142SAPE  C22015558   2.041   1.403   9.205  1.0331  0.3118  0.3380
  142SAPE  H20R15559   2.080   1.379   9.104  0.1785  0.6880 -0.0914
  142SAPE  H20S15560   2.114   1.463   9.264  2.7621 -2.4195  1.1558
  142SAPE  H20T15561   1.947   1.462   9.200  0.1378 -1.0983 -0.1905
  142SAPE   C3315562   2.219   2.883  10.191  0.0988  0.5719  0.0827
  142SAPE   H3X15563   2.280   2.801  10.148  0.5204  0.9558 -0.0624
  142SAPE   H3Y15564   2.283   2.974  10.192  0.0466  0.6144 -0.1563
  142SAPE   C3415565   2.105   2.910  10.096 -0.9334  0.0999 -0.3793
  142SAPE   H4X15566   2.034   2.983  10.140  1.4118  1.0875  2.0995
  142SAPE   H4Y15567   2.058   2.813  10.071  3.1899 -2.1880 -0.1131
  142SAPE   C3515568   2.157   2.958   9.961  0.5825 -0.3900  0.0877
  142SAPE   H5X15569   2.238   2.887   9.932  0.3296 -0.1703 -1.2477
  142SAPE   H5Y15570   2.195   3.062   9.968  0.5464 -0.4211  0.8312
  142SAPE   C3615571   2.076   2.943   9.835 -0.0034  1.4767 -0.0442
  142SAPE   H6X15572   1.985   3.006   9.844 -1.5981 -0.8520  1.1615
  142SAPE   H6Y15573   2.048   2.836   9.823  0.6861  1.2139  0.6372
  142SAPE   C3715574   2.159   2.985   9.708  0.0603  0.1136  0.3956
  142SAPE   H7X15575   2.263   2.948   9.693  1.0919  2.9061  0.0505
  142SAPE   H7Y15576   2.160   3.096   9.704  0.6948  0.1158  0.4555
  142SAPE   C3815577   2.080   2.945   9.579  0.3596  0.8500  1.2124
  142SAPE   H8X15578   1.990   3.011   9.572  1.6628  2.6542  0.7602
  142SAPE   H8Y15579   2.045   2.840   9.582  0.3016  0.8649  1.0651
  142SAPE   C3915580   2.150   2.976   9.445  0.3566  0.6970  0.3315
  142SAPE   H9X15581   2.153   3.086   9.435 -1.0585  0.6656 -0.7671
  142SAPE   H9Y15582   2.070   2.943   9.375 -0.1927  2.2620  0.1806
  142SAPE  C31015583   2.277   2.900   9.417  0.9539  0.2169  0.2986
  142SAPE  H10X15584   2.256   2.800   9.372  1.9560  0.3937 -0.5763
  142SAPE  H10Y15585   2.332   2.879   9.511  1.9200 -0.3287 -0.3705
  142SAPE  C31115586   2.380   2.983   9.342  0.0844  0.0905  0.1201
  142SAPE  H11X15587   2.466   2.913   9.336  0.2623  0.1983  1.2499
  142SAPE  H11Y15588   2.402   3.071   9.407  1.8239  0.3457 -0.7647
  142SAPE  C31215589   2.330   3.038   9.211 -0.0011  0.6902 -0.9329
  142SAPE  H12X15590   2.407   3.114   9.183 -0.6173  1.4475 -0.6150
  142SAPE  H12Y15591   2.233   3.091   9.210 -0.6790 -0.4735  0.2659
  142SAPE  C31315592   2.327   2.936   9.096  0.8073 -0.3672  0.4363
  142SAPE  H13X15593   2.290   2.836   9.126  1.4156 -0.6160  0.3618
  142SAPE  H13Y15594   2.432   2.912   9.069  0.4605 -2.7007  1.0009
  142SAPE  C31415595   2.258   2.995   8.972 -0.4442 -0.4722 -0.1477
  142SAPE  H14X15596   2.233   3.103   8.973  0.4773 -0.2145  2.7636
  142SAPE  H14Y15597   2.156   2.954   8.960 -0.3776 -0.2214 -1.8664
  142SAPE  C31515598   2.321   2.948   8.837 -0.3210 -0.7754  0.0332
  142SAPE  H15X15599   2.324   2.837   8.826  1.2113 -0.6776 -0.7860
  142SAPE  H15Y15600   2.425   2.985   8.840 -0.0702 -1.3346 -1.1317
  142SAPE  C31615601   2.259   3.002   8.708  0.5147 -0.4570  0.0471
  142SAPE  H16X15602   2.276   3.110   8.689 -1.9647 -0.4227 -2.8101
  142SAPE  H16Y15603   2.150   2.983   8.723  0.4483 -0.5919 -0.5713
  142SAPE  C31715604   2.303   2.924   8.577  0.8833  0.3596  0.6915
  142SAPE  H17X15605   2.413   2.908   8.579  0.6162 -1.8805  0.8279
  142SAPE  H17Y15606   2.274   2.979   8.486 -1.6215  1.2847  1.9629
  142SAPE  C31815607   2.252   2.781   8.559  0.0758  0.4054  0.3693
  142SAPE  H18X15608   2.288   2.738   8.463  0.2867 -0.2001  0.7198
  142SAPE  H18Y15609   2.143   2.804   8.553 -0.3107 -0.9099  1.7114
  142SAPE  H18Z15610   2.275   2.715   8.645  0.8067  0.7242  0.4257
  143SAPE     N15611   4.992   5.570  10.779 -0.2768  0.2194  0.8390
  143SAPE   HN115612   4.895   5.594  10.748 -0.1887  1.4943  1.4997
  143SAPE   HN215613   5.053   5.648  10.748 -0.4907 -0.5142 -1.7097
  143SAPE   HN315614   5.014   5.490  10.716 -0.2591  2.7432 -2.6577
  143SAPE   C1215615   5.019   5.549  10.926  0.5868  0.4450  0.6751
  143SAPE  H12A15616   5.122   5.508  10.928  0.5169  0.0771 -1.2314
  143SAPE  H12B15617   4.939   5.483  10.967 -0.2511  1.8174  1.2990
  143SAPE   C1115618   5.007   5.679  11.008  0.3486  0.0921 -0.6077
  143SAPE  H11A15619   5.077   5.759  10.976  0.8979  1.5922  3.7477
  143SAPE  H11B15620   5.035   5.661  11.113  0.9280 -0.9687 -0.9395
  143SAPE     P15621   4.822   5.850  11.071 -0.0557 -0.2000 -0.1829
  143SAPE   O1315622   4.819   5.834  11.217 -0.3439  0.3809  0.1196
  143SAPE   O1415623   4.912   5.956  11.020 -0.2449  0.3309  0.3794
  143SAPE   O1215624   4.868   5.721  11.001 -0.1981 -0.1947 -0.3106
  143SAPE   O1115625   4.668   5.870  11.031  0.2881  0.1698 -0.0412
  143SAPE    C115626   4.582   5.758  11.004  0.4442  0.2274 -0.4557
  143SAPE    HA15627   4.601   5.682  11.083  0.6703  1.4869  0.7304
  143SAPE    HB15628   4.482   5.790  11.037  0.2508 -0.2345 -0.5860
  143SAPE    C215629   4.589   5.701  10.854 -0.5505  0.2380 -0.1539
  143SAPE    HS15630   4.680   5.638  10.852 -0.2112  0.7553 -1.3443
  143SAPE   O2115631   4.593   5.803  10.752 -0.5119  0.5713  0.2955
  143SAPE   C2115632   4.695   5.802  10.669 -0.3801  0.3619 -0.1788
  143SAPE   O2215633   4.791   5.724  10.669  0.4975 -0.4468  0.2608
  143SAPE   C2215634   4.675   5.914  10.563 -0.5210  0.7543 -0.5988
  143SAPE   H2R15635   4.567   5.933  10.546 -1.4213 -1.1075  2.2722
  143SAPE   H2S15636   4.736   6.006  10.574 -0.1383  0.6508 -1.7568
  143SAPE    C315637   4.457   5.618  10.833 -0.0320  0.5641 -0.4719
  143SAPE    HX15638   4.370   5.686  10.839 -0.1409  0.5968 -1.9607
  143SAPE    HY15639   4.441   5.543  10.913  2.1917  3.3048  2.8346
  143SAPE   O3115640   4.457   5.557  10.698 -0.0894  0.7201 -0.3255
  143SAPE   C3115641   4.527   5.443  10.688  0.5767 -0.2128  0.2142
  143SAPE   O3215642   4.590   5.392  10.778  0.6988  0.8563  0.4950
  143SAPE   C3215643   4.509   5.396  10.549  0.7219  0.1088 -0.0029
  143SAPE   H2X15644   4.508   5.480  10.476  0.8954 -0.6292 -0.8731
  143SAPE   H2Y15645   4.415   5.338  10.542  1.1281 -0.4277 -1.3429
  143SAPE   C2315646   4.722   5.862  10.429 -0.1021 -0.0053  0.4563
  143SAPE   H3R15647   4.829   5.831  10.438 -0.7327 -2.1336  1.1921
  143SAPE   H3S15648   4.714   5.947  10.358  0.2332 -0.9931 -0.7989
  143SAPE   C2415649   4.633   5.749  10.365 -0.5765  0.1488 -0.2279
  143SAPE   H4R15650   4.525   5.753  10.391 -0.4993  0.1406  0.1047
  143SAPE   H4S15651   4.677   5.654  10.404  0.8319 -0.8701 -3.9106
  143SAPE   C2515652   4.647   5.740  10.213  0.6373  0.5515  0.1653
  143SAPE   H5R15653   4.750   5.714  10.187  0.3195 -1.4220  0.7289
  143SAPE   C2615654   4.545   5.740  10.123 -0.0812  0.3749  0.2303
  143SAPE   H6R15655   4.578   5.731  10.019  1.4846  1.1664  0.6333
  143SAPE   C2715656   4.398   5.753  10.149 -0.0156  0.2228 -0.5152
  143SAPE   H7R15657   4.359   5.793  10.053  1.0088  2.4686 -0.0618
  143SAPE   H7S15658   4.383   5.839  10.217 -1.1348 -0.0348 -0.4251
  143SAPE   C2815659   4.323   5.640  10.208 -0.1537 -0.3701 -0.0232
  143SAPE   H8R15660   4.361   5.597  10.302  2.5573 -0.3813 -1.0381
  143SAPE   C2915661   4.194   5.614  10.180 -0.1969  0.4503 -0.5711
  143SAPE   H9R15662   4.139   5.534  10.232 -1.9542  1.7325 -0.3702
  143SAPE  C21015663   4.105   5.680  10.075 -0.1442 -0.3699 -0.2801
  143SAPE  H10R15664   4.086   5.592  10.010  0.1214  0.3399 -1.3509
  143SAPE  H10S15665   4.162   5.757  10.018  0.2377  0.4175  1.1145
  143SAPE  C21115666   3.983   5.742  10.136 -0.4097 -0.0615 -0.0239
  143SAPE  H11R15667   4.010   5.813  10.216  1.2109 -3.0716  2.2995
  143SAPE  C21215668   3.859   5.746  10.101  0.4140 -0.4154 -0.4631
  143SAPE  H12R15669   3.791   5.776  10.181  0.2193 -1.0640 -0.3812
  143SAPE  C21315670   3.807   5.669   9.986 -0.0354  0.0075 -0.6583
  143SAPE  H13R15671   3.709   5.632  10.023 -0.0297  0.7741  0.1568
  143SAPE  H13S15672   3.869   5.580   9.964 -2.6463 -3.0073  2.7687
  143SAPE  C21415673   3.768   5.759   9.874  0.2706 -0.0163 -0.0544
  143SAPE  H14R15674   3.724   5.854   9.908  1.3129  0.5677 -0.3031
  143SAPE  C21515675   3.785   5.755   9.742  0.0915 -0.4604 -1.1528
  143SAPE  H15R15676   3.742   5.844   9.693  0.8240  2.0510  2.3637
  143SAPE  C21615677   3.868   5.650   9.665  0.2932 -0.7783  0.3723
  143SAPE  H16R15678   3.804   5.590   9.597  0.5306 -0.8466  0.2089
  143SAPE  H16S15679   3.904   5.568   9.731  0.6137 -0.2204  0.8957
  143SAPE  C21715680   3.993   5.713   9.604 -0.4681 -0.3001  0.1399
  143SAPE  H17R15681   3.968   5.804   9.546 -1.2460  0.1996  1.2360
  143SAPE  H17S15682   4.032   5.644   9.526 -1.5562 -0.3652 -0.3595
  143SAPE  C21815683   4.094   5.740   9.710  0.3307  0.3057 -0.0917
  143SAPE  H18R15684   4.111   5.667   9.793  1.5422  2.5086  1.7130
  143SAPE  H18S15685   4.063   5.830   9.767  0.7172 -0.0630  0.7240
  143SAPE  C21915686   4.226   5.777   9.644  0.4250  0.0854 -0.0771
  143SAPE  H19R15687   4.211   5.867   9.581 -0.6464  0.9384  1.3295
  143SAPE  H19S15688   4.263   5.690   9.586 -0.2383 -0.0261 -0.3378
  143SAPE  C22015689   4.340   5.800   9.744  0.6649 -0.0407 -1.1114
  143SAPE  H20R15690   4.433   5.811   9.684  1.8600  2.4159  1.0251
  143SAPE  H20S15691   4.349   5.705   9.801  3.3723 -0.1840 -1.6153
  143SAPE  H20T15692   4.316   5.876   9.821  1.1412 -0.3993 -0.6052
  143SAPE   C3315693   4.631   5.323  10.503 -0.4760  0.5551  0.1045
  143SAPE   H3X15694   4.612   5.217  10.531 -0.4445  0.2090 -1.1392
  143SAPE   H3Y15695   4.725   5.359  10.550  0.4630 -1.6254  0.0328
  143SAPE   C3415696   4.651   5.324  10.349  0.1935  0.4800  0.3206
  143SAPE   H4X15697   4.746   5.279  10.312  0.8536  2.2244 -0.2374
  143SAPE   H4Y15698   4.653   5.430  10.316  3.6642  0.4233 -0.0543
  143SAPE   C3515699   4.531   5.260  10.280  0.5773  1.0794 -0.5252
  143SAPE   H5X15700   4.438   5.315  10.304  0.5301  0.3459  1.0822
  143SAPE   H5Y15701   4.520   5.156  10.317  0.9540  0.3619 -2.3172
  143SAPE   C3615702   4.545   5.246  10.133  0.4186 -0.3533 -0.4391
  143SAPE   H6X15703   4.468   5.171  10.105  0.1368  0.3134 -1.5121
  143SAPE   H6Y15704   4.643   5.201  10.107 -0.2850 -2.3823  0.2387
  143SAPE   C3715705   4.540   5.372  10.046  0.1833  0.0674 -0.3179
  143SAPE   H7X15706   4.643   5.413  10.056 -0.2798  1.7251 -1.7583
  143SAPE   H7Y15707   4.461   5.444  10.078 -1.2514 -2.1118  1.3157
  143SAPE   C3815708   4.502   5.350   9.901  0.5367  0.1723  0.1109
  143SAPE   H8X15709   4.392   5.347   9.886  0.7778 -0.4946 -1.8222
  143SAPE   H8Y15710   4.539   5.251   9.866 -0.4717 -0.2995  0.3349
  143SAPE   C3915711   4.569   5.446   9.810 -0.8282 -0.7568 -0.0776
  143SAPE   H9X15712   4.583   5.544   9.862  0.6466 -1.2349  0.4922
  143SAPE   H9Y15713   4.511   5.460   9.717  1.1783 -0.6059 -1.3599
  143SAPE  C31015714   4.713   5.396   9.755  0.9113 -0.0542 -0.2735
  143SAPE  H10X15715   4.696   5.308   9.690  0.3821 -0.1561 -0.0031
  143SAPE  H10Y15716   4.778   5.363   9.840  0.1657  0.3892  0.4858
  143SAPE  C31115717   4.793   5.507   9.683 -0.1602  0.3766  0.0766
  143SAPE  H11X15718   4.888   5.463   9.647 -0.3772 -1.0148  1.0761
  143SAPE  H11Y15719   4.819   5.592   9.749  3.6165  0.3047 -1.1014
  143SAPE  C31215720   4.721   5.571   9.558  0.1732 -0.0523 -0.1453
  143SAPE  H12X15721   4.788   5.644   9.509  0.5868 -1.5879 -2.0127
  143SAPE  H12Y15722   4.631   5.622   9.597  1.3886  1.7948  0.3628
  143SAPE  C31315723   4.710   5.465   9.448  0.0683 -0.1072 -0.0200
  143SAPE  H13X15724   4.749   5.365   9.478 -0.7937 -0.2002  0.8535
  143SAPE  H13Y15725   4.770   5.497   9.361  0.2266  0.7990  0.4164
  143SAPE  C31415726   4.569   5.440   9.393  0.7535 -0.4048  0.1013
  143SAPE  H14X15727   4.501   5.409   9.475  1.7128 -0.5098  0.8706
  143SAPE  H14Y15728   4.562   5.369   9.307  1.5247 -2.4344  1.6286
  143SAPE  C31515729   4.487   5.564   9.351 -0.3554 -0.3566  0.1908
  143SAPE  H15X15730   4.554   5.622   9.283 -1.0992 -3.0110 -3.0960
  143SAPE  H15Y15731   4.469   5.615   9.448  2.1331  0.8269  0.1233
  143SAPE  C31615732   4.352   5.555   9.283  0.2289 -0.3425 -0.2768
  143SAPE  H16X15733   4.273   5.527   9.356  1.5654  1.1259  1.8563
  143SAPE  H16Y15734   4.337   5.486   9.198 -1.8131  0.6593 -0.7752
  143SAPE  C31715735   4.306   5.695   9.220 -0.4160 -0.0827  0.4610
  143SAPE  H17X15736   4.219   5.670   9.155  1.1857 -0.6825 -1.5239
  143SAPE  H17Y15737   4.385   5.730   9.151 -1.3247 -0.8134 -0.9956
  143SAPE  C31815738   4.267   5.798   9.324 -0.4298  0.4578 -0.2586
  143SAPE  H18X15739   4.343   5.822   9.401  0.6230  0.7295 -1.3447
  143SAPE  H18Y15740   4.178   5.756   9.376  0.5799 -0.7142  0.5722
  143SAPE  H18Z15741   4.233   5.892   9.274  1.0683  1.6538  0.8586
  144SAPE     N15742   0.879   4.448  11.162  0.2954  1.0262 -0.2143
  144SAPE   HN115743   0.971   4.422  11.121 -0.8544 -0.9027 -1.7027
  144SAPE   HN215744   0.859   4.540  11.117  0.9725  0.6009 -1.4284
  144SAPE   HN315745   0.881   4.456  11.266  0.5782 -2.3909  0.1546
  144SAPE   C1215746   0.789   4.336  11.108  0.2358 -0.0678  0.4098
  144SAPE  H12A15747   0.687   4.344  11.150 -0.1728 -0.2574 -0.5117
  144SAPE  H12B15748   0.845   4.246  11.142  2.4472  1.9340  2.4157
  144SAPE   C1115749   0.776   4.336  10.958 -0.2549 -0.2328 -0.3587
  144SAPE  H11A15750   0.727   4.243  10.921 -0.6546 -0.0638 -0.2629
  144SAPE  H11B15751   0.878   4.337  10.915  0.5324  1.1111  1.4210
  144SAPE     P15752   0.559   4.448  10.859  0.4091  0.1525  0.3882
  144SAPE   O1315753   0.499   4.315  10.883  0.2829  0.2348 -0.0723
  144SAPE   O1415754   0.480   4.559  10.919  0.1352  0.3381  0.2720
  144SAPE   O1215755   0.710   4.458  10.911  0.0449 -0.0519 -0.0515
  144SAPE   O1115756   0.572   4.487  10.709 -0.0480  0.3791  0.6292
  144SAPE    C115757   0.653   4.603  10.675  0.2608  0.8606 -0.1734
  144SAPE    HA15758   0.635   4.681  10.752  1.6422  0.1811  0.8962
  144SAPE    HB15759   0.760   4.580  10.693 -0.2339 -0.8700  0.8190
  144SAPE    C215760   0.610   4.659  10.533  0.2233 -0.2304  0.2467
  144SAPE    HS15761   0.502   4.685  10.539  0.4540  0.9760 -0.5410
  144SAPE   O2115762   0.633   4.562  10.428  0.5278  0.0480  0.2253
  144SAPE   C2115763   0.550   4.565  10.326 -0.7931 -0.3842  0.2246
  144SAPE   O2215764   0.445   4.633  10.317 -0.3945  0.4596 -1.3843
  144SAPE   C2215765   0.610   4.482  10.203  0.5723 -0.7131  0.3788
  144SAPE   H2R15766   0.713   4.513  10.175 -0.3731  0.2351 -2.4169
  144SAPE   H2S15767   0.612   4.378  10.240 -0.5457 -0.8581  0.0571
  144SAPE    C315768   0.697   4.789  10.499  0.7408 -0.2629 -0.1701
  144SAPE    HX15769   0.793   4.734  10.486  1.1136  0.5782 -1.0958
  144SAPE    HY15770   0.716   4.857  10.584  2.6144  1.1378 -1.6328
  144SAPE   O3115771   0.667   4.856  10.377  0.1025  0.6755  0.1289
  144SAPE   C3115772   0.553   4.929  10.379  0.6573  0.2940 -0.7098
  144SAPE   O3215773   0.494   4.964  10.480 -0.1803  0.5431  0.3015
  144SAPE   C3215774   0.523   4.977  10.244 -0.0660  0.5548 -0.7750
  144SAPE   H2X15775   0.457   4.896  10.206  1.0494 -1.5010  1.4066
  144SAPE   H2Y15776   0.613   4.985  10.179  2.2205 -1.4588  1.9235
  144SAPE   C2315777   0.526   4.503  10.071 -0.4420 -1.2402 -0.3659
  144SAPE   H3R15778   0.504   4.612  10.069  0.4608 -1.0094  0.6051
  144SAPE   H3S15779   0.427   4.454  10.081 -0.7093 -0.7001 -0.3607
  144SAPE   C2415780   0.596   4.473   9.937 -0.3425  0.1520  0.1669
  144SAPE   H4R15781   0.700   4.508   9.950  0.5415 -1.9393 -0.7827
  144SAPE   H4S15782   0.545   4.537   9.861  0.5766  0.4334 -0.2274
  144SAPE   C2515783   0.583   4.323   9.896 -0.8285  0.0016 -0.4447
  144SAPE   H5R15784   0.571   4.256   9.983  0.8453 -0.5378 -0.5920
  144SAPE   C2615785   0.599   4.273   9.771  0.2269  0.0926  0.5590
  144SAPE   H6R15786   0.597   4.166   9.747  1.5298  0.1634  0.0983
  144SAPE   C2715787   0.642   4.359   9.650 -0.1378  0.1949  0.4116
  144SAPE   H7R15788   0.595   4.459   9.655 -2.6017 -0.6451 -2.7827
  144SAPE   H7S15789   0.602   4.318   9.555  1.4159  0.7947 -0.5334
  144SAPE   C2815790   0.785   4.390   9.632 -0.3749 -0.1263 -0.0309
  144SAPE   H8R15791   0.844   4.384   9.724 -0.7906 -1.3687  0.1734
  144SAPE   C2915792   0.840   4.447   9.523  0.2617  0.2063  0.3981
  144SAPE   H9R15793   0.945   4.480   9.520  0.1752  0.4927  0.5097
  144SAPE  C21015794   0.771   4.476   9.383 -0.8412  0.1484 -0.7395
  144SAPE  H10R15795   0.714   4.384   9.359  0.5319 -1.0417  0.3572
  144SAPE  H10S15796   0.844   4.484   9.299 -0.6978 -0.2504 -0.6521
  144SAPE  C21115797   0.685   4.601   9.386 -0.3931 -0.3820  0.0753
  144SAPE  H11R15798   0.659   4.644   9.484  2.0281 -0.7518  0.9652
  144SAPE  C21215799   0.638   4.654   9.276 -0.2138 -0.1904  0.1607
  144SAPE  H12R15800   0.570   4.740   9.281 -0.0713  0.0888 -1.9524
  144SAPE  C21315801   0.655   4.599   9.134  0.9988  0.3616  0.0336
  144SAPE  H13R15802   0.689   4.494   9.139 -1.6062 -0.5630 -0.0804
  144SAPE  H13S15803   0.743   4.651   9.090  0.8653  0.5066 -0.0619
  144SAPE  C21415804   0.522   4.608   9.056  0.2021  0.8217 -0.4569
  144SAPE  H14R15805   0.433   4.551   9.088  1.7074 -0.4510  1.7390
  144SAPE  C21515806   0.502   4.682   8.947  0.0426  0.3631  0.4252
  144SAPE  H15R15807   0.396   4.689   8.917 -0.1298  0.7846  1.1041
  144SAPE  C21615808   0.605   4.768   8.872 -0.0190 -0.3257 -0.2484
  144SAPE  H16R15809   0.701   4.765   8.927 -0.0397  1.4392 -0.0700
  144SAPE  H16S15810   0.562   4.869   8.859 -0.7497 -0.5731  0.1641
  144SAPE  C21715811   0.639   4.712   8.730 -0.3264  0.7551  0.5936
  144SAPE  H17R15812   0.547   4.695   8.670 -1.0943  1.5566  1.5143
  144SAPE  H17S15813   0.676   4.609   8.750 -0.2175  0.4968 -0.8253
  144SAPE  C21815814   0.742   4.794   8.655  0.2270 -0.2428 -0.7076
  144SAPE  H18R15815   0.743   4.767   8.547  0.2160 -0.9967 -0.5179
  144SAPE  H18S15816   0.846   4.767   8.684  0.2067 -0.4934 -0.8652
  144SAPE  C21915817   0.727   4.947   8.665 -0.4554 -0.5481 -0.2609
  144SAPE  H19R15818   0.822   4.988   8.626  0.0758 -0.8304  0.6848
  144SAPE  H19S15819   0.732   4.980   8.771  0.1138 -1.5770  0.0506
  144SAPE  C22015820   0.616   4.999   8.585  0.4892  0.4806 -0.2319
  144SAPE  H20R15821   0.521   4.952   8.617  1.2018 -1.2259 -0.5455
  144SAPE  H20S15822   0.633   4.980   8.477  2.9550  0.6213  0.0803
  144SAPE  H20T15823   0.604   5.107   8.609 -0.3040  0.4207 -0.3400
  144SAPE   C3315824   0.451   5.114  10.231 -0.0511 -0.0214 -0.4332
  144SAPE   H3X15825   0.529   5.181  10.273  0.6152 -1.9168  1.5472
  144SAPE   H3Y15826   0.363   5.114  10.298  0.2407 -2.2813  0.0450
  144SAPE   C3415827   0.407   5.166  10.099  0.2642  0.3573 -0.7899
  144SAPE   H4X15828   0.501   5.161  10.040  0.7831 -0.9414  0.1022
  144SAPE   H4Y15829   0.367   5.270  10.097  3.2632  1.6931  1.2709
  144SAPE   C3515830   0.298   5.079  10.032  0.0808 -0.7564 -1.3827
  144SAPE   H5X15831   0.205   5.055  10.089  0.8857 -0.1450  0.2339
  144SAPE   H5Y15832   0.349   4.982  10.010  0.9671 -0.7546  0.5086
  144SAPE   C3615833   0.268   5.125   9.886  0.6483 -0.0176 -0.3312
  144SAPE   H6X15834   0.225   5.039   9.831 -0.0215  1.9647 -3.0583
  144SAPE   H6Y15835   0.369   5.150   9.846  2.5959  1.1025  4.4897
  144SAPE   C3715836   0.172   5.240   9.869 -0.0310  0.1279  0.5457
  144SAPE   H7X15837   0.204   5.338   9.912  3.1533 -0.4908 -0.1499
  144SAPE   H7Y15838   0.078   5.207   9.918 -0.0094 -0.7385  0.0186
  144SAPE   C3815839   0.125   5.250   9.726 -0.8907  0.2599  0.0829
  144SAPE   H8X15840   0.086   5.155   9.683  1.9093 -1.1168  0.3129
  144SAPE   H8Y15841   0.214   5.289   9.672  0.4345 -0.5635  1.5785
  144SAPE   C3915842   0.020   5.359   9.704 -0.7100  0.7042  0.1422
  144SAPE   H9X15843   0.049   5.457   9.748  1.6133  0.5473 -0.9282
  144SAPE   H9Y15844  -0.074   5.314   9.744 -1.0694 -0.1014 -1.5328
  144SAPE  C31015845   0.004   5.401   9.558 -0.3276 -0.6587  0.3299
  144SAPE  H10X15846   0.105   5.439   9.530 -1.2718  2.7905  1.1829
  144SAPE  H10Y15847  -0.079   5.474   9.566 -0.6042 -1.0320  0.9236
  144SAPE  C31115848  -0.028   5.286   9.463 -0.3085  0.2964  0.2278
  144SAPE  H11X15849  -0.125   5.246   9.497  0.0547 -0.0784  0.8434
  144SAPE  H11Y15850   0.041   5.200   9.458 -0.3381  0.2382  0.8067
  144SAPE  C31215851  -0.048   5.348   9.321  0.1323  0.8111 -0.4322
  144SAPE  H12X15852   0.054   5.390   9.310  1.4626 -2.1216 -0.3179
  144SAPE  H12Y15853  -0.118   5.434   9.310  1.9625  2.4337  0.0921
  144SAPE  C31315854  -0.076   5.236   9.218  0.2115 -0.0154  0.0795
  144SAPE  H13X15855  -0.162   5.170   9.240  0.3117 -0.0345  0.4091
  144SAPE  H13Y15856   0.016   5.176   9.199  0.1046  0.7127 -3.4369
  144SAPE  C31415857  -0.108   5.301   9.080  0.3812 -0.2131  0.2659
  144SAPE  H14X15858  -0.191   5.373   9.095  0.3474  0.1340 -1.3665
  144SAPE  H14Y15859  -0.134   5.225   9.003 -1.0148  0.3749  0.1211
  144SAPE  C31515860   0.011   5.382   9.021  0.2219 -0.5689  1.1417
  144SAPE  H15X15861   0.109   5.332   9.039 -0.3644 -1.2490  2.5870
  144SAPE  H15Y15862   0.025   5.466   9.092  1.7859  0.0143  0.2013
  144SAPE  C31615863  -0.027   5.453   8.891  0.2848 -0.6392  0.6563
  144SAPE  H16X15864   0.041   5.538   8.870 -0.7610 -0.3144 -1.6571
  144SAPE  H16Y15865  -0.127   5.500   8.901  0.8612  1.0015 -0.8294
  144SAPE  C31715866  -0.022   5.359   8.767  0.0122  0.2060  0.8089
  144SAPE  H17X15867  -0.087   5.397   8.685 -0.2630 -0.0323  0.9144
  144SAPE  H17Y15868  -0.062   5.258   8.795 -1.1784  0.3533 -0.2513
  144SAPE  C31815869   0.122   5.329   8.707 -0.3042  0.1424  0.0802
  144SAPE  H18X15870   0.169   5.429   8.702 -1.9191  0.8655 -1.1793
  144SAPE  H18Y15871   0.111   5.289   8.604 -0.4747  0.0085  0.1509
  144SAPE  H18Z15872   0.176   5.262   8.778 -0.8117  1.0337  1.3350
  145SAPE     N15873   1.771   3.458  11.166  0.0996 -0.5308  0.6592
  145SAPE   HN115874   1.853   3.508  11.206  1.6961 -0.8403 -1.9882
  145SAPE   HN215875   1.683   3.491  11.211 -0.4749 -1.4785  0.2740
  145SAPE   HN315876   1.784   3.359  11.195  1.5663 -0.5163  0.1337
  145SAPE   C1215877   1.738   3.491  11.019  0.2155  0.0969 -0.5908
  145SAPE  H12A15878   1.679   3.585  11.024 -0.1216 -0.1074 -0.7040
  145SAPE  H12B15879   1.665   3.415  10.985 -0.5841 -0.3978  2.0067
  145SAPE   C1115880   1.863   3.519  10.935 -0.4032  0.4024  0.1509
  145SAPE  H11A15881   1.828   3.557  10.837 -0.7566 -0.2050  0.0398
  145SAPE  H11B15882   1.918   3.423  10.922 -1.5598 -0.0068 -2.3386
  145SAPE     P15883   1.932   3.774  10.990 -0.0061  0.3605  0.3051
  145SAPE   O1315884   1.793   3.807  11.009  0.5937  0.1549 -0.1171
  145SAPE   O1415885   2.022   3.836  11.089 -0.0963  0.3032  0.2895
  145SAPE   O1215886   1.949   3.615  11.003 -0.2647  0.4983  0.0603
  145SAPE   O1115887   1.980   3.808  10.844 -0.2835 -0.3526  0.8776
  145SAPE    C115888   2.106   3.758  10.796  0.7722  0.0640  0.4773
  145SAPE    HA15889   2.189   3.799  10.858 -0.2309 -0.0088  1.9146
  145SAPE    HB15890   2.117   3.648  10.808  0.1650 -0.1137 -0.5267
  145SAPE    C215891   2.127   3.804  10.651 -0.6234 -0.0481  0.0668
  145SAPE    HS15892   2.225   3.765  10.618  0.3237  1.9992  0.3182
  145SAPE   O2115893   2.124   3.950  10.640 -0.3032  0.0809  0.5134
  145SAPE   C2115894   2.237   4.014  10.674  0.8329  0.3293 -0.5914
  145SAPE   O2215895   2.330   3.965  10.733  0.2736  0.0504  0.4357
  145SAPE   C2215896   2.227   4.159  10.634 -0.2376  0.0820 -0.1568
  145SAPE   H2R15897   2.120   4.190  10.637  0.3779  2.3017  1.7978
  145SAPE   H2S15898   2.274   4.232  10.703 -2.3783  1.3501  0.0572
  145SAPE    C315899   2.024   3.735  10.551 -0.1805  0.2983  0.4155
  145SAPE    HX15900   1.921   3.739  10.591 -0.0117  1.2590  0.7761
  145SAPE    HY15901   2.050   3.627  10.552 -0.9260  0.0388 -1.8241
  145SAPE   O3115902   2.040   3.763  10.409  0.6343  0.1508  0.7395
  145SAPE   C3115903   1.949   3.842  10.358  0.8544  0.2040  0.1885
  145SAPE   O3215904   1.850   3.879  10.413  0.3293  0.0298 -0.1589
  145SAPE   C3215905   1.989   3.882  10.207  0.0836  0.4982  0.1785
  145SAPE   H2X15906   1.990   3.785  10.153 -2.6414  1.7306 -2.3787
  145SAPE   H2Y15907   2.092   3.921  10.221 -0.2767  1.4547  0.1917
  145SAPE   C2315908   2.278   4.184  10.490  0.2462  0.1618  0.4623
  145SAPE   H3R15909   2.386   4.158  10.485  0.3194  0.3157  1.1141
  145SAPE   H3S15910   2.270   4.294  10.474 -0.8584 -0.1816 -1.6727
  145SAPE   C2415911   2.195   4.114  10.381 -0.2622 -0.6450 -0.1408
  145SAPE   H4R15912   2.090   4.112  10.416 -0.0558 -0.2564  0.5130
  145SAPE   H4S15913   2.227   4.008  10.386  1.7123 -0.0509  0.7828
  145SAPE   C2515914   2.222   4.179  10.243  1.0710  0.5424 -0.9123
  145SAPE   H5R15915   2.167   4.272  10.228  0.6228  0.0925 -2.1602
  145SAPE   C2615916   2.303   4.131  10.147 -0.6492 -0.3066  0.5381
  145SAPE   H6R15917   2.315   4.188  10.054  2.4004  0.4216  1.2603
  145SAPE   C2715918   2.384   3.999  10.146  0.2790  0.1277 -0.5291
  145SAPE   H7R15919   2.374   3.945  10.243 -2.3367  0.5602 -0.4863
  145SAPE   H7S15920   2.491   4.025  10.134  0.2092  0.6561 -0.0378
  145SAPE   C2815921   2.346   3.904  10.032 -0.8331  0.0427  0.6646
  145SAPE   H8R15922   2.296   3.814  10.072 -1.3926  1.0115  2.2567
  145SAPE   C2915923   2.373   3.907   9.899  0.3662 -0.7300 -0.1634
  145SAPE   H9R15924   2.340   3.823   9.838  1.3887 -1.5644  0.4011
  145SAPE  C21015925   2.438   4.015   9.814 -0.0036 -0.0255  0.1499
  145SAPE  H10R15926   2.533   3.971   9.777  1.4757  1.6131  1.8371
  145SAPE  H10S15927   2.470   4.103   9.873 -3.4333  0.8139  0.9664
  145SAPE  C21115928   2.328   4.050   9.710  0.0866 -0.3181 -0.4718
  145SAPE  H11R15929   2.229   4.064   9.754  1.0653 -0.7298  1.9980
  145SAPE  C21215930   2.344   4.080   9.581  0.1443 -0.2485 -0.6764
  145SAPE  H12R15931   2.261   4.118   9.519  1.6913  1.5453 -1.7354
  145SAPE  C21315932   2.485   4.079   9.516  0.7310 -0.3799  0.1168
  145SAPE  H13R15933   2.567   4.118   9.581  0.1637  0.8403  0.1387
  145SAPE  H13S15934   2.496   4.153   9.433  0.4120  0.0622  0.4580
  145SAPE  C21415935   2.523   3.943   9.476 -0.3344  0.0515  0.5783
  145SAPE  H14R15936   2.538   3.875   9.561 -1.6406 -1.8769 -0.6264
  145SAPE  C21515937   2.555   3.900   9.348  0.1015 -0.4001 -0.3232
  145SAPE  H15R15938   2.581   3.793   9.342  1.5652 -0.0606 -0.4789
  145SAPE  C21615939   2.559   3.989   9.228  0.2266  0.5313 -0.0291
  145SAPE  H16R15940   2.598   4.087   9.265  1.2138  0.0888  0.1442
  145SAPE  H16S15941   2.453   4.001   9.200 -0.1902 -0.2763  1.1363
  145SAPE  C21715942   2.642   3.948   9.104 -0.2575  0.3884 -0.0865
  145SAPE  H17R15943   2.605   3.851   9.063  0.8625  0.4321 -1.2714
  145SAPE  H17S15944   2.749   3.944   9.135  0.0543 -0.8146 -1.2110
  145SAPE  C21815945   2.623   4.053   8.992 -0.0095 -0.2013  0.0738
  145SAPE  H18R15946   2.623   4.147   9.050  2.2386  1.1359 -1.8887
  145SAPE  H18S15947   2.518   4.059   8.956  0.5870  2.0783 -1.5068
  145SAPE  C21915948   2.719   4.050   8.874 -0.1982 -0.2487  0.3199
  145SAPE  H19R15949   2.699   3.964   8.807  0.8426 -0.0164 -0.3126
  145SAPE  H19S15950   2.822   4.059   8.915 -0.8249  3.2397  1.4822
  145SAPE  C22015951   2.695   4.173   8.789 -0.2572 -0.6127 -0.1386
  145SAPE  H20R15952   2.763   4.186   8.702 -0.1130 -1.7003 -0.2104
  145SAPE  H20S15953   2.707   4.261   8.856 -3.5304  0.0269 -0.2474
  145SAPE  H20T15954   2.591   4.172   8.752 -0.7429  0.6565  1.1207
  145SAPE   C3315955   1.891   3.976  10.134 -0.2391  0.0930 -0.6755
  145SAPE   H3X15956   1.901   4.078  10.176 -2.8528  0.1394  0.0280
  145SAPE   H3Y15957   1.784   3.946  10.146  0.0534 -0.2943  1.5674
  145SAPE   C3415958   1.925   3.991   9.990  0.0439 -0.9542 -0.2705
  145SAPE   H4X15959   2.032   4.021   9.980 -0.0275 -0.6545 -0.1431
  145SAPE   H4Y15960   1.870   4.075   9.943  0.7959  1.1207  2.2788
  145SAPE   C3515961   1.903   3.865   9.907  0.7319  0.4389 -0.0191
  145SAPE   H5X15962   1.797   3.835   9.917  0.6344  0.2887 -1.4142
  145SAPE   H5Y15963   1.945   3.772   9.951 -0.4625  0.4110  1.1289
  145SAPE   C3615964   1.955   3.873   9.758  0.0371  0.2968  0.8207
  145SAPE   H6X15965   2.056   3.828   9.753  0.2771  0.9169 -0.1533
  145SAPE   H6Y15966   1.971   3.981   9.738  0.4161 -0.3513 -3.4159
  145SAPE   C3715967   1.857   3.821   9.652 -0.8647 -0.3799 -0.0435
  145SAPE   H7X15968   1.778   3.899   9.642 -0.4714 -0.1524 -1.7587
  145SAPE   H7Y15969   1.808   3.730   9.692  1.5193 -2.5971 -1.8818
  145SAPE   C3815970   1.923   3.791   9.516  0.6737 -0.0438  0.1796
  145SAPE   H8X15971   2.004   3.717   9.525  2.4002  2.0332  3.7061
  145SAPE   H8Y15972   1.982   3.882   9.491  1.0543 -0.1467  0.6980
  145SAPE   C3915973   1.819   3.773   9.405  0.4153  0.2519  0.3585
  145SAPE   H9X15974   1.747   3.857   9.396 -1.1415 -1.1000 -0.5874
  145SAPE   H9Y15975   1.761   3.681   9.428  0.8495 -0.2609 -0.5343
  145SAPE  C31015976   1.900   3.740   9.273  0.8150  0.5449  0.3465
  145SAPE  H10X15977   1.906   3.629   9.263  1.0474  0.7474 -3.0151
  145SAPE  H10Y15978   2.001   3.785   9.270  1.0109  0.0726 -0.5236
  145SAPE  C31115979   1.814   3.798   9.155 -0.1170  0.5148 -0.0518
  145SAPE  H11X15980   1.820   3.908   9.171 -0.9127  0.8017 -1.5855
  145SAPE  H11Y15981   1.708   3.773   9.175  0.0866  0.6071  1.2782
  145SAPE  C31215982   1.875   3.757   9.016  0.7424 -0.2092  0.1524
  145SAPE  H12X15983   1.913   3.653   9.026 -1.2346 -0.9497  0.4885
  145SAPE  H12Y15984   1.959   3.827   8.999 -1.0795  1.5156 -2.5467
  145SAPE  C31315985   1.765   3.765   8.907  0.3877 -0.7380  0.1925
  145SAPE  H13X15986   1.814   3.781   8.809  0.9852  0.2793  0.6443
  145SAPE  H13Y15987   1.704   3.854   8.933 -0.0427 -0.2500 -2.2269
  145SAPE  C31415988   1.686   3.640   8.913  0.5115  0.4785  0.4942
  145SAPE  H14X15989   1.634   3.637   9.011 -1.4443 -4.1933 -0.4323
  145SAPE  H14Y15990   1.748   3.547   8.913 -0.8824 -0.5994 -2.6622
  145SAPE  C31515991   1.573   3.645   8.807  0.4454 -0.2519  0.3335
  145SAPE  H15X15992   1.598   3.729   8.739  0.0244 -0.2850  0.1399
  145SAPE  H15Y15993   1.473   3.657   8.853  0.3331 -1.9429  0.6163
  145SAPE  C31615994   1.568   3.514   8.725 -0.5774  0.1757 -0.1195
  145SAPE  H16X15995   1.551   3.442   8.808  0.7230  1.0567  0.9626
  145SAPE  H16Y15996   1.666   3.500   8.675 -0.6295 -0.1067 -0.1428
  145SAPE  C31715997   1.464   3.521   8.606 -0.3134 -0.0612 -0.4270
  145SAPE  H17X15998   1.509   3.567   8.515 -0.5866  4.2128  1.3498
  145SAPE  H17Y15999   1.385   3.586   8.648  1.5319  0.7708  2.0173
  145SAPE  C31816000   1.399   3.389   8.575  0.3418  0.0525  0.0496
  145SAPE  H18X16001   1.328   3.398   8.490  1.3740  0.6128 -0.7730
  145SAPE  H18Y16002   1.333   3.356   8.658  0.3662  0.2986  0.1694
  145SAPE  H18Z16003   1.468   3.304   8.559 -0.8132 -0.6125 -1.6355
  146SAPE     N16004   1.076   4.591  10.739 -0.2039  0.3687  0.5270
  146SAPE   HN116005   0.993   4.615  10.797  0.5099 -0.2072  1.8281
  146SAPE   HN216006   1.073   4.492  10.706 -0.4613  0.7587 -0.6711
  146SAPE   HN316007   1.157   4.593  10.803 -0.0424 -2.3488  0.5128
  146SAPE   C1216008   1.090   4.677  10.617  0.0022  0.2573  0.2147
  146SAPE  H12A16009   1.010   4.661  10.542  1.0536  0.4143 -0.9807
  146SAPE  H12B16010   1.185   4.635  10.577  0.4797  1.0027  0.5583
  146SAPE   C1116011   1.104   4.825  10.657 -0.3960 -0.7164  1.2195
  146SAPE  H11A16012   1.152   4.885  10.577 -2.3293 -0.4849  0.1620
  146SAPE  H11B16013   1.176   4.831  10.740  1.4391  0.3054 -0.3686
  146SAPE     P16014   0.973   5.007  10.770  0.4989  0.4532 -0.6808
  146SAPE   O1316015   0.903   4.978  10.899  0.1406  0.6320  0.0945
  146SAPE   O1416016   1.110   5.063  10.780  0.2644 -0.0444  0.2285
  146SAPE   O1216017   0.975   4.873  10.689  0.2027 -0.2410 -0.0637
  146SAPE   O1116018   0.891   5.111  10.681 -0.3585  0.0596 -0.0342
  146SAPE    C116019   0.948   5.226  10.610 -0.7540  0.0993  0.9756
  146SAPE    HA16020   0.901   5.324  10.632  0.6533  1.5388 -1.8676
  146SAPE    HB16021   1.057   5.233  10.630  0.0184 -1.3389 -2.1148
  146SAPE    C216022   0.928   5.216  10.453  0.4298 -0.0805  0.4950
  146SAPE    HS16023   0.821   5.186  10.448  0.8673 -1.4981 -1.3273
  146SAPE   O2116024   1.024   5.119  10.404  0.2487 -0.5412 -0.0043
  146SAPE   C2116025   0.979   5.051  10.307 -0.0207 -0.3551  0.3783
  146SAPE   O2216026   0.873   5.068  10.243 -0.3932 -0.2613 -0.7635
  146SAPE   C2216027   1.078   4.936  10.285  0.0623 -0.2382 -0.4174
  146SAPE   H2R16028   1.144   4.915  10.371 -0.8979 -3.0343 -0.2705
  146SAPE   H2S16029   1.014   4.846  10.271  0.1619 -0.4301  0.3315
  146SAPE    C316030   0.948   5.360  10.393 -0.1012 -0.5799 -0.1025
  146SAPE    HX16031   1.054   5.390  10.405 -0.5814  2.3429 -2.2013
  146SAPE    HY16032   0.894   5.438  10.451  0.5393 -0.5364  0.4433
  146SAPE   O3116033   0.936   5.376  10.250 -0.0209  0.3676 -0.2112
  146SAPE   C3116034   0.801   5.378  10.220  0.5510 -0.3964 -0.2007
  146SAPE   O3216035   0.708   5.375  10.303  0.0744  0.8015  0.1455
  146SAPE   C3216036   0.789   5.401  10.073 -0.5263  0.3593 -0.4770
  146SAPE   H2X16037   0.772   5.305  10.020 -2.3559 -0.8523  2.1463
  146SAPE   H2Y16038   0.881   5.453  10.036 -0.9227  1.1668 -0.3545
  146SAPE   C2316039   1.147   4.951  10.150 -0.4732 -0.6239  0.4663
  146SAPE   H3R16040   1.079   4.965  10.063 -1.4764 -1.4805  1.0927
  146SAPE   H3S16041   1.205   4.858  10.136 -0.0841 -0.0805 -2.0798
  146SAPE   C2416042   1.246   5.074  10.150 -0.4994  0.3812  0.1827
  146SAPE   H4R16043   1.187   5.163  10.178  2.5918  2.2259  1.4192
  146SAPE   H4S16044   1.272   5.097  10.044 -0.3045 -0.5734  0.0091
  146SAPE   C2516045   1.364   5.054  10.247 -0.1168 -0.8405  1.0270
  146SAPE   H5R16046   1.353   4.991  10.336 -2.5012  0.2903  1.6391
  146SAPE   C2616047   1.491   5.109  10.235  0.1932 -1.4842  0.8846
  146SAPE   H6R16048   1.568   5.088  10.311  0.8829  1.1950  1.0432
  146SAPE   C2716049   1.547   5.188  10.118 -0.3056  0.5634  0.9325
  146SAPE   H7R16050   1.601   5.278  10.155 -3.8570  3.9972 -1.4181
  146SAPE   H7S16051   1.471   5.232  10.051  1.6590 -0.5988 -2.2911
  146SAPE   C2816052   1.647   5.099  10.034  0.6599 -0.3354 -0.3475
  146SAPE   H8R16053   1.701   5.025  10.095  4.7459  2.0878 -0.7070
  146SAPE   C2916054   1.664   5.106   9.899 -0.0943  0.0169  0.1045
  146SAPE   H9R16055   1.740   5.037   9.859 -0.7168 -0.5115 -0.1835
  146SAPE  C21016056   1.607   5.214   9.811  0.2760 -0.0246  0.9851
  146SAPE  H10R16057   1.688   5.277   9.768  1.4744 -1.5539  0.9026
  146SAPE  H10S16058   1.561   5.293   9.874  1.5506  1.4135  0.2087
  146SAPE  C21116059   1.514   5.171   9.711 -0.1261  0.0174 -0.1193
  146SAPE  H11R16060   1.415   5.142   9.750  0.1676  0.5800  1.0708
  146SAPE  C21216061   1.548   5.138   9.581  0.2389  0.6373 -0.7869
  146SAPE  H12R16062   1.468   5.084   9.527 -0.5408 -0.2440  1.1302
  146SAPE  C21316063   1.678   5.159   9.511  0.2073 -0.1417 -0.1844
  146SAPE  H13R16064   1.688   5.065   9.453 -1.3120  0.8016 -2.1093
  146SAPE  H13S16065   1.758   5.160   9.588  0.8789 -0.1712 -0.8788
  146SAPE  C21416066   1.682   5.280   9.429  0.7153  0.4350  0.4763
  146SAPE  H14R16067   1.647   5.375   9.472  1.3175  1.3706 -1.0331
  146SAPE  C21516068   1.727   5.289   9.300 -0.3039 -0.1563 -0.4003
  146SAPE  H15R16069   1.723   5.385   9.245  1.4241  0.1237 -0.0891
  146SAPE  C21616070   1.790   5.183   9.213 -0.1628 -0.1983  0.0009
  146SAPE  H16R16071   1.736   5.086   9.226  0.5398 -0.8241 -1.4192
  146SAPE  H16S16072   1.895   5.160   9.240 -0.3028  1.9899  2.7486
  146SAPE  C21716073   1.800   5.207   9.062  0.3008 -0.0594 -0.6580
  146SAPE  H17R16074   1.859   5.296   9.033 -0.4025  0.2382 -1.2029
  146SAPE  H17S16075   1.702   5.231   9.015  0.4120 -1.3286 -1.5938
  146SAPE  C21816076   1.842   5.079   8.991  0.0185 -0.3602  0.0862
  146SAPE  H18R16077   1.782   4.988   9.016 -1.2842  0.5691  0.4204
  146SAPE  H18S16078   1.941   5.042   9.026  1.3063  2.0063 -0.8168
  146SAPE  C21916079   1.856   5.109   8.834  0.7561  0.6978 -0.1122
  146SAPE  H19R16080   1.756   5.144   8.800  0.6732 -0.1938 -0.8383
  146SAPE  H19S16081   1.870   5.015   8.777 -0.3421 -0.1003  0.8667
  146SAPE  C22016082   1.967   5.207   8.803 -0.1574  0.3931  0.1278
  146SAPE  H20R16083   2.063   5.155   8.826  0.6293  0.4455 -2.6281
  146SAPE  H20S16084   1.957   5.308   8.848  1.4492  3.0788 -4.8003
  146SAPE  H20T16085   1.964   5.232   8.695 -0.4858  0.5040  0.1629
  146SAPE   C3316086   0.646   5.465  10.044 -0.3710  0.4899  0.1457
  146SAPE   H3X16087   0.635   5.560  10.100 -0.9500  0.3611  0.2637
  146SAPE   H3Y16088   0.563   5.400  10.081 -0.0631  0.4385  0.7598
  146SAPE   C3416089   0.606   5.486   9.892 -0.0959  0.3709 -0.7840
  146SAPE   H4X16090   0.706   5.512   9.851  0.5913 -0.7732  0.0785
  146SAPE   H4Y16091   0.542   5.576   9.883 -2.5345 -1.3573 -1.7027
  146SAPE   C3516092   0.535   5.355   9.833  0.1220 -1.1832 -0.3400
  146SAPE   H5X16093   0.442   5.345   9.893  0.5334 -0.5734  0.4222
  146SAPE   H5Y16094   0.594   5.264   9.858  0.4317 -0.8630  0.1199
  146SAPE   C3616095   0.490   5.370   9.695  0.6118  1.0990  0.5173
  146SAPE   H6X16096   0.421   5.455   9.678 -2.0604 -1.0526 -0.0794
  146SAPE   H6Y16097   0.426   5.284   9.666  1.9045 -0.3050  1.5846
  146SAPE   C3716098   0.608   5.381   9.598  0.3066 -0.3086 -0.6390
  146SAPE   H7X16099   0.672   5.295   9.629  1.0448  1.1597  2.3486
  146SAPE   H7Y16100   0.664   5.474   9.625 -0.6611 -0.3105  1.5779
  146SAPE   C3816101   0.569   5.378   9.456  0.8371 -0.0639 -0.0988
  146SAPE   H8X16102   0.533   5.276   9.431 -0.1261  0.4414 -0.7904
  146SAPE   H8Y16103   0.646   5.405   9.381  0.0802 -1.2242 -1.3264
  146SAPE   C3916104   0.453   5.476   9.425 -0.1263 -0.1653  0.5012
  146SAPE   H9X16105   0.490   5.578   9.447 -1.7632  0.4912  0.3586
  146SAPE   H9Y16106   0.364   5.461   9.489  0.3161 -1.6143  0.8309
  146SAPE  C31016107   0.418   5.458   9.276 -0.0366 -0.3276 -0.0022
  146SAPE  H10X16108   0.389   5.353   9.254 -0.2964 -0.4910  1.0618
  146SAPE  H10Y16109   0.517   5.468   9.226 -0.2021  2.8832  0.0849
  146SAPE  C31116110   0.321   5.566   9.215 -0.1413 -1.2770  0.1490
  146SAPE  H11X16111   0.340   5.659   9.272  0.2466  0.0096 -1.9548
  146SAPE  H11Y16112   0.219   5.528   9.236 -0.4663 -1.1833 -1.1971
  146SAPE  C31216113   0.335   5.591   9.067 -0.3531 -0.2338  0.0979
  146SAPE  H12X16114   0.252   5.658   9.036 -0.1057  0.5716  1.0884
  146SAPE  H12Y16115   0.333   5.497   9.008 -1.0692 -0.1460 -0.0271
  146SAPE  C31316116   0.455   5.682   9.031 -0.2625  0.4578  0.1114
  146SAPE  H13X16117   0.546   5.628   9.064 -0.1728  1.9440  2.5081
  146SAPE  H13Y16118   0.449   5.776   9.090  1.1526  0.7733 -0.1902
  146SAPE  C31416119   0.458   5.713   8.873 -0.5205  0.8238 -0.7563
  146SAPE  H14X16120   0.523   5.799   8.847 -0.5373  1.3901  0.9237
  146SAPE  H14Y16121   0.351   5.735   8.853 -1.5081  0.1177  2.8991
  146SAPE  C31516122   0.496   5.596   8.792  0.1270 -0.6218  0.0775
  146SAPE  H15X16123   0.417   5.518   8.795 -0.1067 -0.4172 -0.5410
  146SAPE  H15Y16124   0.590   5.552   8.834  0.0453  1.4793  2.7442
  146SAPE  C31616125   0.513   5.622   8.640 -0.3418  0.0818 -0.8610
  146SAPE  H16X16126   0.590   5.701   8.626  0.9021 -0.7265  0.9789
  146SAPE  H16Y16127   0.412   5.650   8.605 -1.3722 -0.8629  1.1891
  146SAPE  C31716128   0.559   5.496   8.559 -0.3955  0.9061 -0.3452
  146SAPE  H17X16129   0.642   5.461   8.625 -2.0759 -1.2228  0.7364
  146SAPE  H17Y16130   0.592   5.529   8.458  0.2506 -2.7766 -1.4929
  146SAPE  C31816131   0.453   5.388   8.538  0.1661 -0.3692  0.0968
  146SAPE  H18X16132   0.486   5.293   8.489  1.5169 -0.2412  0.7120
  146SAPE  H18Y16133   0.372   5.436   8.479  0.5819  1.5800  1.0311
  146SAPE  H18Z16134   0.411   5.361   8.637  1.4454  0.1748  0.8099
  147SAPE     N16135   4.715   2.973   6.105  0.0311 -0.0104  0.4161
  147SAPE   HN116136   4.721   2.871   6.085  0.4357  0.0231  0.3502
  147SAPE   HN216137   4.759   3.032   6.032  0.3345 -1.3921 -0.5636
  147SAPE   HN316138   4.760   3.001   6.194  1.8309 -0.0429 -0.4230
  147SAPE   C1216139   4.582   3.022   6.134  0.3815 -0.0662 -0.7387
  147SAPE  H12A16140   4.538   3.057   6.038 -0.9342 -1.6322 -0.7437
  147SAPE  H12B16141   4.596   3.106   6.206 -0.5729  0.2348 -0.8877
  147SAPE   C1116142   4.489   2.912   6.194 -0.1326 -0.0725 -0.2845
  147SAPE  H11A16143   4.384   2.948   6.201  0.3496  1.1101  2.0075
  147SAPE  H11B16144   4.538   2.895   6.293  1.2086  0.1843 -0.8931
  147SAPE     P16145   4.519   2.653   6.175  0.4251  0.0368 -0.1540
  147SAPE   O1316146   4.429   2.624   6.290  0.8521  0.0629  1.1380
  147SAPE   O1416147   4.524   2.555   6.059 -0.3470  0.3628  0.2427
  147SAPE   O1216148   4.493   2.793   6.113  0.0951 -0.6783  0.3237
  147SAPE   O1116149   4.661   2.682   6.232 -0.1765 -0.2288 -0.2127
  147SAPE    C116150   4.773   2.599   6.225 -0.5490 -0.5028 -0.5951
  147SAPE    HA16151   4.749   2.506   6.169 -3.1209 -0.0970 -0.2767
  147SAPE    HB16152   4.858   2.658   6.185  0.2121 -0.3889  1.0862
  147SAPE    C216153   4.820   2.570   6.369 -0.2630 -0.3548  0.2890
  147SAPE    HS16154   4.919   2.520   6.355 -0.2498 -0.4145  0.5837
  147SAPE   O2116155   4.734   2.494   6.451  0.4054 -0.6420 -0.7614
  147SAPE   C2116156   4.711   2.370   6.417  0.1214 -0.7470  0.8405
  147SAPE   O2216157   4.771   2.310   6.329 -0.9009 -1.0613  0.4305
  147SAPE   C2216158   4.617   2.317   6.526  1.0004  1.1541 -0.3957
  147SAPE   H2R16159   4.677   2.279   6.611  0.3264 -1.9155 -1.1636
  147SAPE   H2S16160   4.540   2.388   6.561  0.1126 -0.4697  1.1440
  147SAPE    C316161   4.848   2.713   6.428  0.3573 -0.8803 -0.1294
  147SAPE    HX16162   4.755   2.772   6.439  0.9819  0.1310 -0.1489
  147SAPE    HY16163   4.912   2.773   6.360  0.6258  2.3427  2.7026
  147SAPE   O3116164   4.930   2.700   6.548  0.1984  0.1500  0.1337
  147SAPE   C3116165   4.980   2.805   6.604  0.2970  0.5631 -0.3097
  147SAPE   O3216166   4.963   2.918   6.565  0.2559 -0.0370  0.4362
  147SAPE   C3216167   5.067   2.768   6.727  0.3857 -0.4791 -0.0346
  147SAPE   H2X16168   5.165   2.730   6.694  0.9996 -0.8911  2.1151
  147SAPE   H2Y16169   5.010   2.690   6.782  0.5375 -1.4558 -1.2372
  147SAPE   C2316170   4.539   2.188   6.476 -0.2594 -0.4852 -0.0898
  147SAPE   H3R16171   4.608   2.118   6.426 -0.7469  1.5791 -4.0095
  147SAPE   H3S16172   4.461   2.208   6.400 -0.9374  0.2093  0.7561
  147SAPE   C2416173   4.475   2.098   6.579 -0.1437 -0.1447  0.1195
  147SAPE   H4R16174   4.558   2.065   6.646  0.5348  1.8199  0.3142
  147SAPE   H4S16175   4.414   2.017   6.535 -2.0479 -1.3855  4.5051
  147SAPE   C2516176   4.379   2.170   6.670  0.0917  0.1281  0.0874
  147SAPE   H5R16177   4.313   2.241   6.618  1.7353  1.6200 -0.0527
  147SAPE   C2616178   4.361   2.153   6.802  0.1001  0.3554  0.3182
  147SAPE   H6R16179   4.280   2.207   6.853 -1.3131 -1.3288 -0.0480
  147SAPE   C2716180   4.438   2.047   6.886  0.3471  0.0443  1.0392
  147SAPE   H7R16181   4.449   1.961   6.817  2.8501  0.4369  0.8566
  147SAPE   H7S16182   4.391   2.004   6.977  2.7851 -0.8703  1.9458
  147SAPE   C2816183   4.586   2.072   6.913  0.4479 -0.0985 -0.5966
  147SAPE   H8R16184   4.622   2.111   6.817  0.1439 -1.1818 -1.1668
  147SAPE   C2916185   4.657   2.056   7.025 -0.4265 -0.5297  0.2982
  147SAPE   H9R16186   4.764   2.079   7.012 -0.8331  0.8566 -0.8664
  147SAPE  C21016187   4.612   2.021   7.168  0.0110 -0.6795 -0.8904
  147SAPE  H10R16188   4.507   2.055   7.177 -0.3514 -2.1381  1.0076
  147SAPE  H10S16189   4.670   2.077   7.245 -0.5904  0.4223 -1.2262
  147SAPE  C21116190   4.617   1.868   7.180  0.9285 -0.2793 -0.1930
  147SAPE  H11R16191   4.566   1.802   7.108  3.1123 -1.7525 -0.4839
  147SAPE  C21216192   4.664   1.803   7.282 -0.4934 -0.4099  0.1555
  147SAPE  H12R16193   4.672   1.694   7.274 -0.7931 -0.4131 -0.0809
  147SAPE  C21316194   4.743   1.862   7.392 -0.2365  0.4232 -0.1693
  147SAPE  H13R16195   4.826   1.925   7.354 -0.7697  0.3389 -1.5241
  147SAPE  H13S16196   4.797   1.774   7.435 -0.5999  1.2762  2.2076
  147SAPE  C21416197   4.647   1.920   7.494  0.0044  0.0258  0.4320
  147SAPE  H14R16198   4.592   2.007   7.455  2.8972  0.7666 -2.4259
  147SAPE  C21516199   4.638   1.873   7.619 -0.8392 -0.8682 -0.1967
  147SAPE  H15R16200   4.556   1.918   7.676  0.7690  3.1079 -0.6812
  147SAPE  C21616201   4.719   1.765   7.676  0.5497 -0.3909  0.3636
  147SAPE  H16R16202   4.821   1.795   7.646  0.2459 -0.1359 -0.4579
  147SAPE  H16S16203   4.685   1.676   7.618 -0.1078 -0.8750  1.4615
  147SAPE  C21716204   4.706   1.736   7.819  0.1950  0.0031 -0.0640
  147SAPE  H17R16205   4.740   1.821   7.882 -0.6184  2.2288 -2.4406
  147SAPE  H17S16206   4.769   1.648   7.843  1.6874  0.7201 -1.2052
  147SAPE  C21816207   4.560   1.683   7.864 -0.2483  0.1300  0.4022
  147SAPE  H18R16208   4.549   1.577   7.833  2.3245  0.3133 -1.4755
  147SAPE  H18S16209   4.483   1.751   7.821 -0.9426 -0.5133  0.6054
  147SAPE  C21916210   4.551   1.665   8.017 -0.0250  0.7627  0.9314
  147SAPE  H19R16211   4.568   1.766   8.062 -0.0326  0.0858  2.5037
  147SAPE  H19S16212   4.629   1.589   8.039  0.2058  0.2649 -1.3658
  147SAPE  C22016213   4.420   1.604   8.070  0.4233  0.6058  0.0307
  147SAPE  H20R16214   4.413   1.508   8.015  4.3319 -0.1527  0.5467
  147SAPE  H20S16215   4.329   1.668   8.074  0.6982  1.1755 -1.9722
  147SAPE  H20T16216   4.435   1.574   8.176 -2.0309 -2.2192 -0.3002
  147SAPE   C3316217   5.100   2.886   6.820  0.0460 -0.2169  0.6331
  147SAPE   H3X16218   5.004   2.930   6.855 -0.9030 -1.5226 -0.2026
  147SAPE   H3Y16219   5.148   2.971   6.767 -1.0074 -0.5966 -1.0291
  147SAPE   C3416220   5.176   2.854   6.945  0.7243 -0.3986  0.7125
  147SAPE   H4X16221   5.220   2.950   6.982  0.4022 -0.1234  0.3846
  147SAPE   H4Y16222   5.273   2.805   6.919  0.6696  0.2261 -0.7380
  147SAPE   C3516223   5.101   2.787   7.063  0.1888 -0.0062 -0.0745
  147SAPE   H5X16224   5.089   2.678   7.041  1.5546 -0.3866  0.8862
  147SAPE   H5Y16225   4.999   2.830   7.060  0.8882  1.6500 -1.7099
  147SAPE   C3616226   5.168   2.802   7.199  0.0423 -0.1330  0.3829
  147SAPE   H6X16227   5.277   2.779   7.192  0.1333  0.1046  1.0325
  147SAPE   H6Y16228   5.130   2.718   7.262  1.3626 -0.8110  0.3211
  147SAPE   C3716229   5.144   2.931   7.273  0.3250 -0.7026 -0.5813
  147SAPE   H7X16230   5.052   2.976   7.230 -0.7606 -2.3818 -0.1173
  147SAPE   H7Y16231   5.233   2.997   7.265  0.8324 -0.8610  2.5409
  147SAPE   C3816232   5.111   2.921   7.424  0.5591  0.2808 -0.0529
  147SAPE   H8X16233   5.060   2.823   7.437  0.3997  0.4646  0.7781
  147SAPE   H8Y16234   5.044   3.006   7.448  1.9178  2.2485 -2.7377
  147SAPE   C3916235   5.235   2.920   7.515  0.1334  0.0328 -0.3449
  147SAPE   H9X16236   5.317   2.982   7.471 -0.6463  1.2881 -0.0670
  147SAPE   H9Y16237   5.264   2.814   7.532 -2.0598 -0.2539  2.2917
  147SAPE  C31016238   5.203   2.987   7.649  0.2240  0.0042 -0.7610
  147SAPE  H10X16239   5.106   2.937   7.671  0.2689 -0.5580 -1.7615
  147SAPE  H10Y16240   5.181   3.094   7.627  0.0760 -0.0607 -0.9317
  147SAPE  C31116241   5.324   2.989   7.741  0.2824 -0.3576 -0.0950
  147SAPE  H11X16242   5.411   3.019   7.679 -0.3347 -0.6008 -1.1108
  147SAPE  H11Y16243   5.349   2.889   7.781  1.8725  0.6001  1.4524
  147SAPE  C31216244   5.310   3.091   7.856 -0.7312  0.8589  1.0387
  147SAPE  H12X16245   5.226   3.054   7.917 -1.8074  0.0248 -0.8801
  147SAPE  H12Y16246   5.304   3.198   7.826  2.0281  0.8757  0.2107
  147SAPE  C31316247   5.431   3.077   7.947  0.5621 -0.4025 -0.3296
  147SAPE  H13X16248   5.519   3.118   7.893  1.0482  0.7643  1.2851
  147SAPE  H13Y16249   5.452   2.969   7.965 -0.1725 -0.3413  0.9778
  147SAPE  C31416250   5.423   3.150   8.083  1.2076  0.1054 -0.2148
  147SAPE  H14X16251   5.342   3.114   8.149  1.1448 -0.6654 -0.6996
  147SAPE  H14Y16252   5.399   3.256   8.058 -4.3544 -0.8072 -0.0063
  147SAPE  C31516253   5.560   3.136   8.136 -0.2815 -0.2731 -0.5660
  147SAPE  H15X16254   5.633   3.165   8.058 -0.5055 -0.7026 -0.9441
  147SAPE  H15Y16255   5.584   3.028   8.146  0.3694 -0.0080  1.1075
  147SAPE  C31616256   5.589   3.218   8.267  0.2647  0.9122 -0.4865
  147SAPE  H16X16257   5.517   3.185   8.346  3.4593  0.3468  2.4296
  147SAPE  H16Y16258   5.553   3.317   8.232 -1.8650  0.3369 -0.0706
  147SAPE  C31716259   5.724   3.226   8.335 -0.3689 -0.3626 -0.1839
  147SAPE  H17X16260   5.764   3.124   8.352 -0.2972 -0.1531  0.9912
  147SAPE  H17Y16261   5.730   3.259   8.441  0.9253 -1.7874  0.2177
  147SAPE  C31816262   5.832   3.289   8.252  0.0588 -0.6121  0.7922
  147SAPE  H18X16263   5.833   3.240   8.152 -0.4827 -0.1823  0.5697
  147SAPE  H18Y16264   5.931   3.280   8.301  1.5182  1.5061 -1.4687
  147SAPE  H18Z16265   5.808   3.397   8.242  0.0979 -0.4161  2.5104
  148SAPE     N16266   3.472   5.196   6.285 -0.0318  0.6243 -0.1333
  148SAPE   HN116267   3.477   5.250   6.197 -1.6340  0.2610 -0.4880
  148SAPE   HN216268   3.385   5.229   6.332  0.0422  0.5445  0.0597
  148SAPE   HN316269   3.548   5.239   6.342 -0.2216  1.8492 -0.7619
  148SAPE   C1216270   3.481   5.048   6.273 -0.0272 -0.1612 -0.3361
  148SAPE  H12A16271   3.574   5.025   6.216 -0.1819  0.2059 -0.7406
  148SAPE  H12B16272   3.400   5.015   6.205  0.1551  1.1662 -1.2261
  148SAPE   C1116273   3.462   4.974   6.418  0.4301 -0.5455 -0.1003
  148SAPE  H11A16274   3.484   4.866   6.404  1.7584 -0.4444  0.9581
  148SAPE  H11B16275   3.355   4.979   6.449 -0.3847  1.8593 -2.8508
  148SAPE     P16276   3.680   4.990   6.555  0.2612  0.0079  0.5104
  148SAPE   O1316277   3.733   4.912   6.435 -0.0253 -0.6014 -0.1283
  148SAPE   O1416278   3.759   5.099   6.616 -0.5870 -0.3360  0.2677
  148SAPE   O1216279   3.539   5.052   6.518  0.3622  0.3231  0.1295
  148SAPE   O1116280   3.640   4.889   6.663 -0.3945 -0.0259  0.0521
  148SAPE    C116281   3.564   4.911   6.783  0.4843 -0.5252 -0.0357
  148SAPE    HA16282   3.521   5.013   6.778  0.4861 -0.5809 -2.2762
  148SAPE    HB16283   3.467   4.859   6.767 -0.7700  1.8348 -0.5873
  148SAPE    C216284   3.622   4.877   6.921  0.0714  0.2098 -0.6325
  148SAPE    HS16285   3.540   4.851   6.992  1.5334 -0.1881  0.9855
  148SAPE   O2116286   3.681   4.987   6.987  0.3220  0.4108  0.2387
  148SAPE   C2116287   3.599   5.077   7.019  0.2324 -1.2022  0.8324
  148SAPE   O2216288   3.480   5.082   6.993  0.5082 -0.0311 -0.4402
  148SAPE   C2216289   3.670   5.203   7.071 -0.5596  0.0391 -0.3948
  148SAPE   H2R16290   3.776   5.174   7.051 -1.3781 -2.7794 -1.1180
  148SAPE   H2S16291   3.660   5.291   7.003  2.3467  0.6224 -0.2243
  148SAPE    C316292   3.717   4.756   6.914 -0.6886 -0.2319  0.6986
  148SAPE    HX16293   3.798   4.790   6.845 -1.1604  3.4216  1.7428
  148SAPE    HY16294   3.665   4.673   6.861  0.7304 -1.0010  0.4569
  148SAPE   O3116295   3.765   4.718   7.049 -0.1939 -0.3061  0.0422
  148SAPE   C3116296   3.675   4.657   7.122  0.0102  0.0717 -0.2056
  148SAPE   O3216297   3.558   4.644   7.102 -0.3387 -0.4119  0.3794
  148SAPE   C3216298   3.747   4.586   7.243 -0.1128 -0.5449 -0.3792
  148SAPE   H2X16299   3.856   4.594   7.226  0.0546  2.3260  1.3559
  148SAPE   H2Y16300   3.709   4.482   7.255  0.2894 -0.6972 -0.4004
  148SAPE   C2316301   3.646   5.253   7.214  0.4688 -0.3322  0.6522
  148SAPE   H3R16302   3.547   5.304   7.222  1.0703  1.1739 -0.8199
  148SAPE   H3S16303   3.722   5.330   7.238  0.8156 -0.6647  0.6288
  148SAPE   C2416304   3.650   5.147   7.316  0.1066  0.4956 -0.0097
  148SAPE   H4R16305   3.571   5.071   7.297  0.2106  0.5510 -0.6899
  148SAPE   H4S16306   3.608   5.194   7.407  2.0529  0.6579  0.8351
  148SAPE   C2516307   3.789   5.092   7.351  0.0229 -0.2179  0.3253
  148SAPE   H5R16308   3.856   5.091   7.264 -0.2646  0.1598  0.1015
  148SAPE   C2616309   3.834   5.026   7.464 -0.5493 -0.6230 -0.6117
  148SAPE   H6R16310   3.941   5.002   7.477 -0.7186 -0.1743  2.1374
  148SAPE   C2716311   3.748   4.994   7.582 -0.7274  0.0965  0.4586
  148SAPE   H7R16312   3.776   4.897   7.627 -0.5296  0.5828  1.4175
  148SAPE   H7S16313   3.644   4.972   7.549 -0.4530 -1.1839  0.3910
  148SAPE   C2816314   3.758   5.089   7.699 -0.5813 -0.2463 -0.3228
  148SAPE   H8R16315   3.703   5.184   7.686  0.2904  0.1756 -1.1098
  148SAPE   C2916316   3.836   5.077   7.809  0.2643 -0.1372 -0.0492
  148SAPE   H9R16317   3.827   5.154   7.888  0.8070 -1.0823  0.9598
  148SAPE  C21016318   3.924   4.965   7.846 -0.0762 -0.0428  0.3115
  148SAPE  H10R16319   3.883   4.865   7.819 -2.5186  1.0704 -0.3940
  148SAPE  H10S16320   3.909   4.971   7.956 -3.1669  1.1989 -0.0666
  148SAPE  C21116321   4.070   4.981   7.811 -0.4857  0.2571  0.2683
  148SAPE  H11R16322   4.092   4.992   7.704 -0.1082 -1.6705  0.1087
  148SAPE  C21216323   4.169   4.984   7.912 -0.0604  0.2477  0.5811
  148SAPE  H12R16324   4.272   4.984   7.873 -0.3770 -2.5314 -0.4629
  148SAPE  C21316325   4.152   4.965   8.056 -0.1204  0.7632  0.1573
  148SAPE  H13R16326   4.050   4.994   8.091 -0.5774  1.6364 -1.7758
  148SAPE  H13S16327   4.232   5.020   8.110 -0.0199 -0.2147  1.0503
  148SAPE  C21416328   4.171   4.817   8.099 -0.3469 -0.1115 -0.4062
  148SAPE  H14R16329   4.128   4.742   8.031 -2.4268  1.6923 -1.2201
  148SAPE  C21516330   4.212   4.784   8.224 -0.3080  0.3364 -0.2895
  148SAPE  H15R16331   4.212   4.677   8.251  1.2491 -0.1677 -2.0941
  148SAPE  C21616332   4.262   4.872   8.339  0.3146 -0.3638 -0.3758
  148SAPE  H16R16333   4.213   4.837   8.432  1.8180 -0.6820  0.3243
  148SAPE  H16S16334   4.228   4.978   8.327  0.8371  0.2283  2.7147
  148SAPE  C21716335   4.415   4.880   8.349 -0.8994  0.7388  0.2667
  148SAPE  H17R16336   4.430   4.961   8.423 -1.0329  1.2085 -0.2117
  148SAPE  H17S16337   4.458   4.905   8.249 -2.4445  0.5317 -0.4779
  148SAPE  C21816338   4.486   4.754   8.405 -0.4044  0.1286 -0.1497
  148SAPE  H18R16339   4.479   4.681   8.321 -0.5728  0.7617 -0.6926
  148SAPE  H18S16340   4.438   4.709   8.495 -0.7909 -1.5259 -1.1302
  148SAPE  C21916341   4.642   4.781   8.427 -0.1167 -0.8770  0.6535
  148SAPE  H19R16342   4.655   4.886   8.462  1.3207 -0.8538  0.1501
  148SAPE  H19S16343   4.707   4.783   8.336 -0.8172 -1.0047  0.1427
  148SAPE  C22016344   4.706   4.692   8.534  0.4511 -0.2327 -0.0898
  148SAPE  H20R16345   4.688   4.585   8.510 -1.4282  0.3369 -1.4684
  148SAPE  H20S16346   4.653   4.710   8.630 -1.0477  0.7308 -1.0423
  148SAPE  H20T16347   4.815   4.707   8.526  0.2311  0.3128 -4.0751
  148SAPE   C3316348   3.713   4.653   7.374 -0.4442  0.4042 -0.5461
  148SAPE   H3X16349   3.609   4.633   7.409 -0.0529  1.1889  1.1699
  148SAPE   H3Y16350   3.738   4.759   7.357  0.3259  0.2681 -0.2953
  148SAPE   C3416351   3.815   4.605   7.489 -0.5260  0.2476  0.0812
  148SAPE   H4X16352   3.855   4.699   7.533 -1.5750  0.7448  0.0012
  148SAPE   H4Y16353   3.896   4.550   7.438  1.5960  2.8291  0.4451
  148SAPE   C3516354   3.745   4.517   7.605 -0.4223 -0.4899  0.2962
  148SAPE   H5X16355   3.716   4.418   7.563 -3.8660 -0.0587  1.3673
  148SAPE   H5Y16356   3.648   4.561   7.636 -0.9006 -0.8571 -0.6324
  148SAPE   C3616357   3.851   4.497   7.715 -1.2593 -0.2512 -0.6270
  148SAPE   H6X16358   3.884   4.599   7.744  0.3664 -0.3299 -2.0402
  148SAPE   H6Y16359   3.945   4.456   7.673  0.2568 -0.2410  2.4875
  148SAPE   C3716360   3.824   4.424   7.847  0.7013  0.0417  0.0764
  148SAPE   H7X16361   3.836   4.315   7.827  2.5076  0.3953 -1.1022
  148SAPE   H7Y16362   3.722   4.451   7.881 -0.2503 -0.4647 -2.1512
  148SAPE   C3816363   3.928   4.455   7.955 -0.2146  0.5719  0.9485
  148SAPE   H8X16364   3.935   4.566   7.959 -0.0921  0.6874 -1.2979
  148SAPE   H8Y16365   4.027   4.425   7.914 -1.0025 -0.8949  0.0308
  148SAPE   C3916366   3.886   4.382   8.079  0.7728 -0.6384  0.1631
  148SAPE   H9X16367   3.892   4.272   8.067 -0.0328 -0.8655  1.6478
  148SAPE   H9Y16368   3.779   4.390   8.107  0.9451 -2.1997  1.3618
  148SAPE  C31016369   3.968   4.415   8.201  0.3909 -0.4311  0.3481
  148SAPE  H10X16370   3.977   4.526   8.199 -0.6808 -0.3401  0.2102
  148SAPE  H10Y16371   4.073   4.383   8.183  1.1106  1.5277  0.8235
  148SAPE  C31116372   3.925   4.356   8.337  0.5505 -0.4203 -0.0812
  148SAPE  H11X16373   3.911   4.247   8.324  2.4715 -0.6397 -0.6692
  148SAPE  H11Y16374   3.828   4.396   8.374  0.6659 -0.5523  0.3793
  148SAPE  C31216375   4.030   4.368   8.455 -1.5322  0.2878 -1.2540
  148SAPE  H12X16376   3.983   4.358   8.555 -1.8402  1.4989 -1.2618
  148SAPE  H12Y16377   4.080   4.467   8.459  0.8981 -0.9008  0.1344
  148SAPE  C31316378   4.152   4.278   8.451  0.4984  0.1562  0.3247
  148SAPE  H13X16379   4.195   4.290   8.350 -0.1794  0.2168  0.0343
  148SAPE  H13Y16380   4.120   4.172   8.453  1.6458 -0.1987  1.3787
  148SAPE  C31416381   4.248   4.300   8.569 -0.0517  0.5882 -0.1517
  148SAPE  H14X16382   4.197   4.288   8.667  1.3801  1.5213  0.7541
  148SAPE  H14Y16383   4.299   4.399   8.572  3.0145 -0.7484 -2.6127
  148SAPE  C31516384   4.362   4.198   8.572 -0.0721  0.3698 -0.3940
  148SAPE  H15X16385   4.464   4.239   8.592  0.0235 -1.0337  2.4894
  148SAPE  H15Y16386   4.360   4.152   8.471 -4.1686 -0.5372 -0.0624
  148SAPE  C31616387   4.350   4.082   8.671 -0.8224 -0.3946  0.4960
  148SAPE  H16X16388   4.347   4.113   8.778  1.4181 -0.9976  0.7878
  148SAPE  H16Y16389   4.449   4.032   8.671 -0.0338  1.0091  2.4904
  148SAPE  C31716390   4.227   3.990   8.641  0.5295 -0.0342  0.0560
  148SAPE  H17X16391   4.241   3.952   8.538 -1.4064 -2.9669  0.7516
  148SAPE  H17Y16392   4.136   4.054   8.647  1.3143  1.1656 -0.4081
  148SAPE  C31816393   4.224   3.860   8.726  0.1182  0.3973 -0.0273
  148SAPE  H18X16394   4.156   3.786   8.678  0.1726 -0.3498  1.0153
  148SAPE  H18Y16395   4.189   3.884   8.829  1.3371 -1.5906  0.9200
  148SAPE  H18Z16396   4.327   3.819   8.729 -0.0795 -0.0711  0.6535
  149SAPE     N16397   4.854   5.725   6.445 -0.2770  0.6830 -0.6950
  149SAPE   HN116398   4.956   5.722   6.463 -0.3382 -1.2246 -0.4495
  149SAPE   HN216399   4.831   5.623   6.450 -0.7017  0.8419  2.3257
  149SAPE   HN316400   4.847   5.753   6.345  3.3182 -0.5299 -1.4135
  149SAPE   C1216401   4.781   5.808   6.543  0.5082 -0.3275 -0.9215
  149SAPE  H12A16402   4.812   5.914   6.549 -0.2550 -0.1139 -0.7747
  149SAPE  H12B16403   4.803   5.774   6.646 -3.1249 -0.2412 -0.0028
  149SAPE   C1116404   4.632   5.806   6.519  0.4852 -0.3858  0.0896
  149SAPE  H11A16405   4.589   5.882   6.588 -0.8278 -1.0176 -0.0105
  149SAPE  H11B16406   4.601   5.703   6.548  3.3845 -2.0764 -2.1818
  149SAPE     P16407   4.610   5.980   6.317  0.3904  0.1043  0.0121
  149SAPE   O1316408   4.752   6.007   6.291 -0.0982  1.0696 -0.4527
  149SAPE   O1416409   4.531   5.988   6.196 -0.1980  0.0811 -0.1809
  149SAPE   O1216410   4.595   5.833   6.382 -0.3547 -0.4796  0.1982
  149SAPE   O1116411   4.558   6.088   6.433  0.2761 -0.0269  0.0533
  149SAPE    C116412   4.424   6.132   6.429 -0.2833  0.5411  0.7248
  149SAPE    HA16413   4.419   6.214   6.354  1.5801 -0.2350 -0.3008
  149SAPE    HB16414   4.359   6.050   6.392 -1.0776  0.2540  2.6628
  149SAPE    C216415   4.363   6.172   6.572  0.0911 -0.5430 -0.3007
  149SAPE    HS16416   4.423   6.251   6.622 -2.2523  1.8703 -1.0637
  149SAPE   O2116417   4.344   6.055   6.648  0.0502  0.0317 -0.9259
  149SAPE   C2116418   4.421   6.039   6.757 -0.6853  0.5736 -0.5030
  149SAPE   O2216419   4.509   6.117   6.790  0.2130  0.0139 -0.3711
  149SAPE   C2216420   4.374   5.911   6.835 -0.0150  0.3554  0.1519
  149SAPE   H2R16421   4.269   5.922   6.870 -0.0019 -0.8256  0.6372
  149SAPE   H2S16422   4.370   5.830   6.758  0.8984  0.1731  0.2806
  149SAPE    C316423   4.234   6.233   6.541  0.1640 -0.2593 -0.0478
  149SAPE    HX16424   4.168   6.170   6.478  0.3896  0.0489 -0.6010
  149SAPE    HY16425   4.267   6.321   6.481  2.2872  0.5062  2.0913
  149SAPE   O3116426   4.169   6.286   6.659 -0.2427 -0.1673  0.0115
  149SAPE   C3116427   4.086   6.189   6.712  0.1776  0.3083 -0.7440
  149SAPE   O3216428   4.056   6.083   6.663  0.1190 -0.3080 -0.0274
  149SAPE   C3216429   4.054   6.231   6.858 -0.7682 -0.6210 -0.5426
  149SAPE   H2X16430   3.986   6.318   6.871 -0.3382 -0.5345  1.4129
  149SAPE   H2Y16431   4.148   6.269   6.903 -1.5956  1.7747 -0.6799
  149SAPE   C2316432   4.474   5.861   6.947  0.3663 -0.8675 -0.0788
  149SAPE   H3R16433   4.485   5.934   7.030 -0.1285 -1.8484  0.8838
  149SAPE   H3S16434   4.574   5.856   6.900  0.4757 -0.4113  0.0963
  149SAPE   C2416435   4.428   5.727   7.008 -0.4835  0.2888  0.3916
  149SAPE   H4R16436   4.495   5.695   7.091 -0.2452 -0.2399  0.0002
  149SAPE   H4S16437   4.404   5.644   6.938 -0.2338  0.3762  0.2033
  149SAPE   C2516438   4.300   5.757   7.085  0.3962  0.0155  0.2671
  149SAPE   H5R16439   4.212   5.749   7.020  0.2235  0.3712  0.4513
  149SAPE   C2616440   4.277   5.797   7.213 -0.2281 -0.1283  0.0973
  149SAPE   H6R16441   4.172   5.806   7.245 -0.0143  0.3285  0.6791
  149SAPE   C2716442   4.385   5.817   7.318  0.0121  0.7700  0.1098
  149SAPE   H7R16443   4.419   5.923   7.323 -0.6382  0.9645  0.5921
  149SAPE   H7S16444   4.477   5.756   7.304  0.7564  1.9920 -0.4923
  149SAPE   C2816445   4.333   5.793   7.457  0.4804  0.8869 -0.3165
  149SAPE   H8R16446   4.225   5.812   7.464  0.3284  0.0705 -0.4073
  149SAPE   C2916447   4.396   5.760   7.571 -0.4002 -0.0767 -0.9156
  149SAPE   H9R16448   4.336   5.752   7.662 -0.2920 -0.3533 -0.8692
  149SAPE  C21016449   4.543   5.745   7.597 -0.0559 -0.4906  0.7521
  149SAPE  H10R16450   4.575   5.813   7.679 -0.2466  0.4550  0.0556
  149SAPE  H10S16451   4.600   5.790   7.512 -1.5231 -1.4664 -0.8111
  149SAPE  C21116452   4.584   5.603   7.609 -0.1895  0.0711  0.7948
  149SAPE  H11R16453   4.573   5.540   7.520  0.9974  1.1145 -0.1259
  149SAPE  C21216454   4.619   5.549   7.732 -0.1717 -0.1228  0.2440
  149SAPE  H12R16455   4.670   5.451   7.734 -0.4988 -0.3298 -0.8009
  149SAPE  C21316456   4.627   5.620   7.870 -0.4267 -0.0818 -0.7887
  149SAPE  H13R16457   4.543   5.578   7.929  1.3349 -2.0022  0.5103
  149SAPE  H13S16458   4.602   5.727   7.858 -1.2119 -0.0737  0.7431
  149SAPE  C21416459   4.753   5.605   7.949  0.6346 -1.2344 -0.1572
  149SAPE  H14R16460   4.844   5.615   7.888  1.5155  1.8881  1.4848
  149SAPE  C21516461   4.757   5.609   8.086 -0.2962  0.2497 -0.1315
  149SAPE  H15R16462   4.857   5.603   8.133  0.6969 -0.6658 -2.2470
  149SAPE  C21616463   4.652   5.630   8.189  0.3133  0.5396 -0.4769
  149SAPE  H16R16464   4.644   5.538   8.251 -0.3978 -0.0400 -1.4008
  149SAPE  H16S16465   4.553   5.642   8.140 -0.2726 -0.1083  0.5099
  149SAPE  C21716466   4.684   5.739   8.291 -0.9328 -0.1519  0.3654
  149SAPE  H17R16467   4.593   5.745   8.355 -1.3497  1.7945 -0.3565
  149SAPE  H17S16468   4.697   5.840   8.247  1.3076 -1.0130 -1.1441
  149SAPE  C21816469   4.812   5.730   8.372  0.6259 -0.0508 -0.4867
  149SAPE  H18R16470   4.906   5.746   8.316  1.8599 -2.9900  0.5584
  149SAPE  H18S16471   4.816   5.625   8.409  0.4287 -0.0342 -0.4149
  149SAPE  C21916472   4.815   5.834   8.495  0.1400 -0.0437  0.7999
  149SAPE  H19R16473   4.793   5.934   8.451  0.6957 -0.2008  0.1401
  149SAPE  H19S16474   4.915   5.841   8.544 -0.1823 -1.1154  1.6506
  149SAPE  C22016475   4.715   5.800   8.604  1.0343 -0.1326 -0.4194
  149SAPE  H20R16476   4.730   5.876   8.684 -0.0340  0.6389 -0.9157
  149SAPE  H20S16477   4.725   5.694   8.635 -1.8853 -1.1749 -2.5535
  149SAPE  H20T16478   4.612   5.804   8.561  1.0510 -2.2646 -0.7420
  149SAPE   C3316479   3.992   6.120   6.938 -0.8168 -0.2980 -0.1703
  149SAPE   H3X16480   4.067   6.040   6.953  0.5883  0.8970 -0.5514
  149SAPE   H3Y16481   3.905   6.080   6.883  0.5463  0.2440 -2.8874
  149SAPE   C3416482   3.953   6.183   7.076  0.3121  0.0876 -0.0193
  149SAPE   H4X16483   3.900   6.109   7.139  1.0409 -0.0036  0.4851
  149SAPE   H4Y16484   3.909   6.284   7.060 -1.7842 -0.5643  1.1943
  149SAPE   C3516485   4.073   6.235   7.165  0.7822 -0.0234  0.4026
  149SAPE   H5X16486   4.137   6.305   7.109  0.6352 -0.3401 -0.1647
  149SAPE   H5Y16487   4.141   6.150   7.188  1.4302  0.7601  1.4711
  149SAPE   C3616488   4.035   6.280   7.308 -1.0167 -0.0988 -0.6314
  149SAPE   H6X16489   3.950   6.351   7.299 -0.1372  1.3144  1.3599
  149SAPE   H6Y16490   4.118   6.335   7.356 -0.9622  1.1928 -2.1200
  149SAPE   C3716491   3.994   6.170   7.402  0.0523  0.6453 -0.4287
  149SAPE   H7X16492   3.906   6.126   7.349 -0.1004  1.0538 -0.5188
  149SAPE   H7Y16493   3.950   6.218   7.492  0.6597 -0.3168  0.4024
  149SAPE   C3816494   4.090   6.062   7.441 -0.3475  0.0017 -0.0166
  149SAPE   H8X16495   4.131   6.020   7.347  0.6217  1.7729 -0.4224
  149SAPE   H8Y16496   4.033   5.978   7.485  0.6059 -1.7367 -1.9619
  149SAPE   C3916497   4.202   6.108   7.538 -0.4088 -0.7863 -0.4950
  149SAPE   H9X16498   4.264   6.193   7.503 -0.9802  0.3654  1.1757
  149SAPE   H9Y16499   4.282   6.032   7.544  1.2748  0.7727 -2.1266
  149SAPE  C31016500   4.143   6.139   7.683  0.2826  1.0288 -0.7382
  149SAPE  H10X16501   4.062   6.067   7.709  1.5022 -0.7426 -1.6566
  149SAPE  H10Y16502   4.090   6.235   7.663 -0.8435  0.4516 -0.5879
  149SAPE  C31116503   4.256   6.147   7.786  0.0268  0.0943  0.0800
  149SAPE  H11X16504   4.311   6.243   7.772 -1.5443  0.9440 -0.4517
  149SAPE  H11Y16505   4.327   6.063   7.769  1.4775  1.6420 -2.0516
  149SAPE  C31216506   4.197   6.118   7.926 -1.0377 -0.1962 -0.0772
  149SAPE  H12X16507   4.161   6.013   7.934 -0.8056 -0.4613 -2.0946
  149SAPE  H12Y16508   4.124   6.200   7.942 -0.2261  0.3641  0.8276
  149SAPE  C31316509   4.301   6.147   8.040 -0.6538 -0.4147  0.0109
  149SAPE  H13X16510   4.350   6.241   8.009 -2.7331  0.5522 -0.5066
  149SAPE  H13Y16511   4.376   6.065   8.043 -0.5622 -0.3347 -0.0933
  149SAPE  C31416512   4.242   6.152   8.184  0.1964 -0.2786 -0.4435
  149SAPE  H14X16513   4.180   6.062   8.201  0.4563 -0.8150 -2.1771
  149SAPE  H14Y16514   4.164   6.231   8.188  0.1113 -0.3295 -1.0441
  149SAPE  C31516515   4.355   6.154   8.287  0.5255 -0.0297 -0.1505
  149SAPE  H15X16516   4.432   6.228   8.258  0.6691  1.0148  2.6152
  149SAPE  H15Y16517   4.386   6.048   8.278  0.1995 -0.3855  2.1633
  149SAPE  C31616518   4.301   6.177   8.429  0.2656  0.5464  0.4039
  149SAPE  H16X16519   4.216   6.108   8.448  1.1985 -0.7774 -0.0178
  149SAPE  H16Y16520   4.269   6.281   8.448  0.7675  1.2133 -2.1224
  149SAPE  C31716521   4.403   6.152   8.545 -0.4342 -0.9967  0.1038
  149SAPE  H17X16522   4.404   6.042   8.555  0.0740 -0.9054  1.2564
  149SAPE  H17Y16523   4.366   6.180   8.646  0.8041 -0.5457  0.4594
  149SAPE  C31816524   4.546   6.201   8.529 -0.1977  0.1002 -0.2301
  149SAPE  H18X16525   4.571   6.310   8.536 -1.0235  0.5120 -2.8339
  149SAPE  H18Y16526   4.599   6.166   8.438  1.3359  0.9426  0.2791
  149SAPE  H18Z16527   4.611   6.160   8.610 -1.4833  0.8294  1.2427
  150SAPE     N16528   2.155   1.252   6.167 -0.5003  0.0937  0.5028
  150SAPE   HN116529   2.149   1.331   6.100 -0.8698 -0.1174  0.2828
  150SAPE   HN216530   2.133   1.302   6.255 -0.8056  0.8355  0.0153
  150SAPE   HN316531   2.255   1.226   6.174 -0.5766 -0.4089 -0.2123
  150SAPE   C1216532   2.075   1.136   6.124 -0.6656  0.5490 -0.1263
  150SAPE  H12A16533   2.124   1.085   6.039 -1.4973 -0.8825  0.2198
  150SAPE  H12B16534   1.969   1.164   6.105 -0.7111 -0.7604 -2.0126
  150SAPE   C1116535   2.084   1.028   6.232  0.0397 -0.2243  0.1246
  150SAPE  H11A16536   2.188   0.996   6.258 -0.9005 -0.9141  3.5054
  150SAPE  H11B16537   2.047   0.931   6.191 -0.2621  1.0219 -2.8091
  150SAPE     P16538   1.877   1.059   6.382  0.0488  0.2204  0.0612
  150SAPE   O1316539   1.809   1.190   6.417 -0.0612 -0.0568  0.2453
  150SAPE   O1416540   1.810   0.969   6.287 -0.4670 -0.5155 -0.1157
  150SAPE   O1216541   2.022   1.083   6.351 -0.2816 -0.5582 -0.1737
  150SAPE   O1116542   1.892   0.981   6.523  0.3033 -0.2106 -0.6648
  150SAPE    C116543   1.812   1.014   6.634 -0.1990 -0.5755 -0.0328
  150SAPE    HA16544   1.860   1.102   6.681  2.5561 -1.8873 -0.2042
  150SAPE    HB16545   1.703   1.031   6.616 -0.3175 -0.4385  0.7648
  150SAPE    C216546   1.821   0.893   6.743  0.6236 -0.1027 -1.2538
  150SAPE    HS16547   1.731   0.907   6.807 -0.2333 -0.0410 -2.4391
  150SAPE   O2116548   1.946   0.905   6.806 -0.0545  0.0056  0.4822
  150SAPE   C2116549   1.956   0.989   6.910  0.7481 -0.2132  0.0188
  150SAPE   O2216550   1.862   1.055   6.950  0.4347 -0.5072 -0.2259
  150SAPE   C2216551   2.097   0.998   6.954 -0.3355  0.0427  0.3420
  150SAPE   H2R16552   2.157   0.937   6.882 -1.1660  1.3861 -1.5856
  150SAPE   H2S16553   2.129   1.104   6.948  0.1423 -0.0121  1.6155
  150SAPE    C316554   1.808   0.757   6.673 -0.3251 -0.8160  0.2334
  150SAPE    HX16555   1.908   0.746   6.626 -0.1150 -1.1505  0.7391
  150SAPE    HY16556   1.737   0.761   6.588  1.9039 -0.8324 -1.7469
  150SAPE   O3116557   1.791   0.647   6.768 -0.4098  0.4496 -0.1215
  150SAPE   C3116558   1.657   0.631   6.794 -0.1508 -0.3788 -0.3126
  150SAPE   O3216559   1.568   0.706   6.761  0.2932 -0.0077 -0.0528
  150SAPE   C3216560   1.636   0.508   6.868 -0.4646  0.4734  0.4315
  150SAPE   H2X16561   1.713   0.505   6.948 -1.2078  0.8415  1.1817
  150SAPE   H2Y16562   1.664   0.422   6.804 -1.7049  2.3363 -2.8621
  150SAPE   C2316563   2.123   0.952   7.100  0.2350  0.7779 -0.2112
  150SAPE   H3R16564   2.063   1.006   7.176  0.8098  0.8972  0.1636
  150SAPE   H3S16565   2.233   0.963   7.116  0.4581 -0.2656 -0.8888
  150SAPE   C2416566   2.071   0.808   7.111 -0.6215  0.0337  0.0207
  150SAPE   H4R16567   2.131   0.764   7.029 -0.9123  2.2309 -1.4521
  150SAPE   H4S16568   1.963   0.799   7.089 -1.1117  0.1199  2.1659
  150SAPE   C2516569   2.095   0.743   7.247 -0.3924 -0.6378  0.0643
  150SAPE   H5R16570   2.191   0.696   7.269 -1.0254 -0.6757  3.1568
  150SAPE   C2616571   2.012   0.744   7.356  0.2286  0.0621 -0.1886
  150SAPE   H6R16572   2.054   0.708   7.451 -0.2494 -0.4178 -0.1542
  150SAPE   C2716573   1.881   0.816   7.357 -0.1745 -1.6391  0.1340
  150SAPE   H7R16574   1.823   0.766   7.437  1.1636 -0.8631  1.6508
  150SAPE   H7S16575   1.825   0.786   7.266  0.8397 -0.4900 -0.9156
  150SAPE   C2816576   1.866   0.965   7.359 -0.2749 -0.4418 -1.0458
  150SAPE   H8R16577   1.849   1.020   7.265 -1.0155  0.0678 -0.6265
  150SAPE   C2916578   1.864   1.030   7.481 -0.7376 -0.4124 -0.1040
  150SAPE   H9R16579   1.840   1.137   7.482  1.1941  0.0701  0.4763
  150SAPE  C21016580   1.879   0.974   7.623 -0.2807  0.4717  0.0005
  150SAPE  H10R16581   1.946   0.885   7.628 -1.2087 -0.2580 -0.1759
  150SAPE  H10S16582   1.779   0.932   7.645 -0.0009 -2.2623 -3.1007
  150SAPE  C21116583   1.933   1.078   7.719 -0.7575  0.4277 -1.1685
  150SAPE  H11R16584   2.042   1.089   7.708 -0.7515  0.8446 -0.7154
  150SAPE  C21216585   1.869   1.161   7.803  0.2383 -0.3099 -0.3049
  150SAPE  H12R16586   1.924   1.217   7.880 -0.9464 -0.6510  0.8233
  150SAPE  C21316587   1.722   1.188   7.824  0.3126 -0.0537 -0.9756
  150SAPE  H13R16588   1.712   1.264   7.904 -0.2253  0.9612 -1.9729
  150SAPE  H13S16589   1.678   1.094   7.862 -2.3707  1.1075 -1.0091
  150SAPE  C21416590   1.641   1.236   7.700  0.1555 -0.1751 -0.0979
  150SAPE  H14R16591   1.671   1.193   7.604  0.2997  0.2753 -0.2570
  150SAPE  C21516592   1.543   1.328   7.709  0.1701 -0.2162  0.1689
  150SAPE  H15R16593   1.474   1.345   7.625 -2.2305 -0.4851  1.9944
  150SAPE  C21616594   1.497   1.397   7.840 -0.3294 -0.3966  0.0416
  150SAPE  H16R16595   1.558   1.486   7.866  1.2672 -1.2541 -0.6878
  150SAPE  H16S16596   1.496   1.324   7.924 -1.6092 -0.4459  0.0100
  150SAPE  C21716597   1.351   1.440   7.829 -0.4351 -0.2693 -0.1135
  150SAPE  H17R16598   1.290   1.359   7.782 -3.0354  1.7825 -0.4966
  150SAPE  H17S16599   1.360   1.533   7.770  0.0303 -0.1670  0.1179
  150SAPE  C21816600   1.296   1.487   7.965 -0.3824 -0.3929 -0.4407
  150SAPE  H18R16601   1.216   1.560   7.939 -0.3277  0.2597  1.1434
  150SAPE  H18S16602   1.380   1.531   8.023 -1.4912  1.4929 -0.2058
  150SAPE  C21916603   1.223   1.370   8.042 -0.0520  0.4433 -0.0535
  150SAPE  H19R16604   1.213   1.277   7.982  1.3861 -1.9831  3.1789
  150SAPE  H19S16605   1.119   1.396   8.073  0.0050  2.3765 -1.3671
  150SAPE  C22016606   1.282   1.314   8.173 -0.2191 -0.0402  0.2587
  150SAPE  H20R16607   1.388   1.287   8.154  1.2344  3.0235  2.9577
  150SAPE  H20S16608   1.215   1.234   8.212  0.5661 -1.4768 -1.1841
  150SAPE  H20T16609   1.293   1.404   8.237  1.8228  0.6744 -0.9929
  150SAPE   C3316610   1.502   0.488   6.944  0.4906 -0.0733  0.4698
  150SAPE   H3X16611   1.497   0.380   6.967  3.8901 -0.0423  1.8868
  150SAPE   H3Y16612   1.413   0.509   6.881  0.6195  0.3106  0.4114
  150SAPE   C3416613   1.483   0.565   7.075  0.1215 -0.2395 -0.4141
  150SAPE   H4X16614   1.382   0.542   7.113  0.0063  0.1036 -0.5132
  150SAPE   H4Y16615   1.497   0.675   7.075 -0.2187 -0.1904  0.3863
  150SAPE   C3516616   1.579   0.520   7.188 -0.3187 -0.7412  0.4550
  150SAPE   H5X16617   1.681   0.553   7.160 -0.8361 -0.7875 -1.6077
  150SAPE   H5Y16618   1.580   0.411   7.211  2.2907 -1.5157 -2.7121
  150SAPE   C3616619   1.571   0.592   7.326 -0.2207 -0.0547  0.7095
  150SAPE   H6X16620   1.465   0.603   7.356 -0.7703 -0.3282 -1.0584
  150SAPE   H6Y16621   1.620   0.692   7.320  0.4958 -0.3814  0.9355
  150SAPE   C3716622   1.648   0.521   7.441  0.7124  0.7480  0.0969
  150SAPE   H7X16623   1.756   0.531   7.418  0.7650 -0.7886 -0.4520
  150SAPE   H7Y16624   1.612   0.416   7.443 -0.4915  1.1237 -0.7837
  150SAPE   C3816625   1.606   0.586   7.578 -0.3479 -0.3204  0.3202
  150SAPE   H8X16626   1.495   0.590   7.586 -0.3718 -0.1269 -0.0682
  150SAPE   H8Y16627   1.658   0.684   7.570  3.6334 -2.3325 -2.0754
  150SAPE   C3916628   1.663   0.518   7.702 -0.0863 -0.1739  0.6133
  150SAPE   H9X16629   1.773   0.527   7.698 -0.1307  0.0734 -0.5315
  150SAPE   H9Y16630   1.633   0.411   7.700 -2.8411  0.4983 -1.6651
  150SAPE  C31016631   1.615   0.589   7.831  0.0345  0.5801 -0.5328
  150SAPE  H10X16632   1.508   0.567   7.847  0.4879 -0.2895  1.6613
  150SAPE  H10Y16633   1.630   0.699   7.832 -1.0961  0.7411  0.5617
  150SAPE  C31116634   1.690   0.521   7.947  0.4484  0.0464  0.3904
  150SAPE  H11X16635   1.798   0.531   7.922  0.0502  1.4431 -0.9409
  150SAPE  H11Y16636   1.657   0.416   7.954 -0.7915  0.4767  1.4010
  150SAPE  C31216637   1.646   0.588   8.083 -0.3190  0.7888 -0.1399
  150SAPE  H12X16638   1.537   0.589   8.101 -0.2811  1.2719  0.0586
  150SAPE  H12Y16639   1.676   0.695   8.086  0.1759  0.6394  0.6309
  150SAPE  C31316640   1.697   0.513   8.208 -0.5151  0.1688  0.0290
  150SAPE  H13X16641   1.661   0.557   8.304 -0.9891 -2.9301  1.3871
  150SAPE  H13Y16642   1.807   0.524   8.197 -0.3698 -1.2097 -0.0117
  150SAPE  C31416643   1.658   0.368   8.225 -0.0054 -0.0144 -0.0066
  150SAPE  H14X16644   1.705   0.342   8.322 -1.5125 -1.1305  0.4498
  150SAPE  H14Y16645   1.686   0.288   8.153  0.2251 -2.3666  2.5189
  150SAPE  C31516646   1.505   0.344   8.242  0.5555 -0.1804  0.5965
  150SAPE  H15X16647   1.488   0.236   8.265  2.4222 -0.4900  0.6508
  150SAPE  H15Y16648   1.462   0.361   8.141  0.1513  0.3941  0.8619
  150SAPE  C31616649   1.434   0.428   8.348 -0.2303  0.1060  0.9985
  150SAPE  H16X16650   1.429   0.537   8.329 -1.3210 -0.0548  0.2794
  150SAPE  H16Y16651   1.488   0.414   8.444  0.8233  2.8144  0.8749
  150SAPE  C31716652   1.279   0.393   8.363 -0.2504  0.1029  0.0243
  150SAPE  H17X16653   1.258   0.285   8.378 -0.5481  0.0559 -0.7028
  150SAPE  H17Y16654   1.232   0.417   8.266 -1.4253 -0.1151  0.5153
  150SAPE  C31816655   1.224   0.470   8.483  0.1059 -0.0639  0.1333
  150SAPE  H18X16656   1.293   0.453   8.568  0.7494  2.6238  0.2295
  150SAPE  H18Y16657   1.122   0.431   8.503 -0.8891  1.2785 -2.0023
  150SAPE  H18Z16658   1.217   0.580   8.465  0.8471  0.1765  1.2414
  151SAPE     N16659   5.274   0.992   6.339  0.9323  0.4854 -0.7042
  151SAPE   HN116660   5.214   1.041   6.408  0.7016  0.7954 -1.1185
  151SAPE   HN216661   5.371   1.028   6.343  1.1684 -0.0285 -1.5139
  151SAPE   HN316662   5.228   1.013   6.248 -0.1053 -0.3152 -0.3795
  151SAPE   C1216663   5.260   0.845   6.360  0.4695  0.1025  0.0235
  151SAPE  H12A16664   5.268   0.799   6.259  1.3022  1.8599 -0.7474
  151SAPE  H12B16665   5.162   0.815   6.404 -0.0791  0.9146 -0.6178
  151SAPE   C1116666   5.380   0.791   6.434 -0.5715 -0.1056  0.6891
  151SAPE  H11A16667   5.376   0.680   6.432  3.7684 -0.4435  1.8983
  151SAPE  H11B16668   5.374   0.815   6.542  1.4504  1.3240  0.5298
  151SAPE     P16669   5.619   0.788   6.326 -0.0699 -0.1284 -0.1497
  151SAPE   O1316670   5.583   0.744   6.194  0.2434  0.2333 -0.3676
  151SAPE   O1416671   5.738   0.875   6.336 -0.4023  0.3082  0.2486
  151SAPE   O1216672   5.502   0.860   6.394 -0.1767 -0.4746  0.2609
  151SAPE   O1116673   5.651   0.665   6.415 -0.0331  0.2901  0.0218
  151SAPE    C116674   5.742   0.667   6.526  0.1582  0.2340  0.2587
  151SAPE    HA16675   5.803   0.574   6.529  0.3908  0.3744 -0.1377
  151SAPE    HB16676   5.818   0.745   6.545 -0.4998  0.7352  0.8660
  151SAPE    C216677   5.654   0.664   6.655 -0.3260  0.1973 -0.2994
  151SAPE    HS16678   5.594   0.758   6.663 -1.8874 -0.7700 -0.3033
  151SAPE   O2116679   5.729   0.645   6.773 -0.3947 -0.5523  0.3979
  151SAPE   C2116680   5.801   0.754   6.806 -0.5973  0.5586  0.2777
  151SAPE   O2216681   5.804   0.863   6.747 -0.4559 -0.0881 -0.2009
  151SAPE   C2216682   5.882   0.726   6.932 -0.2747  0.2302  0.6464
  151SAPE   H2R16683   5.830   0.650   6.993  0.0738  0.8990  1.8161
  151SAPE   H2S16684   5.983   0.692   6.901  0.6066  2.3560  0.9345
  151SAPE    C316685   5.562   0.547   6.649  0.3125  0.6748 -0.8115
  151SAPE    HX16686   5.605   0.467   6.585 -0.7627 -0.7401  0.1733
  151SAPE    HY16687   5.472   0.579   6.593 -0.1506 -0.5283 -0.7840
  151SAPE   O3116688   5.519   0.487   6.776 -0.3519 -0.5597  0.2890
  151SAPE   C3116689   5.432   0.565   6.839  0.2795 -0.4614  0.6264
  151SAPE   O3216690   5.379   0.665   6.785 -0.5221 -0.3052 -0.1979
  151SAPE   C3216691   5.428   0.536   6.990 -0.6329 -0.4370  0.2720
  151SAPE   H2X16692   5.414   0.428   7.011 -2.4392 -0.4715 -0.8874
  151SAPE   H2Y16693   5.339   0.592   7.027  0.5086  1.7426 -0.1104
  151SAPE   C2316694   5.902   0.852   7.018  0.5664 -0.9574 -0.0028
  151SAPE   H3R16695   5.807   0.877   7.070 -0.6605  0.0140 -2.5171
  151SAPE   H3S16696   5.934   0.944   6.965 -1.1412  0.0040  0.5611
  151SAPE   C2416697   6.012   0.839   7.130  0.0944  0.3710 -0.4357
  151SAPE   H4R16698   6.102   0.804   7.077  0.8123  1.8303 -0.2279
  151SAPE   H4S16699   5.980   0.746   7.183  0.4207 -0.4431 -1.6235
  151SAPE   C2516700   6.035   0.951   7.228 -0.4617 -0.1896  0.0945
  151SAPE   H5R16701   6.096   1.028   7.178  0.6788 -0.1391  1.5175
  151SAPE   C2616702   5.994   0.963   7.351  0.0019 -0.8677  0.3641
  151SAPE   H6R16703   6.035   1.056   7.393  0.4529  0.6569 -3.0610
  151SAPE   C2716704   5.917   0.878   7.439  0.2562  0.4446  0.0639
  151SAPE   H7R16705   5.877   0.796   7.375  2.5725 -1.2270  0.6149
  151SAPE   H7S16706   5.821   0.928   7.463  0.1086 -0.0219  0.4688
  151SAPE   C2816707   5.994   0.816   7.556  0.5986  0.0915  0.2251
  151SAPE   H8R16708   6.086   0.759   7.537  0.8456 -0.5684  3.0606
  151SAPE   C2916709   5.972   0.836   7.685 -0.2853 -0.1107 -0.6998
  151SAPE   H9R16710   6.030   0.772   7.754  2.0222  1.0825 -1.4322
  151SAPE  C21016711   5.866   0.932   7.746 -0.2774  0.1188  0.5706
  151SAPE  H10R16712   5.820   0.999   7.670 -0.7677 -0.9112 -0.0766
  151SAPE  H10S16713   5.908   1.015   7.806 -1.3082  2.1830 -1.3550
  151SAPE  C21116714   5.755   0.854   7.807 -0.0533  0.5128 -0.5438
  151SAPE  H11R16715   5.716   0.780   7.736 -1.0202  0.4023  0.0843
  151SAPE  C21216716   5.696   0.875   7.925  0.1837  0.9661  0.0006
  151SAPE  H12R16717   5.611   0.811   7.952  0.6011 -0.0377 -0.9507
  151SAPE  C21316718   5.731   0.977   8.030 -0.3252  0.8018  0.5498
  151SAPE  H13R16719   5.645   1.046   8.045  0.1044  1.8436 -1.5210
  151SAPE  H13S16720   5.824   1.037   8.015 -0.0343  0.2892  0.2715
  151SAPE  C21416721   5.756   0.895   8.158 -0.1977  0.5834 -0.2147
  151SAPE  H14R16722   5.760   0.786   8.147  1.9483  0.6480 -0.4450
  151SAPE  C21516723   5.738   0.931   8.283  0.2531 -0.6155  0.3658
  151SAPE  H15R16724   5.761   0.862   8.366  0.5955  0.2590  1.0159
  151SAPE  C21616725   5.711   1.076   8.330  0.4116 -0.7810 -0.3253
  151SAPE  H16R16726   5.621   1.078   8.395  1.9780  0.9610  1.9548
  151SAPE  H16S16727   5.695   1.147   8.246 -0.2480  1.9080  1.9420
  151SAPE  C21716728   5.839   1.128   8.408  0.0272  0.4801 -0.3092
  151SAPE  H17R16729   5.868   1.053   8.485 -2.6853 -3.0388 -2.3704
  151SAPE  H17S16730   5.820   1.229   8.448 -0.8286  0.5988 -0.9696
  151SAPE  C21816731   5.961   1.139   8.318  0.5639  0.2324 -0.0467
  151SAPE  H18R16732   5.950   1.199   8.226 -0.4846 -2.2613 -1.6637
  151SAPE  H18S16733   5.992   1.043   8.272  0.1054 -0.6149  1.3314
  151SAPE  C21916734   6.084   1.201   8.389 -0.0307  0.4161  0.6965
  151SAPE  H19R16735   6.107   1.151   8.486  1.3172  1.0771  0.7536
  151SAPE  H19S16736   6.073   1.310   8.408  1.4317  0.7250 -0.0614
  151SAPE  C22016737   6.210   1.172   8.303 -0.5567  0.3889 -0.2296
  151SAPE  H20R16738   6.302   1.206   8.354  0.4547 -3.6297  0.9985
  151SAPE  H20S16739   6.221   1.061   8.299 -0.5949  0.2865  1.6470
  151SAPE  H20T16740   6.195   1.208   8.199  1.3544  0.1297 -0.6266
  151SAPE   C3316741   5.553   0.583   7.066  0.5156 -0.4944  0.0098
  151SAPE   H3X16742   5.571   0.692   7.058 -0.4749 -0.4459 -2.4139
  151SAPE   H3Y16743   5.638   0.529   7.019  0.4781  1.0368 -1.9514
  151SAPE   C3416744   5.543   0.548   7.215 -0.1970  0.6433 -0.2924
  151SAPE   H4X16745   5.526   0.439   7.229 -0.8890  0.7250 -0.4403
  151SAPE   H4Y16746   5.452   0.593   7.258  0.5591  1.0977  0.8789
  151SAPE   C3516747   5.671   0.589   7.286  0.6582 -0.3895  0.3101
  151SAPE   H5X16748   5.672   0.701   7.285 -0.4868 -0.3279 -1.9603
  151SAPE   H5Y16749   5.760   0.550   7.233  0.4665  0.0948 -0.3951
  151SAPE   C3616750   5.664   0.527   7.425 -0.1396 -0.5370 -0.5911
  151SAPE   H6X16751   5.761   0.549   7.475 -0.2874  1.4710 -1.1303
  151SAPE   H6Y16752   5.665   0.417   7.411  2.4944 -0.6925  0.1391
  151SAPE   C3716753   5.552   0.593   7.512 -0.4656  0.2421  0.0787
  151SAPE   H7X16754   5.451   0.571   7.473 -0.8064 -1.5913  1.8037
  151SAPE   H7Y16755   5.566   0.703   7.518 -3.0561  0.6598 -0.5742
  151SAPE   C3816756   5.556   0.530   7.655  0.0879  0.2192 -0.0946
  151SAPE   H8X16757   5.654   0.531   7.708 -0.1834 -0.2601  0.4364
  151SAPE   H8Y16758   5.521   0.426   7.639  1.7417 -0.2580 -0.7179
  151SAPE   C3916759   5.455   0.603   7.757 -0.7711  0.0137  0.0340
  151SAPE   H9X16760   5.359   0.617   7.705 -0.5141 -1.2930 -0.8470
  151SAPE   H9Y16761   5.507   0.701   7.768  1.3570 -0.9335 -0.8856
  151SAPE  C31016762   5.437   0.544   7.896  0.2365 -0.7416 -0.0062
  151SAPE  H10X16763   5.532   0.552   7.953  0.9627  0.0555 -1.2728
  151SAPE  H10Y16764   5.413   0.436   7.907  2.5034 -1.1462  1.6428
  151SAPE  C31116765   5.334   0.624   7.970 -0.1606  0.0892 -0.8474
  151SAPE  H11X16766   5.240   0.602   7.914  0.7900 -2.2846 -1.6620
  151SAPE  H11Y16767   5.349   0.733   7.984 -3.5469  0.4878  0.4928
  151SAPE  C31216768   5.315   0.585   8.114  0.3442  0.0102  0.3424
  151SAPE  H12X16769   5.321   0.476   8.134 -0.6738 -0.3251 -1.0004
  151SAPE  H12Y16770   5.209   0.609   8.140  0.0565  0.5440 -1.2078
  151SAPE  C31316771   5.409   0.642   8.208 -0.2198  0.2802  0.0981
  151SAPE  H13X16772   5.415   0.752   8.193  2.1509  0.1247 -0.4397
  151SAPE  H13Y16773   5.512   0.604   8.188 -0.4801  0.6277 -2.1059
  151SAPE  C31416774   5.363   0.615   8.356 -0.0376 -0.0618  0.8500
  151SAPE  H14X16775   5.364   0.504   8.362  1.5091 -0.4146 -2.8558
  151SAPE  H14Y16776   5.263   0.660   8.375  0.0585 -0.8712  3.7682
  151SAPE  C31516777   5.470   0.676   8.450  0.1989 -0.3543  0.0536
  151SAPE  H15X16778   5.464   0.787   8.448  3.0712 -0.1033  1.0743
  151SAPE  H15Y16779   5.569   0.658   8.401  0.8125 -0.0565  1.1458
  151SAPE  C31616780   5.472   0.635   8.598  0.2610 -0.5720  0.1228
  151SAPE  H16X16781   5.573   0.666   8.630  0.1695 -0.0430 -0.0951
  151SAPE  H16Y16782   5.460   0.525   8.604 -2.1103 -0.2939  2.0082
  151SAPE  C31716783   5.354   0.693   8.680 -0.1201  0.4553  0.9913
  151SAPE  H17X16784   5.256   0.680   8.629 -0.3120 -2.7326  1.9644
  151SAPE  H17Y16785   5.368   0.802   8.667  1.2570  0.0150 -2.3611
  151SAPE  C31816786   5.341   0.629   8.815 -0.2468 -0.7911  0.0610
  151SAPE  H18X16787   5.251   0.666   8.868 -0.3328  0.5273 -0.9469
  151SAPE  H18Y16788   5.427   0.646   8.883 -0.8078 -0.7585  0.7806
  151SAPE  H18Z16789   5.343   0.520   8.794  2.1377 -0.6896 -0.4584
  152SAPE     N16790   2.217   2.828   5.974  0.1274  0.0630  0.0772
  152SAPE   HN116791   2.297   2.778   6.017  1.1248  1.6824  0.1772
  152SAPE   HN216792   2.154   2.769   5.917 -0.7859  1.0394  0.0237
  152SAPE   HN316793   2.263   2.900   5.915 -0.6096  0.0733 -0.5035
  152SAPE   C1216794   2.130   2.903   6.072  0.2775 -0.0951  0.5837
  152SAPE  H12A16795   2.049   2.829   6.081  0.2884 -0.1749  0.0502
  152SAPE  H12B16796   2.088   2.993   6.021 -0.0671 -1.8371 -2.4142
  152SAPE   C1116797   2.216   2.947   6.190  0.4391 -0.1338 -0.1292
  152SAPE  H11A16798   2.239   2.863   6.260  1.4263  1.3519  1.4247
  152SAPE  H11B16799   2.152   3.006   6.259 -1.4760 -1.6446 -0.5397
  152SAPE     P16800   2.356   3.171   6.148 -0.4050  0.0530 -0.1717
  152SAPE   O1316801   2.490   3.200   6.101 -0.3352 -0.2017 -0.4123
  152SAPE   O1416802   2.234   3.204   6.069  0.0518  0.1861 -0.4966
  152SAPE   O1216803   2.343   3.012   6.157  0.4267  0.1612 -0.6740
  152SAPE   O1116804   2.338   3.213   6.297 -0.0757  0.4202  0.8514
  152SAPE    C116805   2.456   3.244   6.376  0.5251 -0.7149  0.4134
  152SAPE    HA16806   2.539   3.180   6.341 -1.0403 -0.1894 -5.4568
  152SAPE    HB16807   2.486   3.350   6.358 -1.0901 -0.5976 -2.2455
  152SAPE    C216808   2.422   3.228   6.521  0.7066 -0.1583 -0.2531
  152SAPE    HS16809   2.503   3.244   6.595  0.7375 -1.2043 -0.0346
  152SAPE   O2116810   2.375   3.089   6.528  0.3189 -0.2853 -0.2198
  152SAPE   C2116811   2.464   2.996   6.538 -0.3370  0.5932 -0.2858
  152SAPE   O2216812   2.587   3.007   6.527 -0.1154  0.3513 -0.8193
  152SAPE   C2216813   2.394   2.866   6.565  0.0081  1.2849  0.2083
  152SAPE   H2R16814   2.283   2.870   6.564 -0.0062  1.2831 -1.2214
  152SAPE   H2S16815   2.429   2.793   6.489 -1.0547  0.1934  0.7296
  152SAPE    C316816   2.300   3.321   6.556  0.2559  0.4365  0.2303
  152SAPE    HX16817   2.211   3.298   6.493  0.7764 -0.4451 -0.2129
  152SAPE    HY16818   2.326   3.424   6.526  1.1305  0.0677 -0.3329
  152SAPE   O3116819   2.276   3.331   6.701  0.5476  0.4601  0.1084
  152SAPE   C3116820   2.153   3.333   6.737 -0.1926  0.0869 -0.2297
  152SAPE   O3216821   2.061   3.289   6.677  0.2497  0.3316  0.3988
  152SAPE   C3216822   2.140   3.398   6.874 -0.1521 -0.0116 -0.5353
  152SAPE   H2X16823   2.031   3.399   6.896  0.5446 -1.0167  3.7608
  152SAPE   H2Y16824   2.180   3.501   6.879 -0.1082 -0.0364 -0.3621
  152SAPE   C2316825   2.426   2.800   6.703  0.2652  0.4806  0.5039
  152SAPE   H3R16826   2.536   2.809   6.704  0.2869  3.0394 -3.0296
  152SAPE   H3S16827   2.379   2.699   6.696 -1.7746  1.3846  0.2255
  152SAPE   C2416828   2.357   2.878   6.818 -0.3937 -0.2564 -0.6003
  152SAPE   H4R16829   2.357   2.811   6.907  1.3666  0.4521 -0.0344
  152SAPE   H4S16830   2.249   2.895   6.798 -1.2246 -0.0095  3.1876
  152SAPE   C2516831   2.425   3.007   6.852 -0.2183 -0.6713  0.3559
  152SAPE   H5R16832   2.396   3.096   6.794  0.1334 -1.3828 -0.9421
  152SAPE   C2616833   2.523   3.023   6.948  0.3153  0.4771 -0.2508
  152SAPE   H6R16834   2.562   3.126   6.956 -2.1254  1.3081  3.7130
  152SAPE   C2716835   2.589   2.917   7.030 -0.1612  0.1937 -0.1511
  152SAPE   H7R16836   2.697   2.933   7.010 -0.1339 -0.6321 -0.7082
  152SAPE   H7S16837   2.576   2.815   6.988  2.1451  0.0501 -0.6373
  152SAPE   C2816838   2.555   2.934   7.178  0.6070 -0.2301 -0.1174
  152SAPE   H8R16839   2.448   2.952   7.198  0.3902 -3.2705  2.2869
  152SAPE   C2916840   2.642   2.949   7.279 -0.5207  0.2492 -0.2448
  152SAPE   H9R16841   2.602   2.969   7.379 -0.8691 -0.1779 -0.2982
  152SAPE  C21016842   2.795   2.938   7.278  0.3274 -0.5217 -0.3545
  152SAPE  H10R16843   2.828   2.934   7.171  4.1237  0.3247  0.6226
  152SAPE  H10S16844   2.838   2.851   7.331  2.1992 -0.3230 -1.4354
  152SAPE  C21116845   2.878   3.061   7.322  0.4992 -0.0650 -0.2749
  152SAPE  H11R16846   2.855   3.163   7.288  0.3598  0.8404  2.3457
  152SAPE  C21216847   2.986   3.049   7.402 -0.1674 -0.7534  1.0425
  152SAPE  H12R16848   3.037   3.143   7.429  1.6499 -1.1296 -0.8566
  152SAPE  C21316849   3.048   2.924   7.467  0.4091 -0.3947 -0.1356
  152SAPE  H13R16850   3.158   2.936   7.470  0.1892  1.7995  2.3697
  152SAPE  H13S16851   3.021   2.838   7.401 -3.0127 -0.0452  0.5958
  152SAPE  C21416852   2.999   2.905   7.612  0.5500  0.4748  0.0314
  152SAPE  H14R16853   2.898   2.938   7.638 -0.2453 -1.1986 -0.7616
  152SAPE  C21516854   3.058   2.861   7.724 -1.3333  0.2223 -0.3874
  152SAPE  H15R16855   3.004   2.872   7.819  0.1231 -0.1566  0.5149
  152SAPE  C21616856   3.201   2.821   7.722  0.0529 -0.2413  0.1868
  152SAPE  H16R16857   3.260   2.870   7.642  1.7747 -2.4025  0.0172
  152SAPE  H16S16858   3.210   2.710   7.725 -2.6694 -0.5099  1.2998
  152SAPE  C21716859   3.271   2.878   7.849 -0.5008  0.4444 -0.1301
  152SAPE  H17R16860   3.201   2.857   7.933  1.0370  1.5608  1.5085
  152SAPE  H17S16861   3.279   2.988   7.842  1.0921  0.3132 -0.9016
  152SAPE  C21816862   3.407   2.821   7.886  0.6803  0.8140 -0.3246
  152SAPE  H18R16863   3.475   2.857   7.806 -0.4676  3.0493 -0.3529
  152SAPE  H18S16864   3.417   2.711   7.872 -0.1098  0.3188  2.3757
  152SAPE  C21916865   3.456   2.855   8.018 -0.1785 -0.9252 -0.0210
  152SAPE  H19R16866   3.420   2.951   8.062 -1.6626 -0.4347 -2.1206
  152SAPE  H19S16867   3.567   2.849   8.017 -0.1120 -0.8757  2.4126
  152SAPE  C22016868   3.414   2.751   8.130 -0.3322  0.1547  0.5438
  152SAPE  H20R16869   3.308   2.754   8.164 -0.8330 -1.5159 -0.7334
  152SAPE  H20S16870   3.474   2.778   8.219 -1.8300 -0.2762  1.7166
  152SAPE  H20T16871   3.440   2.647   8.103 -1.9099 -0.1777  0.2187
  152SAPE   C3316872   2.205   3.306   6.984  0.0040 -0.4937 -0.9571
  152SAPE   H3X16873   2.245   3.367   7.068 -2.5109 -0.6538  0.4649
  152SAPE   H3Y16874   2.299   3.261   6.945  0.8936  0.7549 -0.3023
  152SAPE   C3416875   2.110   3.202   7.037  0.4382  0.0920 -0.2207
  152SAPE   H4X16876   2.104   3.129   6.953  1.4924  1.8485 -1.9059
  152SAPE   H4Y16877   2.011   3.251   7.056  0.9861  0.9672  0.4715
  152SAPE   C3516878   2.170   3.133   7.157 -0.2111  0.6350 -0.4510
  152SAPE   H5X16879   2.260   3.083   7.115 -1.4237 -1.3356 -0.8518
  152SAPE   H5Y16880   2.105   3.045   7.177 -0.8409  1.4446  1.1949
  152SAPE   C3616881   2.175   3.211   7.285  0.2230  0.0741  0.5146
  152SAPE   H6X16882   2.074   3.249   7.313  0.8888  0.9539  1.8304
  152SAPE   H6Y16883   2.247   3.296   7.274  0.6178 -0.1551  1.2880
  152SAPE   C3716884   2.222   3.134   7.406 -0.0644 -0.0478  0.1630
  152SAPE   H7X16885   2.310   3.072   7.380 -1.0151 -0.6653 -1.7829
  152SAPE   H7Y16886   2.149   3.056   7.438 -0.3645 -0.0115 -0.4096
  152SAPE   C3816887   2.266   3.223   7.523  0.2386 -0.2081 -0.2352
  152SAPE   H8X16888   2.186   3.298   7.541 -1.2284 -1.6248 -0.6052
  152SAPE   H8Y16889   2.354   3.284   7.497 -0.2789  0.6836  0.0657
  152SAPE   C3916890   2.282   3.153   7.652 -0.3757  0.3287 -0.0374
  152SAPE   H9X16891   2.198   3.084   7.677  0.4427  0.2384  2.8066
  152SAPE   H9Y16892   2.293   3.230   7.731  0.2854  0.6876 -0.4729
  152SAPE  C31016893   2.412   3.061   7.647 -0.0050  0.1912 -0.3238
  152SAPE  H10X16894   2.483   3.109   7.576 -2.0141  1.1415 -1.8061
  152SAPE  H10Y16895   2.384   2.963   7.604 -0.3371  0.2905 -0.3393
  152SAPE  C31116896   2.477   3.045   7.784 -0.8325 -0.2850 -0.0075
  152SAPE  H11X16897   2.413   2.995   7.860 -1.3785  0.9291  0.3575
  152SAPE  H11Y16898   2.524   3.141   7.814 -0.9266 -0.6831  1.4750
  152SAPE  C31216899   2.585   2.933   7.782  0.4097 -0.2171 -0.3140
  152SAPE  H12X16900   2.637   2.948   7.685 -1.5952 -1.5168 -1.6757
  152SAPE  H12Y16901   2.534   2.834   7.778 -0.9781  0.4045  1.1616
  152SAPE  C31316902   2.689   2.924   7.896  0.1076  0.0048 -0.3871
  152SAPE  H13X16903   2.760   2.839   7.882 -1.5996 -1.7543  1.1111
  152SAPE  H13Y16904   2.622   2.903   7.982 -0.2832 -0.2769 -0.7557
  152SAPE  C31416905   2.770   3.052   7.925 -0.2301 -0.9519 -0.4116
  152SAPE  H14X16906   2.703   3.122   7.980 -1.0071 -0.9040 -1.4044
  152SAPE  H14Y16907   2.805   3.082   7.825  1.2572 -0.9547  0.0897
  152SAPE  C31516908   2.894   3.031   8.027 -0.4079 -0.0815  0.2051
  152SAPE  H15X16909   2.906   3.134   8.066 -3.3268  0.4726 -0.1964
  152SAPE  H15Y16910   2.984   3.002   7.969 -1.4062 -0.3069 -1.2648
  152SAPE  C31616911   2.869   2.935   8.143 -0.0999 -0.0911  0.4741
  152SAPE  H16X16912   2.820   2.841   8.110  1.0513  0.0129 -1.7108
  152SAPE  H16Y16913   2.810   2.983   8.224  0.9655  0.8079  0.7389
  152SAPE  C31716914   3.004   2.899   8.201 -0.2578 -0.4951 -1.0614
  152SAPE  H17X16915   3.069   2.984   8.231 -2.5620  1.6754 -1.8578
  152SAPE  H17Y16916   3.052   2.834   8.124  1.2030 -2.3715  1.2920
  152SAPE  C31816917   3.007   2.810   8.327  0.5720 -0.3545 -0.1584
  152SAPE  H18X16918   2.960   2.844   8.421  0.9921 -1.6528  0.5437
  152SAPE  H18Y16919   3.116   2.806   8.347  0.6282  0.8680 -0.1509
  152SAPE  H18Z16920   2.976   2.705   8.304 -2.4945  0.1678  1.0883
  153SAPE     N16921   5.073   4.003   6.253  0.4389  0.6926 -0.1190
  153SAPE   HN116922   4.993   3.939   6.240 -0.1317  1.4490 -0.3932
  153SAPE   HN216923   5.165   3.956   6.238  1.5521  2.9332 -0.8016
  153SAPE   HN316924   5.071   4.039   6.351 -2.5087 -0.4183  0.3055
  153SAPE   C1216925   5.071   4.113   6.159  0.1400  0.2675  0.8264
  153SAPE  H12A16926   4.971   4.162   6.159  0.1038  0.2090  0.0615
  153SAPE  H12B16927   5.085   4.066   6.060  0.1173 -0.5161  1.1922
  153SAPE   C1116928   5.176   4.226   6.181  0.4710 -0.5238 -0.4846
  153SAPE  H11A16929   5.146   4.324   6.138  3.2959  1.1926  1.1756
  153SAPE  H11B16930   5.270   4.193   6.130  2.2942  0.4279  2.0704
  153SAPE     P16931   5.309   4.378   6.357 -0.0834  0.1618 -0.6002
  153SAPE   O1316932   5.426   4.370   6.268 -0.3688  0.3511 -0.4172
  153SAPE   O1416933   5.224   4.497   6.352  0.0935  0.0544  0.1010
  153SAPE   O1216934   5.213   4.252   6.323  0.1713 -0.6377  1.1208
  153SAPE   O1116935   5.353   4.355   6.516 -0.4002 -0.0254 -0.2369
  153SAPE    C116936   5.405   4.222   6.542  0.8095  0.0084 -0.3728
  153SAPE    HA16937   5.312   4.165   6.566 -0.6617  0.6072 -4.0371
  153SAPE    HB16938   5.441   4.166   6.454 -0.6644 -0.6474 -0.5901
  153SAPE    C216939   5.517   4.213   6.645 -0.6457  0.6542  0.2520
  153SAPE    HS16940   5.531   4.110   6.684  1.4009 -0.5244 -3.1325
  153SAPE   O2116941   5.481   4.299   6.758  0.1335  0.3915  0.1503
  153SAPE   C2116942   5.458   4.248   6.873  0.7452 -0.3907 -0.0704
  153SAPE   O2216943   5.477   4.132   6.908  0.1830 -0.3170  0.3391
  153SAPE   C2216944   5.428   4.360   6.972  0.0543  0.0591  0.1273
  153SAPE   H2R16945   5.321   4.383   6.953  0.2950  0.5151 -0.7091
  153SAPE   H2S16946   5.445   4.317   7.073 -2.6140 -0.0390  0.6105
  153SAPE    C316947   5.652   4.255   6.592 -0.3800 -0.0482  1.0839
  153SAPE    HX16948   5.645   4.347   6.530 -0.1291 -0.3035  0.6719
  153SAPE    HY16949   5.680   4.197   6.502 -1.9875 -0.5119  0.8536
  153SAPE   O3116950   5.753   4.262   6.702 -0.4887 -0.1684 -0.0511
  153SAPE   C3116951   5.809   4.150   6.741 -0.0009 -0.1941 -0.3384
  153SAPE   O3216952   5.786   4.048   6.687 -0.5159 -0.3288  0.3341
  153SAPE   C3216953   5.883   4.163   6.875 -0.2082  0.3075 -0.0788
  153SAPE   H2X16954   5.807   4.157   6.955 -0.0193 -0.5054  0.0524
  153SAPE   H2Y16955   5.930   4.264   6.874 -0.5871  0.4870  0.1319
  153SAPE   C2316956   5.515   4.490   6.945  0.3690  0.4418  0.1773
  153SAPE   H3R16957   5.473   4.553   6.863  1.0110 -0.6794 -1.0692
  153SAPE   H3S16958   5.621   4.462   6.925  0.1792  0.7256 -1.4103
  153SAPE   C2416959   5.513   4.593   7.063 -0.5749  1.3884  0.2253
  153SAPE   H4R16960   5.588   4.672   7.042  0.6360  0.0141 -0.7931
  153SAPE   H4S16961   5.555   4.548   7.156  4.8354  0.3560 -2.3205
  153SAPE   C2516962   5.380   4.650   7.099 -0.1537  0.3697 -0.1053
  153SAPE   H5R16963   5.304   4.625   7.024  0.7833  0.4772 -1.1239
  153SAPE   C2616964   5.351   4.724   7.209 -0.0249  0.2430  0.2953
  153SAPE   H6R16965   5.247   4.751   7.232 -0.5255 -1.9890  0.9003
  153SAPE   C2716966   5.455   4.760   7.318  0.1768  0.1511  0.4880
  153SAPE   H7R16967   5.455   4.684   7.400  0.6605  1.9347  2.2357
  153SAPE   H7S16968   5.413   4.850   7.369 -0.2123 -0.3534  1.0672
  153SAPE   C2816969   5.589   4.809   7.274  0.1708  0.2217  0.5810
  153SAPE   H8R16970   5.601   4.834   7.168  0.5945 -3.1462 -0.2845
  153SAPE   C2916971   5.700   4.820   7.344  0.0930 -0.1487 -0.0939
  153SAPE   H9R16972   5.787   4.838   7.279  0.1657  1.9646  0.5199
  153SAPE  C21016973   5.716   4.791   7.487 -0.0837  0.8362 -0.0483
  153SAPE  H10R16974   5.621   4.744   7.521  0.4591  0.1677  0.6063
  153SAPE  H10S16975   5.720   4.882   7.550 -0.2117 -0.3649  1.7993
  153SAPE  C21116976   5.824   4.693   7.512 -0.0603  0.0389 -0.3896
  153SAPE  H11R16977   5.835   4.600   7.454  4.5502 -0.5615  1.0046
  153SAPE  C21216978   5.926   4.700   7.603  0.4811 -0.3539 -0.7685
  153SAPE  H12R16979   5.997   4.617   7.610 -2.1040 -2.6476  0.0719
  153SAPE  C21316980   5.948   4.815   7.700 -0.9642  0.3538  0.3282
  153SAPE  H13R16981   5.924   4.907   7.643  0.8723  0.2550 -0.6872
  153SAPE  H13S16982   6.057   4.827   7.719 -0.6855 -0.8649 -0.4452
  153SAPE  C21416983   5.874   4.822   7.829  0.0365  0.1999 -0.3305
  153SAPE  H14R16984   5.764   4.823   7.828  0.0080  0.6433  1.3051
  153SAPE  C21516985   5.943   4.843   7.943  0.3507 -0.2594 -0.8580
  153SAPE  H15R16986   5.884   4.858   8.034  1.0961 -0.6923 -0.2994
  153SAPE  C21616987   6.086   4.861   7.963 -0.6879  0.0908  0.5881
  153SAPE  H16R16988   6.104   4.960   8.011  1.5582  1.5044 -2.8171
  153SAPE  H16S16989   6.150   4.866   7.873 -2.5648 -0.4546 -0.8286
  153SAPE  C21716990   6.137   4.759   8.055  0.0722  0.0713  0.0798
  153SAPE  H17R16991   6.094   4.768   8.157  0.0172  1.4652 -0.0436
  153SAPE  H17S16992   6.245   4.768   8.078 -0.6538  1.7225  3.4187
  153SAPE  C21816993   6.120   4.614   8.004  0.2594  0.4404  0.8530
  153SAPE  H18R16994   6.166   4.603   7.903  0.0921 -1.8634  0.9788
  153SAPE  H18S16995   6.014   4.589   7.983  1.4130 -1.9915 -3.4405
  153SAPE  C21916996   6.198   4.520   8.094  0.2464 -0.1646 -0.2357
  153SAPE  H19R16997   6.158   4.519   8.197 -0.8499  1.5899 -0.5952
  153SAPE  H19S16998   6.307   4.538   8.106  0.2643  0.1143 -0.7631
  153SAPE  C22016999   6.200   4.378   8.047  0.0902  0.3856  0.0021
  153SAPE  H20R17000   6.252   4.370   7.949  0.8470  0.1725  0.4163
  153SAPE  H20S17001   6.095   4.345   8.030  0.4998  0.4858 -3.6287
  153SAPE  H20T17002   6.242   4.308   8.122 -0.3174 -0.0499 -0.1666
  153SAPE   C3317003   5.994   4.057   6.897 -0.5928 -0.1240  0.8708
  153SAPE   H3X17004   6.066   4.054   6.813  0.6132  1.4919  1.7799
  153SAPE   H3Y17005   5.945   3.960   6.918 -1.5873  0.0560 -0.4923
  153SAPE   C3417006   6.077   4.090   7.024  0.2008 -0.5832 -0.3031
  153SAPE   H4X17007   6.022   4.103   7.119  0.3334 -0.5206 -0.2344
  153SAPE   H4Y17008   6.134   4.180   6.992 -1.7395  0.2082 -1.7117
  153SAPE   C3517009   6.181   3.989   7.054  0.2729  0.2399  0.0697
  153SAPE   H5X17010   6.237   3.964   6.962  0.0389 -0.4062  0.0969
  153SAPE   H5Y17011   6.147   3.888   7.087  0.8489  0.4850  1.4668
  153SAPE   C3617012   6.266   4.039   7.169  0.3564 -0.7649 -0.2058
  153SAPE   H6X17013   6.244   4.147   7.181 -0.3170 -0.8049 -1.0714
  153SAPE   H6Y17014   6.376   4.025   7.163  0.7385 -0.2236  3.1979
  153SAPE   C3717015   6.228   3.978   7.302 -0.1295  0.1587 -0.1302
  153SAPE   H7X17016   6.244   3.868   7.297  0.8222  0.3154 -0.7547
  153SAPE   H7Y17017   6.119   3.994   7.321 -0.0506  0.9931 -0.3430
  153SAPE   C3817018   6.307   4.030   7.421  1.1748 -0.4156  0.7864
  153SAPE   H8X17019   6.293   4.141   7.425 -0.4722 -0.5138 -0.8828
  153SAPE   H8Y17020   6.411   4.011   7.385  1.4976  0.3860  1.2531
  153SAPE   C3917021   6.275   3.973   7.551 -0.3488  0.7967  0.4474
  153SAPE   H9X17022   6.275   3.862   7.558 -1.1832  0.6909 -0.8104
  153SAPE   H9Y17023   6.173   3.998   7.586 -0.6165 -0.3364  0.5180
  153SAPE  C31017024   6.378   4.009   7.652 -0.2241  0.9187 -0.8750
  153SAPE  H10X17025   6.383   4.120   7.648  0.1646  0.8679 -1.9907
  153SAPE  H10Y17026   6.478   3.973   7.621  0.9457  2.5686  0.7900
  153SAPE  C31117027   6.340   3.967   7.800  0.5518  0.0599 -0.2160
  153SAPE  H11X17028   6.316   3.859   7.804 -1.2849  0.3452 -1.6235
  153SAPE  H11Y17029   6.243   4.016   7.825  0.9033  0.4970  0.3014
  153SAPE  C31217030   6.437   3.998   7.916 -0.7021  0.4256 -0.3603
  153SAPE  H12X17031   6.450   4.108   7.915  2.9596  0.1435  0.2694
  153SAPE  H12Y17032   6.531   3.943   7.891  0.0075  1.5552 -0.2450
  153SAPE  C31317033   6.379   3.953   8.057  0.2304 -0.2707 -0.4222
  153SAPE  H13X17034   6.343   3.850   8.038  0.3441  0.1235 -3.1063
  153SAPE  H13Y17035   6.293   4.018   8.084  0.2802 -1.2273  2.3600
  153SAPE  C31417036   6.481   3.955   8.170  0.0000  0.7035 -0.0833
  153SAPE  H14X17037   6.566   3.889   8.141 -0.7395  0.1365 -1.0509
  153SAPE  H14Y17038   6.442   3.906   8.261 -1.3850  0.2966 -0.8616
  153SAPE  C31517039   6.529   4.096   8.212 -0.2457 -0.2962  0.1176
  153SAPE  H15X17040   6.475   4.134   8.301 -0.8919  1.3343 -0.9133
  153SAPE  H15Y17041   6.515   4.179   8.139  2.3793  0.0524 -0.1212
  153SAPE  C31617042   6.685   4.093   8.238  0.4321  0.2635  0.2266
  153SAPE  H16X17043   6.739   4.105   8.141 -2.1042 -0.0319 -1.3074
  153SAPE  H16Y17044   6.717   3.993   8.275  2.4977  0.2072 -1.4789
  153SAPE  C31717045   6.738   4.196   8.346 -0.1329  0.8160 -0.2706
  153SAPE  H17X17046   6.657   4.195   8.422 -1.8680 -0.3891 -2.0087
  153SAPE  H17Y17047   6.735   4.297   8.301 -2.0495  0.9852  0.1510
  153SAPE  C31817048   6.878   4.165   8.400 -0.3533  0.4500 -0.0304
  153SAPE  H18X17049   6.954   4.203   8.329  0.3145 -2.5240 -1.0578
  153SAPE  H18Y17050   6.894   4.056   8.417 -0.0775  0.5298  0.2326
  153SAPE  H18Z17051   6.885   4.215   8.499 -2.4393 -1.5331  1.2256
  154SAPE     N17052   4.445   4.007   6.048  0.2072 -0.0525 -0.4750
  154SAPE   HN117053   4.454   4.057   6.140  0.0784  0.7411 -0.8819
  154SAPE   HN217054   4.540   4.008   6.007  0.2531  0.4761 -0.3733
  154SAPE   HN317055   4.388   4.065   5.983 -0.5360 -2.0007 -1.6255
  154SAPE   C1217056   4.364   3.881   6.066 -0.4844 -0.1612 -0.0528
  154SAPE  H12A17057   4.420   3.795   6.108  0.7803  0.6298 -0.0658
  154SAPE  H12B17058   4.323   3.857   5.966  2.0863 -0.2935 -1.1605
  154SAPE   C1117059   4.251   3.907   6.169  0.3373 -0.7855  0.1892
  154SAPE  H11A17060   4.297   3.954   6.259  1.7481 -0.7711 -0.5211
  154SAPE  H11B17061   4.213   3.810   6.208  1.6005 -0.4658  2.4203
  154SAPE     P17062   4.001   3.987   6.156  0.2473  0.1892  0.5532
  154SAPE   O1317063   3.959   4.122   6.180 -0.0695 -0.0117  0.4858
  154SAPE   O1417064   3.927   3.903   6.059  0.9351  0.8134 -0.3296
  154SAPE   O1217065   4.145   3.991   6.110 -0.2304  0.9223  0.5459
  154SAPE   O1117066   4.004   3.914   6.293  0.7366  0.4060  0.0821
  154SAPE    C117067   3.891   3.831   6.330  0.6158 -0.6027  0.1435
  154SAPE    HA17068   3.804   3.894   6.357 -0.8599 -1.5030 -2.2144
  154SAPE    HB17069   3.872   3.762   6.245  1.4792  1.6383 -1.9590
  154SAPE    C217070   3.931   3.740   6.457 -0.3788 -0.5313 -0.0109
  154SAPE    HS17071   3.844   3.672   6.467 -2.4019  2.1258  1.6392
  154SAPE   O2117072   3.955   3.811   6.581  0.0941  0.2186  0.7863
  154SAPE   C2117073   3.846   3.869   6.636  0.3214  0.3311 -0.5836
  154SAPE   O2217074   3.732   3.862   6.592  0.6759 -0.2119 -0.3092
  154SAPE   C2217075   3.887   3.932   6.763 -0.4213  0.8819 -0.0659
  154SAPE   H2R17076   3.993   3.918   6.793  0.1005  1.5675 -1.5497
  154SAPE   H2S17077   3.856   4.037   6.749 -3.4828  0.4077  2.1104
  154SAPE    C317078   4.062   3.668   6.425 -0.5364  0.5628 -0.1940
  154SAPE    HX17079   4.144   3.742   6.417  0.8050 -1.0083 -1.9634
  154SAPE    HY17080   4.059   3.607   6.332 -0.0446  0.6416 -0.2627
  154SAPE   O3117081   4.096   3.586   6.531  0.0347 -0.3487 -0.3040
  154SAPE   C3117082   4.036   3.463   6.554  0.3737 -0.0591  0.6489
  154SAPE   O3217083   3.932   3.424   6.506 -0.5205  0.2558  0.2338
  154SAPE   C3217084   4.111   3.399   6.667 -0.5437  0.0639  0.0258
  154SAPE   H2X17085   4.146   3.473   6.742  1.7736 -2.7897  1.9387
  154SAPE   H2Y17086   4.204   3.357   6.624 -0.6852  1.2744 -1.5555
  154SAPE   C2317087   3.810   3.861   6.878  0.6341  0.0702 -0.5373
  154SAPE   H3R17088   3.840   3.755   6.898 -2.0218 -0.7551 -0.5953
  154SAPE   H3S17089   3.706   3.853   6.840  0.3620 -1.7025  0.4699
  154SAPE   C2417090   3.783   3.950   7.003 -0.4224  0.4765  0.0351
  154SAPE   H4R17091   3.726   3.880   7.067  0.6822 -0.5560 -0.0626
  154SAPE   H4S17092   3.728   4.036   6.959  2.5570  1.5972 -1.8395
  154SAPE   C2517093   3.909   3.993   7.071  0.5898 -0.8182 -0.1516
  154SAPE   H5R17094   3.951   4.086   7.031  0.6579 -0.3399  0.9874
  154SAPE   C2617095   3.966   3.946   7.180  0.3990  0.4505  0.1127
  154SAPE   H6R17096   4.055   3.999   7.218  0.2706  1.0649 -0.4172
  154SAPE   C2717097   3.926   3.839   7.279  0.2549 -0.6008  0.2762
  154SAPE   H7R17098   4.007   3.825   7.353  0.7596  1.9883  0.2859
  154SAPE   H7S17099   3.927   3.753   7.207  0.6106 -0.1289 -0.2928
  154SAPE   C2817100   3.796   3.852   7.342 -0.1086 -0.3422  0.3984
  154SAPE   H8R17101   3.720   3.898   7.276 -1.4220  1.9306  3.2606
  154SAPE   C2917102   3.759   3.815   7.464 -0.1817 -0.0272  0.1314
  154SAPE   H9R17103   3.657   3.841   7.494 -0.9963 -1.7687 -0.9820
  154SAPE  C21017104   3.853   3.762   7.568 -0.2879  0.6870  0.9201
  154SAPE  H10R17105   3.919   3.843   7.606  1.5249  0.1137 -0.7981
  154SAPE  H10S17106   3.910   3.674   7.531 -2.4841  0.0772 -1.3164
  154SAPE  C21117107   3.781   3.713   7.687 -0.7198  0.0735 -0.0414
  154SAPE  H11R17108   3.672   3.703   7.675 -0.5018 -0.9829 -1.3926
  154SAPE  C21217109   3.830   3.673   7.810 -0.6316  0.0481  0.5155
  154SAPE  H12R17110   3.762   3.633   7.887  0.3625  0.6767  1.7611
  154SAPE  C21317111   3.973   3.677   7.865  0.4755 -0.1958  0.5517
  154SAPE  H13R17112   3.974   3.746   7.951 -0.5142 -3.0438  3.0312
  154SAPE  H13S17113   4.051   3.712   7.794 -0.6847  1.6587  0.1343
  154SAPE  C21417114   4.007   3.533   7.916 -0.6603 -0.0388  0.1678
  154SAPE  H14R17115   4.025   3.471   7.827 -1.3407  1.5177 -1.1056
  154SAPE  C21517116   4.040   3.508   8.046 -0.2761  0.0387  0.3355
  154SAPE  H15R17117   4.068   3.404   8.069 -0.2252  0.0585  0.3635
  154SAPE  C21617118   4.038   3.602   8.162 -0.2702 -0.1802 -0.4763
  154SAPE  H16R17119   3.951   3.593   8.230 -0.3088  0.3316 -0.4558
  154SAPE  H16S17120   4.028   3.709   8.135  0.4964  0.2163  0.7263
  154SAPE  C21717121   4.167   3.603   8.245 -0.2990  0.4479 -0.1645
  154SAPE  H17R17122   4.209   3.504   8.273  0.3989  0.3987 -1.3385
  154SAPE  H17S17123   4.158   3.664   8.338 -0.0659  1.6841 -0.9205
  154SAPE  C21817124   4.281   3.663   8.163  0.6967 -0.1180  0.3057
  154SAPE  H18R17125   4.248   3.747   8.098 -0.2972  0.7420  1.8530
  154SAPE  H18S17126   4.309   3.586   8.088 -2.0816  2.3299 -3.6947
  154SAPE  C21917127   4.396   3.717   8.242 -0.0863 -0.5580 -0.0817
  154SAPE  H19R17128   4.367   3.804   8.304  0.5285 -0.3770 -0.0423
  154SAPE  H19S17129   4.467   3.756   8.165 -1.2863  0.1457 -0.8600
  154SAPE  C22017130   4.464   3.612   8.339 -0.7631  0.3158  0.3579
  154SAPE  H20R17131   4.462   3.515   8.284 -3.4103  0.2289  0.5029
  154SAPE  H20S17132   4.398   3.598   8.427  0.2168  0.1902  1.0900
  154SAPE  H20T17133   4.565   3.641   8.376 -1.1459  2.3301 -0.0822
  154SAPE   C3317134   4.035   3.277   6.725  0.3423  0.1071  0.3389
  154SAPE   H3X17135   4.004   3.213   6.640  2.9735 -0.2752 -0.4121
  154SAPE   H3Y17136   3.941   3.311   6.773  1.4621  3.1320  0.5459
  154SAPE   C3417137   4.132   3.203   6.818  0.4988  0.4894 -0.2976
  154SAPE   H4X17138   4.223   3.167   6.766  0.5769 -2.4057  1.6075
  154SAPE   H4Y17139   4.076   3.116   6.858  1.3789  0.8955  1.9626
  154SAPE   C3517140   4.181   3.291   6.934  0.1069  0.4776 -0.4274
  154SAPE   H5X17141   4.095   3.339   6.986  1.2999  1.2802  0.8856
  154SAPE   H5Y17142   4.235   3.380   6.894  0.2326  0.1315 -1.0323
  154SAPE   C3617143   4.275   3.214   7.030  0.1532  0.0739  0.2598
  154SAPE   H6X17144   4.351   3.274   7.084 -0.1804  0.8969 -0.1745
  154SAPE   H6Y17145   4.337   3.154   6.960  0.1471  0.2980  0.0648
  154SAPE   C3717146   4.197   3.135   7.132  0.6428 -0.5093 -0.1070
  154SAPE   H7X17147   4.106   3.078   7.104  0.4572  0.1273 -0.8273
  154SAPE   H7Y17148   4.194   3.211   7.213  2.1621  0.7182 -1.1322
  154SAPE   C3817149   4.296   3.026   7.184  0.3678 -0.4675 -0.4167
  154SAPE   H8X17150   4.398   3.068   7.195  0.2422 -0.2544 -0.0657
  154SAPE   H8Y17151   4.302   2.949   7.104  1.7102 -0.1630 -0.6382
  154SAPE   C3917152   4.241   2.952   7.306 -0.2525 -0.2086  0.6217
  154SAPE   H9X17153   4.312   2.868   7.325  0.6123  0.5500  0.8244
  154SAPE   H9Y17154   4.147   2.899   7.281 -0.7203  1.0867 -0.4813
  154SAPE  C31017155   4.233   3.041   7.436 -0.4167 -0.1863  0.5177
  154SAPE  H10X17156   4.162   3.126   7.427 -1.0865 -0.6559  1.2283
  154SAPE  H10Y17157   4.334   3.086   7.425 -1.1039  1.6591  1.4383
  154SAPE  C31117158   4.230   2.974   7.574 -0.0631  0.0436  0.3049
  154SAPE  H11X17159   4.147   2.901   7.576 -0.5252  0.5675  0.8264
  154SAPE  H11Y17160   4.209   3.044   7.658 -0.3839 -0.8929  1.0305
  154SAPE  C31217161   4.365   2.907   7.620  0.2086 -0.5611 -0.1541
  154SAPE  H12X17162   4.414   2.993   7.670 -1.6858  2.8136 -3.5417
  154SAPE  H12Y17163   4.431   2.890   7.532  0.7731  0.5876  0.0241
  154SAPE  C31317164   4.351   2.779   7.705 -0.2083 -0.0049  0.1809
  154SAPE  H13X17165   4.292   2.709   7.643  1.6471 -1.4851  0.0039
  154SAPE  H13Y17166   4.297   2.807   7.798  2.1850 -2.1882  2.3826
  154SAPE  C31417167   4.476   2.705   7.737  0.2781 -0.4342 -1.0184
  154SAPE  H14X17168   4.551   2.774   7.781 -2.0614  1.6105  0.0192
  154SAPE  H14Y17169   4.521   2.667   7.643  1.0865  1.7338 -1.5791
  154SAPE  C31517170   4.448   2.580   7.817 -1.3091  0.6471 -0.1558
  154SAPE  H15X17171   4.553   2.550   7.841 -1.6045 -2.1210 -1.8902
  154SAPE  H15Y17172   4.413   2.495   7.755  0.6332 -1.1254  1.0371
  154SAPE  C31617173   4.373   2.598   7.957  0.3800  1.0076  0.1029
  154SAPE  H16X17174   4.276   2.647   7.932 -0.9015 -1.0333  0.8204
  154SAPE  H16Y17175   4.423   2.663   8.031 -0.9859  2.7517 -0.4360
  154SAPE  C31717176   4.328   2.469   8.025 -0.4977 -0.2191  0.1570
  154SAPE  H17X17177   4.426   2.420   8.046  0.4812  0.5767 -2.2177
  154SAPE  H17Y17178   4.265   2.410   7.955  0.5417 -0.1910 -0.8320
  154SAPE  C31817179   4.256   2.484   8.160  0.1898 -0.0284  0.1990
  154SAPE  H18X17180   4.193   2.575   8.170 -1.4084 -0.6220 -3.0394
  154SAPE  H18Y17181   4.327   2.494   8.245 -1.7970  1.7892  1.7497
  154SAPE  H18Z17182   4.191   2.395   8.171  1.4510 -1.3001 -1.8236
  155SAPE     N17183   1.987   3.495   6.370  0.5236 -0.4051  0.1385
  155SAPE   HN117184   1.925   3.541   6.299 -1.6421 -0.6450  1.7518
  155SAPE   HN217185   1.969   3.540   6.462 -1.8318  0.8040 -0.8047
  155SAPE   HN317186   2.083   3.506   6.333  0.1167 -1.2966 -1.2503
  155SAPE   C1217187   1.931   3.358   6.373  0.5740 -0.3132  0.0032
  155SAPE  H12A17188   2.008   3.297   6.425  1.9427  2.4544  1.4478
  155SAPE  H12B17189   1.926   3.328   6.266 -0.2631 -0.7077  0.1436
  155SAPE   C1117190   1.789   3.359   6.428  0.4375 -0.0282 -0.3803
  155SAPE  H11A17191   1.792   3.398   6.532 -0.4426 -0.8178 -0.0455
  155SAPE  H11B17192   1.770   3.251   6.448 -1.3832  0.8698  4.0094
  155SAPE     P17193   1.636   3.563   6.392  0.2967 -0.4752 -0.0291
  155SAPE   O1317194   1.741   3.660   6.431 -0.0273 -0.3705 -0.3327
  155SAPE   O1417195   1.542   3.619   6.287  0.3316 -0.1820 -0.3857
  155SAPE   O1217196   1.699   3.427   6.335 -0.6268 -0.2430 -0.4138
  155SAPE   O1117197   1.546   3.521   6.514  0.1601 -0.4889  0.2820
  155SAPE    C117198   1.507   3.618   6.620  0.0240  0.0382 -0.2271
  155SAPE    HA17199   1.479   3.710   6.566 -0.9782  1.2009  2.1234
  155SAPE    HB17200   1.417   3.571   6.666  1.4247 -2.6992 -0.0133
  155SAPE    C217201   1.616   3.646   6.720 -0.4176 -0.4972  0.5343
  155SAPE    HS17202   1.706   3.684   6.667 -0.3558 -1.9472 -0.4532
  155SAPE   O2117203   1.625   3.527   6.795 -0.2850  0.2881 -0.2256
  155SAPE   C2117204   1.744   3.461   6.789 -0.2166  0.3431 -0.0802
  155SAPE   O2217205   1.845   3.510   6.747 -0.0747  0.2616  0.0240
  155SAPE   C2217206   1.721   3.326   6.851 -0.8600 -0.6207  1.2698
  155SAPE   H2R17207   1.677   3.272   6.764 -0.9263  3.3258 -1.4176
  155SAPE   H2S17208   1.824   3.292   6.873 -0.3658  1.0492  1.7175
  155SAPE    C317209   1.562   3.759   6.807 -0.0989 -0.5542 -0.3647
  155SAPE    HX17210   1.460   3.727   6.838  0.5012 -2.4326 -0.1686
  155SAPE    HY17211   1.546   3.849   6.745  0.0294 -0.5942 -0.4568
  155SAPE   O3117212   1.641   3.789   6.925 -0.5788 -0.0143 -0.2386
  155SAPE   C3117213   1.743   3.870   6.903 -0.4605  0.4853 -0.1810
  155SAPE   O3217214   1.767   3.920   6.795 -0.0378  0.2547 -0.2348
  155SAPE   C3217215   1.828   3.901   7.026 -0.3484  1.2088 -0.2512
  155SAPE   H2X17216   1.769   3.969   7.090 -1.0750  1.3517 -1.0479
  155SAPE   H2Y17217   1.918   3.952   6.985  0.2139 -1.0229 -1.9942
  155SAPE   C2317218   1.631   3.331   6.971  0.8419 -0.5044  0.3770
  155SAPE   H3R17219   1.604   3.225   6.991 -0.1487 -0.3684 -0.1424
  155SAPE   H3S17220   1.537   3.387   6.953  0.2607 -1.5222  0.1360
  155SAPE   C2417221   1.695   3.401   7.093 -0.0935  0.2561  0.6128
  155SAPE   H4R17222   1.706   3.510   7.079 -0.3711  0.1305 -0.7435
  155SAPE   H4S17223   1.793   3.349   7.103 -0.2505 -0.3065 -0.6279
  155SAPE   C2517224   1.610   3.375   7.215 -0.3094  0.2284 -0.2707
  155SAPE   H5R17225   1.502   3.372   7.198 -0.9693  1.5212  2.9158
  155SAPE   C2617226   1.659   3.368   7.340  0.0273  0.1889 -0.1657
  155SAPE   H6R17227   1.595   3.344   7.426  0.5325 -4.3325 -0.8334
  155SAPE   C2717228   1.803   3.381   7.386 -0.0161 -0.4945 -0.6446
  155SAPE   H7R17229   1.819   3.489   7.408 -1.6340 -0.5878  1.3411
  155SAPE   H7S17230   1.879   3.359   7.308  0.1791 -1.2285 -0.2546
  155SAPE   C2817231   1.827   3.296   7.511 -0.8044 -0.6617 -0.4939
  155SAPE   H8R17232   1.822   3.186   7.501 -0.0607 -0.8648  1.0443
  155SAPE   C2917233   1.830   3.348   7.633  0.4968  0.1160 -0.1504
  155SAPE   H9R17234   1.861   3.273   7.706 -0.3871 -0.6321 -0.5198
  155SAPE  C21017235   1.820   3.496   7.666 -0.2265  0.1603  0.1925
  155SAPE  H10R17236   1.802   3.568   7.584  2.7760  2.6937  1.5355
  155SAPE  H10S17237   1.923   3.519   7.700 -0.0993 -2.4962  1.8631
  155SAPE  C21117238   1.715   3.521   7.773 -0.3155 -0.0189 -0.3216
  155SAPE  H11R17239   1.614   3.479   7.761 -0.3162 -0.4363  0.9749
  155SAPE  C21217240   1.745   3.594   7.884  0.3827  0.0643  0.7063
  155SAPE  H12R17241   1.666   3.616   7.956  0.2936  1.1223  0.3062
  155SAPE  C21317242   1.873   3.660   7.926 -0.5657  0.2194 -0.2661
  155SAPE  H13R17243   1.851   3.769   7.924 -2.9027 -0.2020 -0.2483
  155SAPE  H13S17244   1.953   3.644   7.850  0.0544 -1.4053  0.6961
  155SAPE  C21417245   1.933   3.620   8.062  0.9561 -0.5762  0.5602
  155SAPE  H14R17246   1.923   3.700   8.137  1.0471  2.3101 -2.3418
  155SAPE  C21517247   1.968   3.498   8.103 -0.5144  0.5759  0.8082
  155SAPE  H15R17248   2.000   3.497   8.208  0.8407  1.3106  0.4336
  155SAPE  C21617249   1.971   3.367   8.026  0.2409 -0.4305 -0.1538
  155SAPE  H16R17250   2.076   3.363   7.988  0.4660 -0.0597  0.4134
  155SAPE  H16S17251   1.898   3.369   7.942  2.2004  0.9122 -1.9385
  155SAPE  C21717252   1.950   3.246   8.118 -0.6138  0.2514 -0.6595
  155SAPE  H17R17253   1.840   3.248   8.137 -0.5255 -2.8998  0.8546
  155SAPE  H17S17254   1.991   3.256   8.221 -0.9762 -1.5688 -0.2965
  155SAPE  C21817255   1.983   3.109   8.065  0.1876 -0.6794  0.2638
  155SAPE  H18R17256   1.963   3.119   7.956 -0.1637  0.3907  0.4120
  155SAPE  H18S17257   1.912   3.035   8.109 -0.3342 -1.6155 -2.0293
  155SAPE  C21917258   2.128   3.060   8.081 -0.9283  0.2604  0.7508
  155SAPE  H19R17259   2.194   3.146   8.060  2.0554 -1.4753  2.3555
  155SAPE  H19S17260   2.138   2.971   8.016 -0.1106  0.5378  0.4838
  155SAPE  C22017261   2.157   3.022   8.223 -0.6006  0.2081 -0.0517
  155SAPE  H20R17262   2.109   3.092   8.296 -3.0370 -1.6264  0.2246
  155SAPE  H20S17263   2.263   3.013   8.256 -1.2985  1.5658  2.9552
  155SAPE  H20T17264   2.107   2.926   8.247  1.4016 -0.5846  1.2690
  155SAPE   C3317265   1.882   3.773   7.089  0.2420 -0.0994  0.4983
  155SAPE   H3X17266   1.929   3.720   7.004  0.0142 -0.6260  0.6972
  155SAPE   H3Y17267   1.800   3.710   7.130  1.3926 -2.1399 -0.2162
  155SAPE   C3417268   1.980   3.810   7.204 -0.3129  0.0096 -0.3912
  155SAPE   H4X17269   1.924   3.862   7.284  0.5019 -2.9414  2.2768
  155SAPE   H4Y17270   2.059   3.877   7.163 -1.1310  0.0608 -1.9736
  155SAPE   C3517271   2.034   3.683   7.269  0.6261  0.2539 -0.4193
  155SAPE   H5X17272   2.091   3.614   7.203  1.6255 -0.3117  1.0059
  155SAPE   H5Y17273   1.945   3.621   7.292  0.7795  0.3324  0.4128
  155SAPE   C3617274   2.116   3.711   7.391  0.1750  0.3644 -0.0654
  155SAPE   H6X17275   2.059   3.779   7.459  0.0667 -0.0592  0.2733
  155SAPE   H6Y17276   2.211   3.758   7.359  2.1399 -3.3561 -0.2101
  155SAPE   C3717277   2.164   3.574   7.452 -1.4332 -0.4814 -0.3267
  155SAPE   H7X17278   2.201   3.498   7.379 -0.0553  0.9184 -1.1614
  155SAPE   H7Y17279   2.079   3.536   7.512 -0.7284 -1.8784 -0.1531
  155SAPE   C3817280   2.278   3.599   7.554 -0.4199 -0.3616  0.3316
  155SAPE   H8X17281   2.370   3.635   7.503  0.0520 -0.1818  1.2677
  155SAPE   H8Y17282   2.314   3.501   7.592  0.6188  0.7497  2.4021
  155SAPE   C3917283   2.231   3.685   7.673 -0.4717 -0.2422 -0.1011
  155SAPE   H9X17284   2.126   3.657   7.699 -0.1664 -1.1513  0.2024
  155SAPE   H9Y17285   2.217   3.789   7.638  2.1196 -0.4424 -2.0024
  155SAPE  C31017286   2.314   3.665   7.802  0.1900  0.0761  0.0045
  155SAPE  H10X17287   2.265   3.727   7.880 -0.2005 -0.5018  0.2359
  155SAPE  H10Y17288   2.416   3.703   7.783  0.1560  0.0811 -0.1653
  155SAPE  C31117289   2.334   3.519   7.846  0.8369  0.2472  0.2610
  155SAPE  H11X17290   2.391   3.460   7.771  0.7531  1.0916 -0.4891
  155SAPE  H11Y17291   2.232   3.476   7.853  1.1493 -0.5964 -0.3038
  155SAPE  C31217292   2.397   3.512   7.989 -0.1733 -0.7204 -0.0948
  155SAPE  H12X17293   2.322   3.555   8.059 -1.3876  1.5590 -2.6185
  155SAPE  H12Y17294   2.490   3.571   7.998 -1.9880  2.3292  0.1268
  155SAPE  C31317295   2.423   3.364   8.027  0.6948 -0.7169  0.6804
  155SAPE  H13X17296   2.523   3.332   7.993  1.0251 -0.4986  1.4267
  155SAPE  H13Y17297   2.357   3.294   7.972  0.5959 -0.4187  0.4173
  155SAPE  C31417298   2.405   3.338   8.177 -0.1269  0.5131 -0.3179
  155SAPE  H14X17299   2.370   3.233   8.189  0.5975  0.3806  0.7464
  155SAPE  H14Y17300   2.325   3.400   8.223 -0.1178  0.9669 -0.8993
  155SAPE  C31517301   2.530   3.374   8.260 -0.4713 -0.0937  0.4103
  155SAPE  H15X17302   2.559   3.475   8.225 -2.2629  0.3410  0.0960
  155SAPE  H15Y17303   2.617   3.308   8.242  1.9634  2.2752  2.5481
  155SAPE  C31617304   2.512   3.349   8.410  0.5719 -0.0118 -0.4898
  155SAPE  H16X17305   2.441   3.418   8.460 -0.4986 -1.8441  0.6448
  155SAPE  H16Y17306   2.608   3.372   8.462  2.0141 -2.0842 -2.0511
  155SAPE  C31717307   2.464   3.207   8.460  0.9802 -0.5300  0.7716
  155SAPE  H17X17308   2.362   3.196   8.417  0.7678  0.3698  1.0389
  155SAPE  H17Y17309   2.453   3.208   8.571 -2.8894 -2.0390  0.5877
  155SAPE  C31817310   2.559   3.102   8.405 -0.0016  0.6777  0.1444
  155SAPE  H18X17311   2.546   3.100   8.295  0.9761  0.7221  0.0269
  155SAPE  H18Y17312   2.541   3.004   8.455  2.2691  1.2206  2.2308
  155SAPE  H18Z17313   2.663   3.137   8.421  0.3796  0.8012 -2.2648
  156SAPE     N17314   0.928   2.569   6.289 -0.0166  0.2026  0.1595
  156SAPE   HN117315   0.975   2.477   6.287  1.1107  0.7097  1.7951
  156SAPE   HN217316   0.824   2.558   6.292 -0.1940  1.7043  0.4860
  156SAPE   HN317317   0.963   2.620   6.205 -0.7809  1.5875  0.6332
  156SAPE   C1217318   0.972   2.655   6.402  0.1302  0.3063 -0.8247
  156SAPE  H12A17319   0.921   2.620   6.494  0.8111 -0.2565 -0.6566
  156SAPE  H12B17320   0.945   2.761   6.382 -1.6671  0.2163  0.8884
  156SAPE   C1117321   1.127   2.630   6.436  0.0542 -0.4925  0.6866
  156SAPE  H11A17322   1.153   2.699   6.519  0.9727 -2.0930  1.7872
  156SAPE  H11B17323   1.179   2.659   6.342 -0.2028 -0.9315  0.4073
  156SAPE     P17324   1.288   2.423   6.419 -0.4546 -0.0270 -0.0656
  156SAPE   O1317325   1.253   2.287   6.376 -0.1980  0.9756  0.0224
  156SAPE   O1417326   1.368   2.505   6.321 -0.2518 -0.0744 -0.1736
  156SAPE   O1217327   1.160   2.495   6.471  0.6603 -0.6514 -0.2721
  156SAPE   O1117328   1.367   2.421   6.555  0.4235  0.2607 -0.2609
  156SAPE    C117329   1.402   2.286   6.603 -0.5641  0.0871 -0.3855
  156SAPE    HA17330   1.319   2.213   6.610  0.6532 -1.3545 -0.5067
  156SAPE    HB17331   1.486   2.241   6.547 -2.0230 -2.7210 -0.4824
  156SAPE    C217332   1.465   2.296   6.744 -0.5721 -0.3218 -0.1268
  156SAPE    HS17333   1.567   2.340   6.738 -0.5073 -0.1983  1.4298
  156SAPE   O2117334   1.475   2.170   6.810  0.2364 -0.4242  0.2838
  156SAPE   C2117335   1.571   2.101   6.768 -0.3464  0.7550 -0.0707
  156SAPE   O2217336   1.652   2.130   6.680  0.4143  0.4388 -0.1608
  156SAPE   C2217337   1.575   1.963   6.845  0.3834  0.4381 -0.0675
  156SAPE   H2R17338   1.499   1.899   6.795  2.9110 -1.2891 -1.9239
  156SAPE   H2S17339   1.669   1.911   6.816 -0.5799 -1.3163 -0.1360
  156SAPE    C317340   1.377   2.384   6.830 -0.9022 -0.3046  0.3512
  156SAPE    HX17341   1.272   2.349   6.826 -1.3345  1.0265 -0.4453
  156SAPE    HY17342   1.363   2.482   6.781  1.6453  0.4969  1.0891
  156SAPE   O3117343   1.432   2.403   6.959 -0.5752  0.2132 -0.0390
  156SAPE   C3117344   1.378   2.336   7.058  0.1565 -0.0375  0.4064
  156SAPE   O3217345   1.288   2.251   7.044  0.3615  0.1569  0.0424
  156SAPE   C3217346   1.455   2.367   7.187  0.4267  0.4061  0.0933
  156SAPE   H2X17347   1.397   2.444   7.242 -1.5089 -0.6052 -0.4604
  156SAPE   H2Y17348   1.559   2.403   7.169  0.0462  2.2236  1.3177
  156SAPE   C2317349   1.566   1.973   6.998 -1.0780 -0.7941 -0.2891
  156SAPE   H3R17350   1.462   2.003   7.025 -0.4042 -0.0284  1.6016
  156SAPE   H3S17351   1.642   2.045   7.035  1.4339 -2.7212 -1.4805
  156SAPE   C2417352   1.604   1.842   7.055 -0.2232  0.1571  0.0160
  156SAPE   H4R17353   1.598   1.851   7.166 -1.9406  1.3034 -0.1234
  156SAPE   H4S17354   1.709   1.814   7.034 -0.5873 -1.1848 -0.1130
  156SAPE   C2517355   1.515   1.733   7.005 -0.4942 -0.2540 -0.1286
  156SAPE   H5R17356   1.533   1.698   6.902 -1.5316 -1.5498  0.0954
  156SAPE   C2617357   1.416   1.667   7.067 -0.4607 -0.3429  0.5536
  156SAPE   H6R17358   1.371   1.586   7.007  0.1848 -0.2261 -0.0969
  156SAPE   C2717359   1.358   1.705   7.202  0.2674  0.2799 -0.4139
  156SAPE   H7R17360   1.248   1.717   7.204  0.2063 -0.2945  0.9232
  156SAPE   H7S17361   1.396   1.806   7.229 -0.2327  0.2254  0.5294
  156SAPE   C2817362   1.382   1.601   7.310 -0.4584 -0.1187 -0.3362
  156SAPE   H8R17363   1.394   1.497   7.276  1.3679 -0.7734  2.0405
  156SAPE   C2917364   1.408   1.629   7.443 -0.7546 -0.3813 -0.0315
  156SAPE   H9R17365   1.424   1.546   7.513 -0.9770  1.1477  1.9183
  156SAPE  C21017366   1.421   1.778   7.496  0.0769  0.7557  0.1496
  156SAPE  H10R17367   1.356   1.786   7.586 -0.9262 -0.0623 -0.4722
  156SAPE  H10S17368   1.376   1.857   7.431  1.4021  0.6655 -0.9222
  156SAPE  C21117369   1.570   1.811   7.506 -0.0152  0.2963 -0.1345
  156SAPE  H11R17370   1.618   1.818   7.407  0.5530 -0.5753  0.0728
  156SAPE  C21217371   1.641   1.834   7.617 -0.0637 -0.3709  0.1709
  156SAPE  H12R17372   1.747   1.857   7.599 -0.1482 -1.2767 -1.7047
  156SAPE  C21317373   1.616   1.836   7.766  0.3498 -0.8902  0.3753
  156SAPE  H13R17374   1.714   1.829   7.817  1.2385  2.4265 -0.5956
  156SAPE  H13S17375   1.577   1.739   7.803  0.3848 -1.4426 -0.9677
  156SAPE  C21417376   1.533   1.955   7.816 -0.6619  0.1564 -0.2745
  156SAPE  H14R17377   1.481   2.007   7.733  1.6769  0.5708 -1.5631
  156SAPE  C21517378   1.521   2.002   7.944  0.5154  0.4694  0.0826
  156SAPE  H15R17379   1.453   2.086   7.962 -1.0065 -0.7234  0.0768
  156SAPE  C21617380   1.591   1.944   8.071 -0.1568 -0.5644  0.4963
  156SAPE  H16R17381   1.661   2.018   8.115 -0.3689  1.2071 -1.9302
  156SAPE  H16S17382   1.654   1.855   8.052  2.0196  0.8287  0.8552
  156SAPE  C21717383   1.481   1.910   8.170  0.2339 -0.0017 -0.0369
  156SAPE  H17R17384   1.428   1.817   8.138 -0.7442  0.1848  0.9610
  156SAPE  H17S17385   1.405   1.990   8.176  1.3819  1.2894 -1.7651
  156SAPE  C21817386   1.531   1.885   8.314 -0.0452 -0.3730 -0.3408
  156SAPE  H18R17387   1.582   1.976   8.350  0.9657 -0.9205 -0.3498
  156SAPE  H18S17388   1.607   1.805   8.310  1.6197  1.0803  0.8607
  156SAPE  C21917389   1.423   1.846   8.412 -0.4252 -0.2756  0.3599
  156SAPE  H19R17390   1.356   1.771   8.364  0.0894  0.0333 -0.9058
  156SAPE  H19S17391   1.363   1.939   8.420 -0.5223 -0.0734 -1.8546
  156SAPE  C22017392   1.478   1.796   8.544  0.5579  0.3254 -0.2684
  156SAPE  H20R17393   1.394   1.757   8.604  1.6444 -1.2324  0.3305
  156SAPE  H20S17394   1.529   1.878   8.599 -0.0131  1.3785 -1.2490
  156SAPE  H20T17395   1.535   1.701   8.529 -2.1737 -1.1979 -1.7659
  156SAPE   C3317396   1.473   2.231   7.263  0.3088 -0.1956 -0.8449
  156SAPE   H3X17397   1.570   2.179   7.255 -0.9233 -2.8518  0.2813
  156SAPE   H3Y17398   1.408   2.149   7.225  0.6083 -0.8803  0.1120
  156SAPE   C3417399   1.460   2.251   7.416 -0.1114  0.2866  0.2501
  156SAPE   H4X17400   1.469   2.155   7.472  0.8360  1.3106  1.9154
  156SAPE   H4Y17401   1.365   2.291   7.458  0.1139 -1.3965  2.5895
  156SAPE   C3517402   1.579   2.319   7.484  0.3750 -0.2343 -0.5345
  156SAPE   H5X17403   1.595   2.422   7.444  1.2532 -0.3694 -0.5552
  156SAPE   H5Y17404   1.666   2.268   7.438  1.7521  0.7465  0.8705
  156SAPE   C3617405   1.585   2.308   7.638  0.3541  0.5832  0.0300
  156SAPE   H6X17406   1.578   2.201   7.670 -2.6880  0.6745 -0.0220
  156SAPE   H6Y17407   1.496   2.356   7.684  0.1692  0.7661 -0.5115
  156SAPE   C3717408   1.703   2.389   7.701 -0.2913 -0.6698 -0.2792
  156SAPE   H7X17409   1.700   2.490   7.656 -0.1110 -0.4855  0.1175
  156SAPE   H7Y17410   1.804   2.344   7.689 -0.4203 -0.7643 -1.0702
  156SAPE   C3817411   1.685   2.426   7.853 -0.0814 -0.6157 -0.8481
  156SAPE   H8X17412   1.683   2.336   7.919  1.6980  1.1789  1.8866
  156SAPE   H8Y17413   1.597   2.491   7.870  0.1899 -0.9926  3.0946
  156SAPE   C3917414   1.808   2.506   7.905  0.4035 -0.4155 -0.0674
  156SAPE   H9X17415   1.808   2.606   7.857 -0.8603 -0.7570 -0.8259
  156SAPE   H9Y17416   1.903   2.454   7.882 -0.3465 -2.0599  0.4298
  156SAPE  C31017417   1.796   2.525   8.063  0.1326 -0.4140  0.0953
  156SAPE  H10X17418   1.690   2.543   8.090  0.6726  0.2221  1.8791
  156SAPE  H10Y17419   1.859   2.614   8.082 -0.6181  0.2577 -0.4870
  156SAPE  C31117420   1.859   2.405   8.143 -0.2861  0.2365 -0.0419
  156SAPE  H11X17421   1.964   2.384   8.112 -0.0724  1.0923  0.0831
  156SAPE  H11Y17422   1.789   2.321   8.122 -2.4639  2.1208 -0.7195
  156SAPE  C31217423   1.832   2.427   8.292  0.3735  0.4488  0.5106
  156SAPE  H12X17424   1.823   2.324   8.333 -0.3143  0.5264  0.5538
  156SAPE  H12Y17425   1.730   2.470   8.301 -0.6908 -1.5649 -1.1482
  156SAPE  C31317426   1.941   2.513   8.363 -0.5540 -0.3572 -0.1167
  156SAPE  H13X17427   1.944   2.617   8.322  1.0622 -0.5046 -0.4537
  156SAPE  H13Y17428   2.039   2.465   8.343  0.1989  0.9454  0.2966
  156SAPE  C31417429   1.927   2.524   8.515  0.7393  0.5200  0.5238
  156SAPE  H14X17430   2.012   2.590   8.543  1.6702 -0.4578  0.0676
  156SAPE  H14Y17431   1.947   2.419   8.545  0.6605 -0.2467 -1.9082
  156SAPE  C31517432   1.793   2.580   8.558  1.2536  0.1756 -0.4061
  156SAPE  H15X17433   1.782   2.598   8.668 -0.5629  1.4118 -0.7482
  156SAPE  H15Y17434   1.715   2.515   8.513  0.9489 -0.3267  0.8046
  156SAPE  C31617435   1.755   2.715   8.487  0.0183 -0.1146 -0.1377
  156SAPE  H16X17436   1.662   2.741   8.542  0.4319 -3.3206  2.4049
  156SAPE  H16Y17437   1.723   2.699   8.382 -0.6115 -0.9360  0.1686
  156SAPE  C31717438   1.869   2.820   8.507  0.6238  0.5499  0.9222
  156SAPE  H17X17439   1.952   2.795   8.438  1.5181 -1.7231  2.6734
  156SAPE  H17Y17440   1.910   2.817   8.610 -1.1197 -3.4336  1.6790
  156SAPE  C31817441   1.825   2.959   8.474  0.4764 -0.4213 -0.2759
  156SAPE  H18X17442   1.788   2.949   8.369 -0.3422 -0.5166  0.0114
  156SAPE  H18Y17443   1.915   3.024   8.481  0.4119 -0.3865  0.2746
  156SAPE  H18Z17444   1.743   3.001   8.535  0.7264 -0.7859  0.3201
  157SAPE     N17445   6.802   4.831   5.780  0.2796 -0.3458  0.6587
  157SAPE   HN117446   6.785   4.797   5.683  1.4330  0.9190 -0.0286
  157SAPE   HN217447   6.785   4.752   5.845 -0.3850 -0.2312  0.6290
  157SAPE   HN317448   6.740   4.907   5.814  2.1763  0.8184  1.6630
  157SAPE   C1217449   6.939   4.888   5.798 -0.6850  0.0634  0.6754
  157SAPE  H12A17450   6.935   4.982   5.739 -2.0255 -0.6304 -0.4266
  157SAPE  H12B17451   7.008   4.816   5.749 -0.5195  0.4021  0.4153
  157SAPE   C1117452   6.976   4.906   5.938 -0.7274  0.8752 -0.2936
  157SAPE  H11A17453   7.083   4.927   5.923 -0.5265 -0.4048 -0.7575
  157SAPE  H11B17454   6.954   4.808   5.986 -3.4286  1.5049 -0.0452
  157SAPE     P17455   6.958   5.067   6.133 -0.0726 -0.2815  0.0826
  157SAPE   O1317456   7.103   5.101   6.132  0.4074  0.2312 -0.3522
  157SAPE   O1417457   6.873   5.182   6.152 -0.5582 -0.2334  0.3275
  157SAPE   O1217458   6.900   5.003   5.999 -0.4721 -0.4755  0.7104
  157SAPE   O1117459   6.928   4.960   6.244  0.3937 -0.2162  0.1359
  157SAPE    C117460   6.799   4.886   6.236  0.1124 -0.3905 -0.0940
  157SAPE    HA17461   6.719   4.953   6.273 -0.7744 -0.2428 -2.1568
  157SAPE    HB17462   6.775   4.850   6.134  1.4093  0.9361 -0.9048
  157SAPE    C217463   6.786   4.764   6.330 -0.3534 -0.1360  0.4344
  157SAPE    HS17464   6.686   4.715   6.330  0.4938 -2.1436  3.1928
  157SAPE   O2117465   6.835   4.788   6.463  0.0943  0.5337  0.0503
  157SAPE   C2117466   6.765   4.885   6.528 -0.4202  0.7420 -0.0899
  157SAPE   O2217467   6.654   4.925   6.498  0.3722 -0.3736 -0.1242
  157SAPE   C2217468   6.843   4.923   6.661  0.1805  0.6735  0.1845
  157SAPE   H2R17469   6.943   4.961   6.630 -0.2187  1.1125 -0.5718
  157SAPE   H2S17470   6.788   5.008   6.708  1.8127  0.7936  2.0516
  157SAPE    C317471   6.880   4.658   6.260 -1.0178  0.5170  0.2370
  157SAPE    HX17472   6.985   4.685   6.283  0.0637 -2.5554 -0.5851
  157SAPE    HY17473   6.860   4.650   6.151 -1.1268  1.2398  0.1990
  157SAPE   O3117474   6.870   4.528   6.329 -0.0583 -0.1039  0.1586
  157SAPE   C3117475   6.980   4.450   6.330 -0.9564 -0.0782  0.0511
  157SAPE   O3217476   7.087   4.474   6.278 -0.1440  0.1248  0.3249
  157SAPE   C3217477   6.945   4.324   6.405 -0.0106 -0.4952 -0.3259
  157SAPE   H2X17478   7.032   4.255   6.415  0.4233  0.2852  2.0754
  157SAPE   H2Y17479   6.871   4.267   6.346 -1.6879  1.4583 -0.2266
  157SAPE   C2317480   6.860   4.807   6.765  0.0303  0.3601 -0.0432
  157SAPE   H3R17481   6.944   4.738   6.744 -2.0073 -3.2521  2.4959
  157SAPE   H3S17482   6.760   4.758   6.776  0.5150 -0.1690  2.8058
  157SAPE   C2417483   6.894   4.866   6.900  0.5130  0.3901  0.2083
  157SAPE   H4R17484   6.879   4.792   6.982 -0.3323  0.1610 -0.1428
  157SAPE   H4S17485   6.817   4.944   6.917 -0.0260 -0.1487  0.2975
  157SAPE   C2517486   7.035   4.919   6.905  0.5895 -0.6675  1.3105
  157SAPE   H5R17487   7.086   4.940   6.810  2.2965  0.9294  2.5147
  157SAPE   C2617488   7.098   4.944   7.018  0.1092  0.5361  0.3272
  157SAPE   H6R17489   7.203   4.975   7.007 -0.1308  1.6712  1.0694
  157SAPE   C2717490   7.054   4.919   7.160 -0.3812 -0.9858 -0.4907
  157SAPE   H7R17491   7.065   4.811   7.179 -1.6259 -0.9293  0.7987
  157SAPE   H7S17492   6.943   4.929   7.155 -0.1701  1.6436 -2.4344
  157SAPE   C2817493   7.123   5.002   7.266  0.0574 -0.4785 -0.3386
  157SAPE   H8R17494   7.212   5.055   7.230 -0.8232 -0.6917 -3.0935
  157SAPE   C2917495   7.073   5.020   7.389 -0.2469 -0.2567 -0.2871
  157SAPE   H9R17496   7.123   5.082   7.465  0.3876 -1.6230  0.4601
  157SAPE  C21017497   6.942   4.967   7.441 -0.4418 -0.6027  0.3894
  157SAPE  H10R17498   6.880   4.922   7.361 -0.5189 -0.5119  0.3968
  157SAPE  H10S17499   6.880   5.057   7.462 -1.4413 -0.6193 -2.1604
  157SAPE  C21117500   6.941   4.885   7.566 -0.4914  1.1537  0.1583
  157SAPE  H11R17501   6.951   4.776   7.553 -2.3512  1.1069 -1.3444
  157SAPE  C21217502   6.936   4.933   7.691  0.2168 -0.2074  0.0425
  157SAPE  H12R17503   6.935   4.857   7.771  3.3975  0.2725  0.6808
  157SAPE  C21317504   6.934   5.074   7.735  0.3265  0.7259  0.0486
  157SAPE  H13R17505   6.890   5.142   7.659  0.1001 -0.4092 -0.8686
  157SAPE  H13S17506   7.042   5.101   7.740  0.8735 -1.3255  0.1857
  157SAPE  C21417507   6.873   5.101   7.864 -0.2425  0.5192  0.1736
  157SAPE  H14R17508   6.776   5.151   7.852 -0.4639 -0.0918 -0.6557
  157SAPE  C21517509   6.928   5.075   7.982  0.2074 -0.3323 -0.5126
  157SAPE  H15R17510   6.874   5.107   8.073  0.6694 -0.9928 -0.0000
  157SAPE  C21617511   7.053   4.996   8.009  0.1677 -0.1987  0.3833
  157SAPE  H16R17512   7.113   4.985   7.916  1.0771  0.2937  0.8899
  157SAPE  H16S17513   7.030   4.896   8.053  1.6647 -0.7343  0.0122
  157SAPE  C21717514   7.131   5.084   8.114  0.6110  0.1815 -0.2400
  157SAPE  H17R17515   7.141   5.188   8.077 -0.5915  0.2939 -0.2792
  157SAPE  H17S17516   7.234   5.042   8.116 -0.1819 -1.9301  1.8703
  157SAPE  C21817517   7.071   5.073   8.254  0.1942 -0.2955  0.1478
  157SAPE  H18R17518   6.964   5.101   8.247 -0.0403 -1.1681  0.1849
  157SAPE  H18S17519   7.126   5.142   8.321 -0.1390 -2.1815  2.5220
  157SAPE  C21917520   7.088   4.934   8.320 -0.0776 -0.3804 -0.4114
  157SAPE  H19R17521   7.182   4.886   8.285  0.4724  0.6917 -0.4762
  157SAPE  H19S17522   7.006   4.872   8.279 -1.0789  0.6909 -0.0948
  157SAPE  C22017523   7.079   4.922   8.471  0.1642 -0.1677  0.9808
  157SAPE  H20R17524   7.117   4.824   8.505  0.8725  0.2801  1.5163
  157SAPE  H20S17525   6.977   4.934   8.513 -0.4333 -2.4267  0.2976
  157SAPE  H20T17526   7.143   4.992   8.529  0.1419  0.4360  0.2934
  157SAPE   C3317527   6.897   4.356   6.547 -0.2482 -0.4312  0.3136
  157SAPE   H3X17528   6.856   4.264   6.594  0.2921 -1.2450 -0.7549
  157SAPE   H3Y17529   6.812   4.427   6.544  0.7145  0.7905  1.0516
  157SAPE   C3417530   7.013   4.418   6.636 -0.1283  0.7077 -0.6776
  157SAPE   H4X17531   7.043   4.516   6.593  0.0259  0.6407 -0.7270
  157SAPE   H4Y17532   7.103   4.353   6.640 -1.5270 -1.2764  2.1786
  157SAPE   C3517533   6.970   4.433   6.783  0.7824 -0.0488 -0.6673
  157SAPE   H5X17534   6.926   4.336   6.815 -2.1710  1.3117 -0.2046
  157SAPE   H5Y17535   6.884   4.502   6.768  0.7660  0.0391 -0.1975
  157SAPE   C3617536   7.070   4.494   6.884 -0.3732 -0.1021  0.7169
  157SAPE   H6X17537   7.104   4.594   6.852  1.2258 -0.5360  0.9743
  157SAPE   H6Y17538   7.167   4.439   6.881 -0.0828  0.4364 -1.0238
  157SAPE   C3717539   7.027   4.484   7.032  0.8224  0.3909  0.1924
  157SAPE   H7X17540   7.003   4.379   7.059  1.8105  0.1055  0.0193
  157SAPE   H7Y17541   6.932   4.537   7.054 -0.4463 -0.2120 -3.1864
  157SAPE   C3817542   7.130   4.546   7.133  0.3092  0.0995 -0.1295
  157SAPE   H8X17543   7.149   4.648   7.094  1.9095  0.5376  1.6324
  157SAPE   H8Y17544   7.224   4.487   7.139 -1.2931 -2.5839  0.0710
  157SAPE   C3917545   7.068   4.544   7.275  0.2315 -0.8341 -0.0496
  157SAPE   H9X17546   7.061   4.436   7.300  0.4435 -1.6928 -3.2347
  157SAPE   H9Y17547   6.982   4.614   7.274  0.8795 -0.0122 -1.4361
  157SAPE  C31017548   7.169   4.608   7.371  0.3564 -0.3222 -0.0628
  157SAPE  H10X17549   7.176   4.717   7.354  1.5578 -0.3809 -0.0187
  157SAPE  H10Y17550   7.268   4.570   7.337  1.7732  1.0300  2.2916
  157SAPE  C31117551   7.140   4.570   7.517  0.5728 -0.0096 -0.3680
  157SAPE  H11X17552   7.162   4.463   7.539  1.3540  0.7186  2.7730
  157SAPE  H11Y17553   7.030   4.583   7.528  0.3235 -1.6779 -0.5392
  157SAPE  C31217554   7.228   4.648   7.618  0.1128  0.2488 -0.3337
  157SAPE  H12X17555   7.235   4.757   7.597  1.9960  0.1397 -0.4981
  157SAPE  H12Y17556   7.331   4.607   7.606  0.0870  0.3905 -1.1044
  157SAPE  C31317557   7.173   4.632   7.758 -0.8598 -0.0739  0.0604
  157SAPE  H13X17558   7.143   4.528   7.784 -1.4137  0.4780  1.8021
  157SAPE  H13Y17559   7.079   4.691   7.757 -1.4641 -1.0277 -0.7467
  157SAPE  C31417560   7.267   4.692   7.861  0.3443 -0.1465 -0.2610
  157SAPE  H14X17561   7.207   4.711   7.953 -0.8710 -1.2466 -0.8052
  157SAPE  H14Y17562   7.306   4.792   7.831  0.1888  0.0034  0.0343
  157SAPE  C31517563   7.391   4.608   7.892  0.2919 -0.2813 -0.7149
  157SAPE  H15X17564   7.448   4.596   7.797  0.9143  1.9471 -0.6892
  157SAPE  H15Y17565   7.357   4.505   7.916  0.0309 -0.0564 -0.1021
  157SAPE  C31617566   7.481   4.663   8.008  0.3972  0.2152  0.5325
  157SAPE  H16X17567   7.482   4.773   7.990 -1.4982 -0.1676 -2.7285
  157SAPE  H16Y17568   7.586   4.625   8.005 -0.0775 -1.1490  0.7277
  157SAPE  C31717569   7.416   4.635   8.149  0.5718 -0.1219 -0.1632
  157SAPE  H17X17570   7.396   4.528   8.166 -0.9194  0.2957  0.8599
  157SAPE  H17Y17571   7.313   4.674   8.142  0.2240 -1.0237 -0.1661
  157SAPE  C31817572   7.489   4.689   8.268  0.6886 -0.5694  0.2734
  157SAPE  H18X17573   7.538   4.782   8.232  0.3553 -0.7547 -0.7021
  157SAPE  H18Y17574   7.568   4.620   8.304 -0.6285 -0.9733  2.5535
  157SAPE  H18Z17575   7.420   4.720   8.349  1.0499  0.1826  0.2964
  158SAPE     N17576   0.487   3.921   6.031 -0.9219  0.1657 -0.5783
  158SAPE   HN117577   0.412   3.890   5.966 -0.9232 -2.2275  0.4901
  158SAPE   HN217578   0.529   3.836   6.074 -2.7245  0.7589  2.6217
  158SAPE   HN317579   0.454   3.983   6.107  0.2257  1.3881 -1.0327
  158SAPE   C1217580   0.590   3.991   5.951  0.3037 -0.4009 -0.6006
  158SAPE  H12A17581   0.589   3.969   5.842 -1.4459 -2.5655 -0.2152
  158SAPE  H12B17582   0.687   3.954   5.992 -0.9014  0.3147  3.2318
  158SAPE   C1117583   0.610   4.141   5.994  0.1645 -0.0892  0.5037
  158SAPE  H11A17584   0.510   4.186   5.976 -1.2661 -2.8829  0.7571
  158SAPE  H11B17585   0.684   4.188   5.926  0.2773  0.3038  0.8969
  158SAPE     P17586   0.742   4.266   6.191 -0.1796  0.2420  0.0092
  158SAPE   O1317587   0.792   4.347   6.075  0.4817 -0.4474  0.2005
  158SAPE   O1417588   0.662   4.323   6.304  0.0092 -0.0596 -0.0383
  158SAPE   O1217589   0.655   4.144   6.133  0.5589  0.2726 -0.1809
  158SAPE   O1117590   0.875   4.186   6.251  0.3360  0.1184  0.1304
  158SAPE    C117591   0.878   4.044   6.261  0.2707  0.1379  0.2949
  158SAPE    HA17592   0.876   3.999   6.160  2.4575 -0.2756  0.3871
  158SAPE    HB17593   0.975   4.004   6.299  0.0846 -2.0071 -1.2925
  158SAPE    C217594   0.770   3.984   6.359  0.3679 -0.9943  1.0684
  158SAPE    HS17595   0.666   4.012   6.330  0.6564 -1.8218 -0.9011
  158SAPE   O2117596   0.803   4.027   6.489  0.3056 -0.7436  0.2768
  158SAPE   C2117597   0.707   4.069   6.569  0.0740  1.1525 -0.6173
  158SAPE   O2217598   0.589   4.038   6.559 -0.1862  0.2387  0.7240
  158SAPE   C2217599   0.768   4.159   6.680  0.1935  0.1800 -0.2683
  158SAPE   H2R17600   0.813   4.247   6.628 -0.3348  0.1381 -0.7954
  158SAPE   H2S17601   0.689   4.196   6.749  0.4275 -0.2145  0.2166
  158SAPE    C317602   0.763   3.831   6.343 -0.0054 -0.2968  0.4692
  158SAPE    HX17603   0.740   3.806   6.238 -1.9045  3.1335 -0.0998
  158SAPE    HY17604   0.681   3.789   6.405 -0.6230  0.3412  0.1010
  158SAPE   O3117605   0.891   3.772   6.372  0.2602  0.0184 -0.6987
  158SAPE   C3117606   0.914   3.739   6.506 -1.0407 -0.5017  0.9348
  158SAPE   O3217607   0.837   3.763   6.593 -0.3896 -0.2400 -0.0246
  158SAPE   C3217608   1.044   3.653   6.515  0.2117 -0.5665  0.0247
  158SAPE   H2X17609   1.132   3.715   6.489 -0.1482 -0.1800 -0.2793
  158SAPE   H2Y17610   1.029   3.575   6.438  2.3936  0.4874 -1.5699
  158SAPE   C2317611   0.881   4.088   6.765  0.4345  0.9504  0.1948
  158SAPE   H3R17612   0.949   4.167   6.803  1.3083 -0.0025  0.6469
  158SAPE   H3S17613   0.944   4.016   6.710  0.2254  1.0192 -0.1442
  158SAPE   C2417614   0.810   4.018   6.883 -0.3669 -0.4382 -0.2060
  158SAPE   H4R17615   0.746   3.940   6.836  0.0303 -0.4606 -0.7274
  158SAPE   H4S17616   0.748   4.095   6.933 -0.9042 -1.4487  0.7189
  158SAPE   C2517617   0.910   3.956   6.981 -1.1501 -0.0487 -1.7958
  158SAPE   H5R17618   0.968   3.870   6.944 -0.9612 -0.7203 -0.0407
  158SAPE   C2617619   0.932   3.999   7.106 -0.8521 -0.4338  0.7317
  158SAPE   H6R17620   0.987   3.923   7.164  0.0227 -2.6043 -2.6850
  158SAPE   C2717621   0.860   4.111   7.184 -0.1464  0.4570  0.2339
  158SAPE   H7R17622   0.780   4.055   7.237 -0.5231 -0.1747 -0.9776
  158SAPE   H7S17623   0.811   4.180   7.113  1.5956 -0.1524 -1.6552
  158SAPE   C2817624   0.952   4.182   7.285  0.9772  0.2412  0.0740
  158SAPE   H8R17625   0.997   4.269   7.234 -1.1800  1.5061  0.2055
  158SAPE   C2917626   0.980   4.147   7.412  0.0720 -0.8095 -0.1929
  158SAPE   H9R17627   1.026   4.228   7.470 -1.7137 -0.0880  0.2864
  158SAPE  C21017628   0.919   4.044   7.506  0.2866  0.5337  0.2472
  158SAPE  H10R17629   0.994   3.974   7.548  2.9625  1.8797 -1.8886
  158SAPE  H10S17630   0.852   3.976   7.448 -0.6120  0.3713  1.4451
  158SAPE  C21117631   0.836   4.094   7.609  0.4993 -0.7309 -0.2953
  158SAPE  H11R17632   0.729   4.075   7.593  0.3995 -0.7543  0.3985
  158SAPE  C21217633   0.879   4.146   7.728  0.0177  0.3122 -0.9526
  158SAPE  H12R17634   0.797   4.177   7.795  1.1985  0.5653  0.4274
  158SAPE  C21317635   1.018   4.165   7.783  0.3721  0.2694 -0.4151
  158SAPE  H13R17636   1.011   4.249   7.855  0.0387 -0.7352  0.7398
  158SAPE  H13S17637   1.091   4.199   7.706 -1.3628  1.5237 -1.5715
  158SAPE  C21417638   1.065   4.036   7.846 -0.2269 -0.1368 -0.2783
  158SAPE  H14R17639   1.083   3.959   7.769  2.5584  1.1346 -1.0392
  158SAPE  C21517640   1.107   4.007   7.967  0.3194  0.5043 -0.5220
  158SAPE  H15R17641   1.121   3.899   7.978 -0.4462  0.3875 -0.6625
  158SAPE  C21617642   1.112   4.103   8.089 -0.4641 -0.5437  0.8914
  158SAPE  H16R17643   1.102   4.209   8.057 -0.6546 -1.3413 -1.9467
  158SAPE  H16S17644   1.210   4.082   8.136 -0.4167 -1.4862  0.3915
  158SAPE  C21717645   1.011   4.067   8.202 -0.1503  0.4150 -0.2574
  158SAPE  H17R17646   1.033   3.968   8.248 -0.7201 -0.1880 -1.2395
  158SAPE  H17S17647   0.910   4.061   8.158 -0.2827  0.1963  0.0741
  158SAPE  C21817648   1.021   4.164   8.316  0.9236 -0.7130 -1.1323
  158SAPE  H18R17649   1.126   4.196   8.332  0.7080  0.4324 -1.8946
  158SAPE  H18S17650   0.987   4.121   8.413  1.9682  0.0235 -0.4253
  158SAPE  C21917651   0.938   4.293   8.293  0.2656  0.4965  0.2639
  158SAPE  H19R17652   0.831   4.273   8.268  0.2812 -1.5292  1.5717
  158SAPE  H19S17653   0.987   4.351   8.212 -3.0164  2.8305 -0.2853
  158SAPE  C22017654   0.915   4.374   8.421  0.0203 -0.6383 -0.5346
  158SAPE  H20R17655   0.861   4.467   8.392  3.8351  2.4837  1.2832
  158SAPE  H20S17656   1.011   4.414   8.462 -0.6306  1.2088 -0.6949
  158SAPE  H20T17657   0.850   4.321   8.494  1.5770 -4.5276 -1.7305
  158SAPE   C3317658   1.055   3.585   6.653 -0.4086  0.0175 -0.7085
  158SAPE   H3X17659   1.120   3.496   6.640 -0.8277 -0.4670  0.4032
  158SAPE   H3Y17660   0.959   3.550   6.696  0.5430  0.4609  1.9513
  158SAPE   C3417661   1.113   3.679   6.765  0.4193 -0.4895 -0.5047
  158SAPE   H4X17662   1.022   3.732   6.800 -0.7702 -2.1012 -1.0653
  158SAPE   H4Y17663   1.194   3.733   6.711  0.7496 -2.3605 -1.9796
  158SAPE   C3517664   1.174   3.601   6.881 -0.4544 -0.3857  0.0471
  158SAPE   H5X17665   1.255   3.534   6.845  0.2725  0.6022 -0.1832
  158SAPE   H5Y17666   1.093   3.536   6.920 -0.1136  0.0198  1.4861
  158SAPE   C3617667   1.218   3.679   7.006 -0.1839 -0.3292  0.4470
  158SAPE   H6X17668   1.120   3.725   7.032  0.3719  1.6146 -0.7234
  158SAPE   H6Y17669   1.286   3.757   6.967  0.0189 -1.1209 -0.8314
  158SAPE   C3717670   1.270   3.595   7.115 -0.0209  0.1687  0.3370
  158SAPE   H7X17671   1.193   3.522   7.147  0.7622 -1.0546 -0.4697
  158SAPE   H7Y17672   1.353   3.540   7.067  2.5141  3.7442  0.2232
  158SAPE   C3817673   1.314   3.667   7.241 -0.2777 -0.1456 -1.0550
  158SAPE   H8X17674   1.248   3.753   7.268 -0.6997 -0.3769 -1.3475
  158SAPE   H8Y17675   1.413   3.715   7.224 -0.6321  0.4956 -1.3559
  158SAPE   C3917676   1.309   3.575   7.362  0.6055 -0.6477  0.1789
  158SAPE   H9X17677   1.396   3.508   7.373  0.9705  0.0026  1.3632
  158SAPE   H9Y17678   1.213   3.518   7.363 -0.5798  1.0873 -2.3733
  158SAPE  C31017679   1.323   3.660   7.495 -0.5009  0.3211 -0.2778
  158SAPE  H10X17680   1.245   3.737   7.513 -1.0384  0.0291 -1.2882
  158SAPE  H10Y17681   1.419   3.712   7.474  0.6083 -1.7762 -0.6265
  158SAPE  C31117682   1.345   3.565   7.615  0.8514  0.0527  0.2219
  158SAPE  H11X17683   1.439   3.507   7.598 -0.4130 -1.7998 -0.8724
  158SAPE  H11Y17684   1.261   3.493   7.598  1.0405 -0.3271  0.8738
  158SAPE  C31217685   1.349   3.616   7.759  0.9176  0.5239  0.2814
  158SAPE  H12X17686   1.268   3.691   7.769  1.3614  1.1879 -0.8459
  158SAPE  H12Y17687   1.443   3.670   7.786  0.9031  0.1919  1.0128
  158SAPE  C31317688   1.318   3.503   7.857 -0.1566  0.4637 -0.3916
  158SAPE  H13X17689   1.405   3.435   7.865 -1.5361 -1.3462 -0.3351
  158SAPE  H13Y17690   1.232   3.443   7.821  2.0688 -2.5293 -1.0291
  158SAPE  C31417691   1.274   3.547   7.999 -0.3590  0.4385 -0.6776
  158SAPE  H14X17692   1.276   3.452   8.057  1.9072  0.9220  0.1695
  158SAPE  H14Y17693   1.166   3.570   8.000 -0.7358 -1.1868 -1.1380
  158SAPE  C31517694   1.357   3.655   8.065 -0.3543 -0.4291  0.4109
  158SAPE  H15X17695   1.358   3.742   7.996  1.2200 -0.2849  0.5665
  158SAPE  H15Y17696   1.465   3.626   8.072  0.5657  1.7745 -2.4541
  158SAPE  C31617697   1.301   3.699   8.197 -0.1218  0.7564  0.5811
  158SAPE  H16X17698   1.284   3.608   8.258 -0.1107  0.9176  0.8303
  158SAPE  H16Y17699   1.202   3.747   8.180  0.2223  1.0037 -0.8014
  158SAPE  C31717700   1.391   3.790   8.283  0.0917 -0.2784 -0.0698
  158SAPE  H17X17701   1.412   3.886   8.231  0.5434  0.5618  1.6092
  158SAPE  H17Y17702   1.492   3.747   8.303 -0.2647  0.3006  3.8713
  158SAPE  C31817703   1.317   3.830   8.408  0.6542  0.2724  0.3233
  158SAPE  H18X17704   1.216   3.869   8.382  1.2298  0.9547 -0.9938
  158SAPE  H18Y17705   1.366   3.913   8.463 -0.0865  1.7279 -1.0849
  158SAPE  H18Z17706   1.301   3.739   8.470 -2.0009 -0.1562 -0.8560
  159SAPE     N17707   1.002   0.723   6.231 -0.5461 -0.0897  0.6185
  159SAPE   HN117708   0.993   0.817   6.188 -0.8588 -1.3768 -2.3105
  159SAPE   HN217709   0.946   0.719   6.319  1.8577 -0.3716  2.2514
  159SAPE   HN317710   1.104   0.721   6.252  0.2050  1.1815 -2.4278
  159SAPE   C1217711   0.953   0.619   6.131 -0.3953  0.0813 -0.6042
  159SAPE  H12A17712   0.966   0.523   6.185  0.6399  1.3320  1.5019
  159SAPE  H12B17713   1.012   0.623   6.037  0.8494 -0.7488  0.1157
  159SAPE   C1117714   0.804   0.653   6.117 -0.0907  0.2067 -0.0559
  159SAPE  H11A17715   0.794   0.757   6.078 -1.0938 -0.7194 -2.4406
  159SAPE  H11B17716   0.747   0.649   6.212 -1.3524 -0.4717 -0.8147
  159SAPE     P17717   0.591   0.588   5.985 -0.3110 -0.5014 -0.0113
  159SAPE   O1317718   0.589   0.665   5.862  0.2047 -0.5057 -0.3795
  159SAPE   O1417719   0.508   0.466   5.977  0.2648  0.2046 -0.5145
  159SAPE   O1217720   0.745   0.554   6.028 -0.2752 -0.4212 -0.1593
  159SAPE   O1117721   0.535   0.678   6.108  0.5174  0.5916 -0.3404
  159SAPE    C117722   0.476   0.616   6.219 -0.2565  0.5670 -0.1927
  159SAPE    HA17723   0.524   0.518   6.240  0.3328  0.8009 -0.4230
  159SAPE    HB17724   0.481   0.672   6.314 -2.7835  1.7097 -0.6685
  159SAPE    C217725   0.324   0.597   6.191  0.5923 -0.2583 -0.9210
  159SAPE    HS17726   0.316   0.523   6.109 -0.2732  1.2929 -2.2826
  159SAPE   O2117727   0.263   0.721   6.142  0.0973 -0.2962  0.2684
  159SAPE   C2117728   0.134   0.712   6.104 -0.5400  0.3903  0.6542
  159SAPE   O2217729   0.073   0.604   6.096 -0.0887 -0.2345  0.7145
  159SAPE   C2217730   0.065   0.847   6.071  0.4751  0.3459 -0.8578
  159SAPE   H2R17731   0.086   0.872   5.964  1.6437 -0.0817 -0.7397
  159SAPE   H2S17732  -0.046   0.841   6.081  0.7247 -3.6948  1.0078
  159SAPE    C317733   0.243   0.540   6.317  0.0581  0.2817  0.2801
  159SAPE    HX17734   0.142   0.503   6.289 -0.4271  0.9865  1.0600
  159SAPE    HY17735   0.222   0.619   6.393  2.5271  1.3245 -0.0326
  159SAPE   O3117736   0.320   0.441   6.386 -0.1562  0.7942  0.6216
  159SAPE   C3117737   0.303   0.317   6.334  0.2712 -0.1297 -0.4667
  159SAPE   O3217738   0.244   0.293   6.230  0.1117 -0.9077  0.1170
  159SAPE   C3217739   0.368   0.222   6.426 -0.2716  0.6619 -0.0508
  159SAPE   H2X17740   0.452   0.270   6.480 -0.5347  0.6579  0.3579
  159SAPE   H2Y17741   0.400   0.135   6.364 -0.9180  1.9795 -2.3669
  159SAPE   C2317742   0.100   0.961   6.169 -0.2052 -0.5385  0.1162
  159SAPE   H3R17743   0.063   1.061   6.136  1.3287  0.0893  0.2075
  159SAPE   H3S17744   0.211   0.974   6.176 -0.4096  1.1665  0.5314
  159SAPE   C2417745   0.062   0.933   6.317  0.1026 -0.5208 -0.0926
  159SAPE   H4R17746   0.101   1.005   6.392 -2.0345  2.5143 -1.6806
  159SAPE   H4S17747   0.105   0.834   6.344 -1.0342 -0.5194  1.9718
  159SAPE   C2517748  -0.093   0.920   6.314  0.7299  0.3643  0.2142
  159SAPE   H5R17749  -0.143   0.967   6.228  1.2350  1.0859  0.3108
  159SAPE   C2617750  -0.161   0.850   6.407  0.1429  0.2612  0.2992
  159SAPE   H6R17751  -0.270   0.840   6.394  0.3179 -2.9601  0.6414
  159SAPE   C2717752  -0.090   0.772   6.513  0.2700 -0.7508  0.2981
  159SAPE   H7R17753  -0.138   0.803   6.609 -1.1597 -2.8868  0.3537
  159SAPE   H7S17754   0.017   0.801   6.524 -0.0957  1.3088 -0.9869
  159SAPE   C2817755  -0.116   0.624   6.504  0.0422  0.0612  0.4160
  159SAPE   H8R17756  -0.172   0.576   6.422 -2.2330  3.9059 -0.5557
  159SAPE   C2917757  -0.067   0.542   6.603  0.0367 -0.3106  0.2302
  159SAPE   H9R17758  -0.091   0.435   6.590 -1.2913  0.2619 -3.3133
  159SAPE  C21017759   0.019   0.579   6.721 -1.4825 -0.5057  0.1981
  159SAPE  H10R17760   0.062   0.477   6.730 -1.0041 -0.4007 -0.7490
  159SAPE  H10S17761  -0.048   0.593   6.808 -1.0138 -1.4090  0.7249
  159SAPE  C21117762   0.133   0.682   6.709  0.7410 -0.2907 -0.2010
  159SAPE  H11R17763   0.191   0.699   6.617  0.8771  1.7257  0.2107
  159SAPE  C21217764   0.163   0.764   6.813  0.2441  0.2930  0.0153
  159SAPE  H12R17765   0.256   0.819   6.794  0.4844  0.3671  1.2642
  159SAPE  C21317766   0.098   0.767   6.949 -0.1663 -0.2634  0.3076
  159SAPE  H13R17767  -0.008   0.741   6.927  0.0374  0.0312 -1.1774
  159SAPE  H13S17768   0.092   0.874   6.975 -2.2365 -0.8914  2.7726
  159SAPE  C21417769   0.146   0.672   7.058  0.3856 -0.0422  0.3006
  159SAPE  H14R17770   0.109   0.569   7.045 -2.3686  1.0340 -1.4039
  159SAPE  C21517771   0.207   0.706   7.171  0.3166  0.4911 -0.5681
  159SAPE  H15R17772   0.207   0.633   7.253 -1.0503  0.5522 -0.4833
  159SAPE  C21617773   0.245   0.845   7.208 -0.1820 -0.8877 -0.0857
  159SAPE  H16R17774   0.190   0.921   7.147 -0.4785 -0.1961  1.0222
  159SAPE  H16S17775   0.353   0.863   7.191 -0.5158  0.8756 -0.5750
  159SAPE  C21717776   0.219   0.872   7.358 -0.5975  0.6610  0.7448
  159SAPE  H17R17777   0.112   0.844   7.367 -1.0442  1.2950 -1.6946
  159SAPE  H17S17778   0.228   0.980   7.384  2.6741  0.7643 -0.3522
  159SAPE  C21817779   0.294   0.791   7.460  0.1991 -1.1308 -0.1939
  159SAPE  H18R17780   0.402   0.815   7.444 -0.2852 -0.4096 -2.9534
  159SAPE  H18S17781   0.287   0.681   7.443 -0.6664 -0.8451 -1.9458
  159SAPE  C21917782   0.253   0.835   7.600  0.5497 -0.0225 -0.6059
  159SAPE  H19R17783   0.264   0.945   7.612 -1.9185  0.0579  2.3321
  159SAPE  H19S17784   0.319   0.786   7.675 -0.5743  1.0345  1.1406
  159SAPE  C22017785   0.107   0.815   7.642 -0.4430  0.3784 -0.1061
  159SAPE  H20R17786   0.043   0.879   7.577  1.9650  0.3069 -2.6951
  159SAPE  H20S17787   0.105   0.836   7.751 -1.8978 -2.4595  0.5033
  159SAPE  H20T17788   0.075   0.709   7.627  1.9365 -0.4110 -0.0160
  159SAPE   C3317789   0.271   0.163   6.540  0.0773 -0.5126  0.1695
  159SAPE   H3X17790   0.315   0.070   6.582  0.9089  0.5683  1.8069
  159SAPE   H3Y17791   0.170   0.145   6.498 -0.8141 -0.0489  2.0081
  159SAPE   C3417792   0.266   0.261   6.662  0.1556 -0.4561  0.7868
  159SAPE   H4X17793   0.227   0.364   6.651 -0.0710 -0.6223  0.0136
  159SAPE   H4Y17794   0.369   0.284   6.696  1.3271 -1.1548 -2.0008
  159SAPE   C3517795   0.184   0.199   6.773 -0.5210  0.7176  0.3531
  159SAPE   H5X17796   0.226   0.097   6.787 -2.7090 -0.2398  0.3386
  159SAPE   H5Y17797   0.082   0.172   6.738 -1.0518  0.7626  1.7833
  159SAPE   C3617798   0.187   0.262   6.913  0.4963  0.1592  0.0300
  159SAPE   H6X17799   0.101   0.333   6.912  0.0876 -0.3325 -0.8054
  159SAPE   H6Y17800   0.283   0.315   6.927  0.9922 -0.5740 -0.5278
  159SAPE   C3717801   0.158   0.165   7.031 -0.0927  0.1880  0.0755
  159SAPE   H7X17802   0.237   0.088   7.028  0.9586  1.2761 -1.2374
  159SAPE   H7Y17803   0.065   0.112   7.003  0.0078  1.1637 -2.3145
  159SAPE   C3817804   0.157   0.237   7.164 -0.5240  0.0926  0.2144
  159SAPE   H8X17805   0.098   0.331   7.161  0.2886  0.6590  1.2969
  159SAPE   H8Y17806   0.260   0.272   7.182 -0.4904 -0.0539  0.3102
  159SAPE   C3917807   0.099   0.144   7.267  0.0401  0.5832 -0.0991
  159SAPE   H9X17808   0.140   0.041   7.269 -2.8792 -0.7314 -1.5341
  159SAPE   H9Y17809  -0.011   0.132   7.251 -0.0493  2.0630 -0.7834
  159SAPE  C31017810   0.103   0.197   7.412  0.2746 -0.5117 -0.1786
  159SAPE  H10X17811   0.208   0.192   7.449  0.0680  0.3678  0.5700
  159SAPE  H10Y17812   0.040   0.144   7.486  1.3885  1.1006  2.0600
  159SAPE  C31117813   0.061   0.350   7.428 -0.1337  0.3062 -1.1176
  159SAPE  H11X17814  -0.030   0.371   7.367  1.6136  0.8249 -3.7044
  159SAPE  H11Y17815   0.139   0.402   7.369  1.6446 -1.4652 -0.4272
  159SAPE  C31217816   0.051   0.390   7.577  0.4896  0.3151 -0.8738
  159SAPE  H12X17817  -0.019   0.321   7.628  0.9034  0.7110  0.2663
  159SAPE  H12Y17818   0.009   0.493   7.580 -3.2084 -1.0137 -1.5698
  159SAPE  C31317819   0.189   0.391   7.647 -0.4623 -0.2265  0.4947
  159SAPE  H13X17820   0.268   0.442   7.587 -1.4071  0.4471 -0.2185
  159SAPE  H13Y17821   0.228   0.289   7.668 -0.0661 -0.3906 -0.9356
  159SAPE  C31417822   0.195   0.467   7.781 -0.1346 -0.6331 -0.2233
  159SAPE  H14X17823   0.150   0.568   7.768 -1.7199 -1.4120 -1.1443
  159SAPE  H14Y17824   0.301   0.467   7.814  0.3840  2.2897 -1.6116
  159SAPE  C31517825   0.108   0.394   7.888 -0.0959 -0.2940  0.5172
  159SAPE  H15X17826   0.114   0.283   7.889 -2.6462 -0.5098  0.3542
  159SAPE  H15Y17827  -0.000   0.411   7.867 -0.4336 -0.7880  1.7518
  159SAPE  C31617828   0.144   0.437   8.034 -0.1899 -0.2347 -0.3513
  159SAPE  H16X17829   0.246   0.482   8.039 -0.2522 -0.1416  0.0841
  159SAPE  H16Y17830   0.158   0.350   8.101  0.4265  1.6944  2.1742
  159SAPE  C31717831   0.049   0.541   8.101 -0.2576  0.6884  0.0609
  159SAPE  H17X17832   0.063   0.626   8.032  0.9848  1.2881  1.0016
  159SAPE  H17Y17833   0.096   0.575   8.196 -0.1899  2.3154 -0.5232
  159SAPE  C31817834  -0.090   0.492   8.126  0.6439 -0.4010  0.3311
  159SAPE  H18X17835  -0.094   0.409   8.199  1.4867 -1.7536 -1.0818
  159SAPE  H18Y17836  -0.142   0.462   8.033  0.7517  1.2842 -0.3101
  159SAPE  H18Z17837  -0.156   0.575   8.159 -2.5956 -2.4118 -0.7378
  160SAPE     N17838   0.343   5.351   6.232 -0.1295  0.0579  0.3280
  160SAPE   HN117839   0.403   5.380   6.153 -0.1070  1.6259  0.8987
  160SAPE   HN217840   0.398   5.367   6.319  0.7912  3.1226 -0.7155
  160SAPE   HN317841   0.324   5.250   6.213 -2.2643  0.5965 -0.6966
  160SAPE   C1217842   0.214   5.433   6.226 -0.7915 -0.5133 -0.3031
  160SAPE  H12A17843   0.160   5.406   6.318 -1.1610 -0.4083 -0.4888
  160SAPE  H12B17844   0.163   5.389   6.138 -0.9076 -2.7326  0.8173
  160SAPE   C1117845   0.246   5.584   6.220 -0.0714  0.3759  0.5257
  160SAPE  H11A17846   0.154   5.642   6.241 -0.5735  0.2185 -1.0805
  160SAPE  H11B17847   0.273   5.612   6.115  2.6668 -1.0603  0.7358
  160SAPE     P17848   0.367   5.777   6.354 -0.2784  0.2499 -0.2174
  160SAPE   O1317849   0.480   5.783   6.456  0.0669  0.0693 -0.3214
  160SAPE   O1417850   0.379   5.865   6.236  0.1684  0.4422 -0.1315
  160SAPE   O1217851   0.360   5.627   6.299  0.0552  0.6919 -0.4279
  160SAPE   O1117852   0.229   5.802   6.428 -0.4482  0.4822  0.2535
  160SAPE    C117853   0.145   5.720   6.497  0.3540 -0.2533 -0.1185
  160SAPE    HA17854   0.040   5.737   6.464  0.5457 -0.6188 -0.9238
  160SAPE    HB17855   0.174   5.615   6.477  1.0777  0.0073 -0.4869
  160SAPE    C217856   0.153   5.740   6.650 -0.6077 -0.3858  0.2885
  160SAPE    HS17857   0.253   5.706   6.686 -0.5096 -0.2743  0.1244
  160SAPE   O2117858   0.043   5.681   6.723 -0.1571  0.0829  0.4855
  160SAPE   C2117859   0.050   5.546   6.728 -0.3054  0.6181 -0.1150
  160SAPE   O2217860   0.129   5.480   6.667 -0.7564  0.7613  0.6503
  160SAPE   C2217861  -0.048   5.491   6.826  0.0407  0.2519 -0.5049
  160SAPE   H2R17862  -0.079   5.560   6.908 -0.3892 -0.3943 -0.1183
  160SAPE   H2S17863  -0.140   5.480   6.763 -0.4336 -0.1368  0.2499
  160SAPE    C317864   0.165   5.889   6.681  0.3861 -0.9392 -0.4707
  160SAPE    HX17865   0.067   5.935   6.656  1.1685  0.0220 -1.9103
  160SAPE    HY17866   0.241   5.933   6.613 -0.8385  1.7232 -0.2578
  160SAPE   O3117867   0.202   5.914   6.818  1.0863 -0.4000 -0.3251
  160SAPE   C3117868   0.234   6.034   6.841  0.3578 -0.1056 -0.4481
  160SAPE   O3217869   0.240   6.131   6.762 -0.0255 -0.0302 -0.6538
  160SAPE   C3217870   0.269   6.059   6.991  0.0051  0.4799  0.4192
  160SAPE   H2X17871   0.380   6.060   6.989  0.0011  0.6944  0.2591
  160SAPE   H2Y17872   0.220   5.980   7.050  0.0915  0.8694  1.0215
  160SAPE   C2317873  -0.005   5.359   6.898 -0.1608 -0.7202  0.1346
  160SAPE   H3R17874   0.056   5.293   6.833  0.4840 -1.2032  1.2042
  160SAPE   H3S17875  -0.095   5.306   6.935 -0.9944 -1.6527 -2.9738
  160SAPE   C2417876   0.086   5.377   7.033 -0.0210 -0.2156 -0.7993
  160SAPE   H4R17877   0.100   5.277   7.080  0.5163  0.6267  0.9164
  160SAPE   H4S17878   0.022   5.426   7.109  0.8540 -0.7137  0.2854
  160SAPE   C2517879   0.219   5.448   7.029 -0.1516  0.0183  0.0635
  160SAPE   H5R17880   0.296   5.382   6.987 -0.2917 -1.1668  1.5865
  160SAPE   C2617881   0.254   5.564   7.086 -0.1767 -0.1804 -0.6003
  160SAPE   H6R17882   0.356   5.602   7.069 -0.3026  0.1729 -0.5810
  160SAPE   C2717883   0.164   5.664   7.161 -0.3455  0.5564 -0.1757
  160SAPE   H7R17884   0.082   5.613   7.217  1.6181 -4.2555 -1.1609
  160SAPE   H7S17885   0.107   5.733   7.095 -0.6142  1.9515  1.4435
  160SAPE   C2817886   0.244   5.740   7.258  0.8866  0.3493 -0.2235
  160SAPE   H8R17887   0.347   5.762   7.229  1.5691 -2.2025 -0.0314
  160SAPE   C2917888   0.218   5.759   7.389  0.0934 -0.6828  0.0643
  160SAPE   H9R17889   0.294   5.807   7.452 -1.1809  1.9131 -0.2541
  160SAPE  C21017890   0.100   5.721   7.469 -0.0850  0.3075 -0.6724
  160SAPE  H10R17891   0.029   5.658   7.411  0.0407 -0.3198 -0.1642
  160SAPE  H10S17892   0.036   5.807   7.498 -1.4768  0.8948 -4.8379
  160SAPE  C21117893   0.150   5.639   7.589 -0.6952 -0.6490  0.0506
  160SAPE  H11R17894   0.190   5.539   7.566 -0.2286 -0.0538 -1.9423
  160SAPE  C21217895   0.185   5.694   7.707  0.5743  0.0568 -0.5711
  160SAPE  H12R17896   0.221   5.629   7.788 -0.7241  2.0628  1.7431
  160SAPE  C21317897   0.170   5.835   7.755 -0.2969  0.0823  0.0998
  160SAPE  H13R17898   0.117   5.892   7.676  0.4535 -0.2067 -0.6214
  160SAPE  H13S17899   0.272   5.875   7.776  0.7063 -1.0582 -2.2728
  160SAPE  C21417900   0.076   5.840   7.872  0.0745 -0.0234 -0.2567
  160SAPE  H14R17901  -0.022   5.799   7.845  0.3154 -0.2396 -0.8122
  160SAPE  C21517902   0.101   5.879   7.996  0.5443 -0.2911 -0.0993
  160SAPE  H15R17903   0.027   5.858   8.075 -0.4809  0.6300 -0.7963
  160SAPE  C21617904   0.227   5.935   8.055 -0.1968 -0.6223 -0.5399
  160SAPE  H16R17905   0.209   6.021   8.123 -0.2270 -2.1947  1.5379
  160SAPE  H16S17906   0.302   5.960   7.978 -0.2862 -2.5087 -1.3074
  160SAPE  C21717907   0.314   5.833   8.142 -0.0707  0.3118 -0.6303
  160SAPE  H17R17908   0.335   5.732   8.102  2.0756  0.3040  0.4236
  160SAPE  H17S17909   0.253   5.816   8.233 -0.4538  1.1586 -0.7134
  160SAPE  C21817910   0.449   5.894   8.181 -0.7225  0.4996 -0.4711
  160SAPE  H18R17911   0.438   5.989   8.238 -0.1930  0.8762 -0.9893
  160SAPE  H18S17912   0.525   5.914   8.102 -0.5175  1.3525 -0.0766
  160SAPE  C21917913   0.519   5.803   8.284  0.1748  0.0130  0.2684
  160SAPE  H19R17914   0.555   5.714   8.230  3.3206  1.6551 -0.5750
  160SAPE  H19S17915   0.444   5.776   8.361 -1.6106 -0.3940 -1.5346
  160SAPE  C22017916   0.633   5.881   8.347  0.0642  0.0672  0.0958
  160SAPE  H20R17917   0.617   5.991   8.344 -3.4556 -0.2839  1.3155
  160SAPE  H20S17918   0.725   5.872   8.286  1.0896 -0.6254  1.6965
  160SAPE  H20T17919   0.650   5.845   8.451 -1.3156 -1.4608 -0.1552
  160SAPE   C3317920   0.218   6.193   7.045 -0.5884 -0.3558 -0.3763
  160SAPE   H3X17921   0.111   6.190   7.077 -0.0924 -2.2406  1.3492
  160SAPE   H3Y17922   0.236   6.273   6.971 -3.1388 -0.2898 -1.0283
  160SAPE   C3417923   0.311   6.229   7.168  0.1926 -0.0497 -0.0424
  160SAPE   H4X17924   0.278   6.327   7.209  0.1353 -0.2904  0.5003
  160SAPE   H4Y17925   0.415   6.245   7.134  0.0719 -0.0248 -0.4088
  160SAPE   C3517926   0.312   6.136   7.292  0.1481  0.4803 -0.7225
  160SAPE   H5X17927   0.379   6.048   7.275 -1.5765 -1.1746  0.5979
  160SAPE   H5Y17928   0.212   6.094   7.316  0.2853  1.1887  1.2067
  160SAPE   C3617929   0.352   6.203   7.423 -0.2747 -0.4219 -0.3629
  160SAPE   H6X17930   0.269   6.267   7.460 -0.2682  1.0411 -2.6537
  160SAPE   H6Y17931   0.450   6.253   7.406  1.0188 -2.9650 -0.7526
  160SAPE   C3717932   0.377   6.089   7.530 -0.1731  0.6635  0.6571
  160SAPE   H7X17933   0.441   6.014   7.479  0.0639 -0.3390  2.3408
  160SAPE   H7Y17934   0.283   6.034   7.555  0.8138 -0.5882  1.7514
  160SAPE   C3817935   0.439   6.144   7.654 -0.2711 -0.9524  0.7019
  160SAPE   H8X17936   0.528   6.201   7.618 -1.0516  1.0689  1.8533
  160SAPE   H8Y17937   0.483   6.067   7.721  0.7882 -1.1400 -0.1718
  160SAPE   C3917938   0.345   6.237   7.736 -0.2967  1.0671  0.1898
  160SAPE   H9X17939   0.238   6.204   7.733 -0.1171  0.4970 -0.1663
  160SAPE   H9Y17940   0.343   6.336   7.686 -1.9169  0.4199 -1.1456
  160SAPE  C31017941   0.397   6.263   7.875  0.7251  0.2107 -0.0197
  160SAPE  H10X17942   0.491   6.323   7.869  0.4820  0.5045 -1.4388
  160SAPE  H10Y17943   0.421   6.166   7.923  2.1695  0.7495  0.3948
  160SAPE  C31117944   0.293   6.345   7.957 -0.0556 -0.0803 -0.1265
  160SAPE  H11X17945   0.195   6.302   7.926  0.9152  0.3546 -4.4064
  160SAPE  H11Y17946   0.298   6.449   7.916 -0.1538  0.0654  0.2280
  160SAPE  C31217947   0.322   6.327   8.116  0.4078  0.0390 -0.1504
  160SAPE  H12X17948   0.325   6.218   8.138  0.3380  0.1468  0.4106
  160SAPE  H12Y17949   0.232   6.372   8.163 -0.4220 -0.2615 -1.3915
  160SAPE  C31317950   0.446   6.390   8.162 -0.0922  0.4833  0.0508
  160SAPE  H13X17951   0.456   6.499   8.147 -2.8815  0.6263 -1.4764
  160SAPE  H13Y17952   0.536   6.353   8.110  1.2699  0.4716  2.2871
  160SAPE  C31417953   0.462   6.363   8.310  0.0663 -0.2241 -0.2104
  160SAPE  H14X17954   0.503   6.261   8.329 -0.0521 -0.3250 -0.4953
  160SAPE  H14Y17955   0.370   6.382   8.368 -0.8159 -0.5014 -1.4828
  160SAPE  C31517956   0.565   6.456   8.377 -0.2987  0.4166 -1.1861
  160SAPE  H15X17957   0.559   6.430   8.485 -0.2001 -0.1895 -1.3224
  160SAPE  H15Y17958   0.532   6.562   8.374 -1.8485 -0.0583 -1.9364
  160SAPE  C31617959   0.704   6.436   8.322 -0.1299 -0.0220 -0.0050
  160SAPE  H16X17960   0.700   6.470   8.216 -0.9949  2.3878  0.7424
  160SAPE  H16Y17961   0.733   6.329   8.312 -2.1591 -0.5411 -0.7388
  160SAPE  C31717962   0.813   6.523   8.385 -0.4733  0.4248 -0.1558
  160SAPE  H17X17963   0.810   6.497   8.494 -0.7538 -2.0540 -0.6873
  160SAPE  H17Y17964   0.784   6.630   8.381  0.2283  0.5693 -3.7893
  160SAPE  C31817965   0.958   6.495   8.334  0.1384  0.0895  0.2911
  160SAPE  H18X17966   1.001   6.400   8.370  0.9464  0.1196 -0.5662
  160SAPE  H18Y17967   1.025   6.579   8.365  0.6849  0.1204 -0.9165
  160SAPE  H18Z17968   0.958   6.507   8.223  1.6418  0.6763  0.3303
  161SOPE     N17969   6.481   2.520  10.685  0.6266  0.4385  0.3992
  161SOPE   HN117970   6.577   2.551  10.659 -0.3038  2.5621 -0.7663
  161SOPE   HN217971   6.471   2.436  10.745 -2.4718 -0.0463 -0.6262
  161SOPE   HN317972   6.441   2.489  10.594 -0.3921 -1.1359  1.3350
  161SOPE   C1217973   6.393   2.626  10.757  0.5787 -0.1467 -0.4561
  161SOPE  H12A17974   6.400   2.720  10.699 -2.0038  0.4228  0.0236
  161SOPE  H12B17975   6.423   2.641  10.863 -1.8898 -1.1788  0.4725
  161SOPE   C1117976   6.245   2.565  10.749  0.1284  0.6751 -0.0936
  161SOPE  H11A17977   6.187   2.633  10.814 -1.1020 -2.3273  2.1904
  161SOPE  H11B17978   6.254   2.462  10.792  1.7130  0.2285 -1.3607
  161SOPE     P17979   6.096   2.666  10.560 -0.5860 -0.1390  0.1908
  161SOPE   O1317980   6.179   2.787  10.532  0.3089  0.6443 -0.9154
  161SOPE   O1417981   5.982   2.691  10.649 -0.3588 -0.7285  0.1342
  161SOPE   O1217982   6.191   2.551  10.618  0.2937 -0.1002 -0.1774
  161SOPE   O1117983   6.047   2.616  10.427  0.0241  0.3083  0.3306
  161SOPE    C117984   6.078   2.484  10.385 -0.1861 -0.4405  0.2000
  161SOPE    HA17985   5.994   2.454  10.319  1.7687 -0.0800 -2.6230
  161SOPE    HB17986   6.081   2.409  10.467  0.7994 -0.4356  0.1747
  161SOPE    C217987   6.211   2.471  10.303  0.2430  0.1123 -0.1777
  161SOPE    HS17988   6.283   2.554  10.320 -0.3743  0.6658 -0.1795
  161SOPE   O2117989   6.180   2.489  10.162  0.6722 -0.0594  0.3969
  161SOPE   C2117990   6.169   2.613  10.119 -0.0461  0.2019 -0.0689
  161SOPE   O2217991   6.186   2.714  10.184  0.0361 -1.3201 -0.5182
  161SOPE   C2217992   6.115   2.603   9.978  0.0127  0.1408  0.9233
  161SOPE   H2R17993   6.006   2.586   9.986 -0.2275  0.1560 -1.5841
  161SOPE   H2S17994   6.169   2.518   9.930  0.7704  0.4130  1.2707
  161SOPE    C317995   6.279   2.332  10.311  0.5374 -0.2471 -0.3995
  161SOPE    HX17996   6.210   2.258  10.265  0.1864 -0.6639  0.7394
  161SOPE    HY17997   6.285   2.298  10.417 -1.7862 -2.4457 -0.8807
  161SOPE   O3117998   6.405   2.344  10.244  0.2261  0.0303 -0.0233
  161SOPE   C3117999   6.502   2.386  10.317 -0.2496  0.4814  0.7423
  161SOPE   O3218000   6.498   2.404  10.440  0.0314 -0.6604  0.2202
  161SOPE   C3218001   6.641   2.373  10.248 -0.6157  0.7673  0.4162
  161SOPE   H2X18002   6.685   2.276  10.279  0.2619  0.4796 -1.5970
  161SOPE   H2Y18003   6.698   2.458  10.290  0.3525  1.0781 -1.4135
  161SOPE   C2318004   6.141   2.728   9.887  0.1991  0.0113  0.2360
  161SOPE   H3R18005   6.250   2.748   9.881 -0.1499  2.8022  1.4620
  161SOPE   H3S18006   6.098   2.820   9.932 -0.1844  0.0478 -0.1946
  161SOPE   C2418007   6.072   2.694   9.745 -0.0941 -0.8718 -0.8835
  161SOPE   H4R18008   6.136   2.613   9.702 -1.9286 -1.5632 -2.4651
  161SOPE   H4S18009   5.968   2.661   9.763 -0.8184  0.9524 -1.4583
  161SOPE   C2518010   6.051   2.812   9.651 -0.0246  0.2527  0.3660
  161SOPE   H5R18011   5.978   2.885   9.689  1.6064  1.5662  1.1207
  161SOPE   H5S18012   6.148   2.864   9.633  1.6875 -2.9774 -0.6438
  161SOPE   C2618013   6.007   2.767   9.511  0.2669  0.4708 -0.2045
  161SOPE   H6R18014   6.083   2.702   9.463  0.1396  0.8119 -0.8844
  161SOPE   H6S18015   5.912   2.709   9.514  1.1014 -0.9043  0.6625
  161SOPE   C2718016   5.973   2.892   9.428  0.3943 -0.0024 -0.0317
  161SOPE   H7R18017   5.903   2.964   9.474  2.9703  1.6161  1.6166
  161SOPE   H7S18018   6.076   2.935   9.427  1.2781 -1.9754  0.2034
  161SOPE   C2818019   5.914   2.850   9.295  0.5901 -0.8909  0.4789
  161SOPE   H8R18020   5.857   2.755   9.305 -0.5368 -0.2335  0.4410
  161SOPE   H8S18021   5.835   2.925   9.273  1.5372  0.2671  0.9136
  161SOPE   C2918022   6.021   2.852   9.193 -0.9250  0.2572  0.3284
  161SOPE   H9118023   6.098   2.783   9.231 -0.1521 -0.3823 -2.2363
  161SOPE  C21018024   6.033   2.906   9.070  0.0781 -0.3018 -0.0887
  161SOPE  H10118025   6.119   2.895   9.003  0.3887  1.7259 -0.0998
  161SOPE  C21118026   5.918   2.981   9.008 -0.0781 -0.0887 -0.7358
  161SOPE  H11R18027   5.958   3.064   8.945  1.9172 -0.2363  0.2781
  161SOPE  H11S18028   5.847   3.019   9.085  1.9062  0.2989  0.9877
  161SOPE  C21218029   5.855   2.883   8.899  0.1524 -0.2308 -0.1601
  161SOPE  H12R18030   5.762   2.928   8.859 -0.0097 -0.8223 -0.4516
  161SOPE  H12S18031   5.829   2.789   8.953 -1.2150  0.6867  0.8652
  161SOPE  C21318032   5.945   2.877   8.781 -0.1687 -0.1779 -0.3022
  161SOPE  H13R18033   6.048   2.844   8.805  0.3843  0.5094 -1.5987
  161SOPE  H13S18034   5.953   2.977   8.733 -1.0849  0.8313  1.5916
  161SOPE  C21418035   5.897   2.780   8.679  0.7266  0.0924  0.3283
  161SOPE  H14R18036   5.786   2.782   8.678  0.7060 -0.3200  0.8334
  161SOPE  H14S18037   5.915   2.681   8.728 -0.4861 -0.9536 -1.2674
  161SOPE  C21518038   5.944   2.780   8.532 -0.6608 -0.7445 -0.0072
  161SOPE  H15R18039   5.930   2.680   8.485  0.5841 -1.5224  1.1894
  161SOPE  H15S18040   6.054   2.791   8.538 -0.7931  0.0217  3.0002
  161SOPE  C21618041   5.870   2.893   8.452  0.0432 -1.4738 -0.2405
  161SOPE  H16R18042   5.881   2.990   8.503  0.8401 -1.7061  0.0430
  161SOPE  H16S18043   5.763   2.862   8.450 -0.3830 -0.1562  0.7999
  161SOPE  C21718044   5.921   2.893   8.313 -0.4756 -0.5773  0.0224
  161SOPE  H17R18045   5.847   2.949   8.252  1.0194  0.4450 -0.9370
  161SOPE  H17S18046   5.927   2.790   8.272 -0.3130 -0.4680 -0.2357
  161SOPE  C21818047   6.055   2.967   8.290 -0.2341  0.3338 -0.2118
  161SOPE  H18R18048   6.054   3.065   8.343  0.7811  0.8759 -1.1667
  161SOPE  H18S18049   6.067   2.990   8.182 -1.1777 -2.5629 -1.0216
  161SOPE  H18T18050   6.141   2.907   8.326 -0.6018  0.3952  0.8047
  161SOPE   C3318051   6.635   2.380  10.094 -0.5204 -0.1441  0.4717
  161SOPE   H3X18052   6.559   2.450  10.053  1.4139  1.1732 -1.0925
  161SOPE   H3Y18053   6.603   2.279  10.062 -2.0679  0.4313  0.1176
  161SOPE   C3418054   6.765   2.428  10.035  0.0061  0.6744  0.4063
  161SOPE   H4X18055   6.843   2.356  10.068 -0.1431  0.2829 -0.0733
  161SOPE   H4Y18056   6.798   2.529  10.067 -1.3827  1.1747  0.3110
  161SOPE   C3518057   6.764   2.422   9.884 -0.2266 -0.3378 -0.5682
  161SOPE   H5X18058   6.840   2.489   9.840  0.8584 -2.3463 -1.9338
  161SOPE   H5Y18059   6.663   2.456   9.852 -1.6133 -0.7043  2.9279
  161SOPE   C3618060   6.789   2.275   9.821 -0.3281 -0.5177  0.0619
  161SOPE   H6X18061   6.734   2.197   9.877 -0.6988 -0.3440 -0.0550
  161SOPE   H6Y18062   6.899   2.261   9.824 -0.1775  0.5752  0.2337
  161SOPE   C3718063   6.755   2.273   9.672  0.5743  0.5629  0.1216
  161SOPE   H7X18064   6.654   2.318   9.669  0.9127  1.5633  1.9542
  161SOPE   H7Y18065   6.754   2.166   9.642  0.0831 -0.1248  2.4071
  161SOPE   C3818066   6.850   2.342   9.582 -0.2893 -0.2836 -0.1156
  161SOPE   H8X18067   6.948   2.291   9.590 -0.0182  0.3084  0.3913
  161SOPE   H8Y18068   6.855   2.449   9.610  0.0715 -0.1726 -0.5991
  161SOPE   C3918069   6.795   2.341   9.436  0.2415  0.4546  0.3408
  161SOPE   H9X18070   6.774   2.238   9.399  2.5611  0.4575 -1.2537
  161SOPE   H9Y18071   6.881   2.370   9.372  0.1427  0.4507  0.2075
  161SOPE  C31018072   6.674   2.427   9.413  0.5503  0.2765  0.9010
  161SOPE  H10X18073   6.713   2.531   9.416 -0.2676  0.6453 -0.3242
  161SOPE  H10Y18074   6.607   2.430   9.502 -0.2045  0.5510  0.3453
  161SOPE  C31118075   6.603   2.407   9.281  0.0938  0.3266 -0.2155
  161SOPE  H11X18076   6.515   2.473   9.265 -1.0155 -1.4676 -1.9684
  161SOPE  H11Y18077   6.575   2.300   9.274  0.3580  0.2428 -0.0200
  161SOPE  C31218078   6.695   2.448   9.167  0.6939  0.3701  0.7136
  161SOPE  H12X18079   6.791   2.392   9.160  0.9168  0.7561  0.6461
  161SOPE  H12Y18080   6.724   2.554   9.185  0.6666  0.0534  2.9134
  161SOPE  C31318081   6.636   2.438   9.027 -0.4898 -0.3572 -0.0568
  161SOPE  H13X18082   6.550   2.507   9.027 -0.5488 -0.4182 -1.1480
  161SOPE  H13Y18083   6.603   2.333   9.011  1.9153 -1.3327  0.7641
  161SOPE  C31418084   6.746   2.469   8.922 -0.2041 -0.0352  1.0033
  161SOPE  H14X18085   6.819   2.388   8.943 -1.5986 -1.5246  0.3013
  161SOPE  H14Y18086   6.793   2.567   8.945  0.2695 -0.0791  0.2394
  161SOPE  C31518087   6.696   2.469   8.774 -0.3752  0.1509 -0.3673
  161SOPE  H15X18088   6.599   2.521   8.758 -0.6498  0.4581  1.9317
  161SOPE  H15Y18089   6.684   2.361   8.749  2.9703 -0.0984 -1.4988
  161SOPE  C31618090   6.796   2.509   8.664 -0.0190  0.4611 -0.4580
  161SOPE  H16X18091   6.885   2.445   8.679 -0.6608 -0.3858 -0.2096
  161SOPE  H16Y18092   6.825   2.616   8.677  0.9682  0.0044  1.4226
  161SOPE  C31718093   6.759   2.484   8.521  0.1757  0.5801  0.4878
  161SOPE  H17X18094   6.673   2.552   8.505  0.9927  2.1327  2.2616
  161SOPE  H17Y18095   6.737   2.375   8.510 -0.7076  0.4363  3.0086
  161SOPE  C31818096   6.869   2.528   8.431 -0.7679 -0.1638  0.8968
  161SOPE  H18X18097   6.915   2.624   8.463  0.5766 -1.0788  1.8341
  161SOPE  H18Y18098   6.836   2.545   8.326  0.3806 -1.0983  0.3593
  161SOPE  H18Z18099   6.947   2.449   8.434 -3.3184 -2.8829 -0.1191
  162SOPE     N18100   4.357   0.952  10.657  0.3645 -0.2304  0.0243
  162SOPE   HN118101   4.456   0.973  10.680 -0.2000  1.2219  1.2462
  162SOPE   HN218102   4.303   1.040  10.656 -0.4191 -0.6967  0.1461
  162SOPE   HN318103   4.312   0.890  10.727  1.3936  1.0924  1.9287
  162SOPE   C1218104   4.330   0.890  10.523 -0.3601  0.5952  0.1404
  162SOPE  H12A18105   4.357   0.782  10.525 -0.2580  0.6273  0.5265
  162SOPE  H12B18106   4.377   0.943  10.438  0.4669 -0.8287 -0.3367
  162SOPE   C1118107   4.174   0.893  10.490 -0.4187 -0.9677  0.1333
  162SOPE  H11A18108   4.177   0.827  10.401 -1.7925 -0.3598 -0.3904
  162SOPE  H11B18109   4.131   0.992  10.463 -2.3558 -1.2105  2.0495
  162SOPE     P18110   4.033   0.680  10.591 -0.1191  0.0536  0.0048
  162SOPE   O1318111   3.907   0.676  10.674  0.2185 -0.1689 -0.2265
  162SOPE   O1418112   4.137   0.584  10.619 -0.5098 -0.1024 -0.0907
  162SOPE   O1218113   4.102   0.823  10.596  0.1102  0.5514  0.2598
  162SOPE   O1118114   3.987   0.651  10.436  0.7580  0.7667  0.1390
  162SOPE    C118115   3.893   0.745  10.382 -0.3092 -0.1918 -0.0929
  162SOPE    HA18116   3.948   0.839  10.360  0.1889 -0.2930  0.6486
  162SOPE    HB18117   3.811   0.763  10.455  0.0126 -0.0543  0.2394
  162SOPE    C218118   3.850   0.703  10.243 -0.1433  0.1229 -0.4875
  162SOPE    HS18119   3.919   0.628  10.197  0.9889  1.9607 -1.9384
  162SOPE   O2118120   3.838   0.811  10.151 -0.6325  0.6696  0.7405
  162SOPE   C2118121   3.950   0.860  10.101 -0.3845  0.0513  0.4286
  162SOPE   O2218122   4.064   0.834  10.131 -0.0352 -0.2841 -0.3565
  162SOPE   C2218123   3.920   0.940   9.971 -0.6508 -0.0836 -0.2199
  162SOPE   H2R18124   3.883   1.042   9.997 -6.1435 -2.0619  0.9722
  162SOPE   H2S18125   3.838   0.892   9.914  0.0963  0.8988 -2.2143
  162SOPE    C318126   3.716   0.628  10.261 -0.3347  0.4454  0.2376
  162SOPE    HX18127   3.638   0.689  10.311 -2.3279 -1.3802 -0.5015
  162SOPE    HY18128   3.741   0.541  10.325 -1.4452 -1.4408 -1.7469
  162SOPE   O3118129   3.671   0.576  10.133  0.1725  0.1349 -0.7864
  162SOPE   C3118130   3.587   0.661  10.072 -0.5671 -0.3804 -0.1165
  162SOPE   O3218131   3.565   0.775  10.110 -0.5370  0.2464 -0.6012
  162SOPE   C3218132   3.521   0.597   9.946 -0.0116 -0.2352 -0.1756
  162SOPE   H2X18133   3.410   0.603   9.956  0.0606  1.1843  0.0013
  162SOPE   H2Y18134   3.548   0.490   9.946  0.3385 -0.1974  2.0630
  162SOPE   C2318135   4.029   0.938   9.865  0.4656 -0.7257  0.2738
  162SOPE   H3R18136   4.047   0.832   9.836 -0.9311 -0.6855 -0.8263
  162SOPE   H3S18137   4.119   0.982   9.915  0.0585 -0.0981  0.4658
  162SOPE   C2418138   3.992   1.016   9.736  0.4056 -0.3975 -0.5323
  162SOPE   H4R18139   3.947   1.117   9.750  2.4379  0.7758 -1.9398
  162SOPE   H4S18140   4.087   1.040   9.685  0.3297  1.5229  0.1440
  162SOPE   C2518141   3.900   0.932   9.652 -0.0548  0.1365 -0.1540
  162SOPE   H5R18142   3.932   0.826   9.664  0.6148  0.3596  0.0780
  162SOPE   H5S18143   3.793   0.937   9.682  0.4305 -2.4509  2.4982
  162SOPE   C2618144   3.912   0.974   9.503 -0.0931  0.0957  0.3644
  162SOPE   H6R18145   3.905   1.085   9.496  2.5339  0.2701 -0.9537
  162SOPE   H6S18146   4.016   0.956   9.469  0.2354  1.0929  0.7964
  162SOPE   C2718147   3.814   0.903   9.407  0.3281 -0.0849 -0.4827
  162SOPE   H7R18148   3.828   0.795   9.431  0.5875 -0.0642 -0.5447
  162SOPE   H7S18149   3.715   0.934   9.446  1.0414  1.1799  0.3851
  162SOPE   C2818150   3.833   0.915   9.258  0.8753  0.8094 -0.1970
  162SOPE   H8R18151   3.745   0.879   9.201  2.6286 -0.5649 -2.1721
  162SOPE   H8S18152   3.856   1.022   9.240  3.0510 -0.0210 -2.9528
  162SOPE   C2918153   3.955   0.845   9.215 -0.8300  0.5986  0.2000
  162SOPE   H9118154   4.051   0.854   9.268 -0.3235  0.5784 -0.6808
  162SOPE  C21018155   3.969   0.776   9.100  0.0741  0.2632  1.0775
  162SOPE  H10118156   4.070   0.740   9.076  0.1065 -1.3013  3.2026
  162SOPE  C21118157   3.869   0.759   8.993 -0.1292  0.2265  0.1941
  162SOPE  H11R18158   3.767   0.794   9.019 -0.4977  0.2020 -1.1397
  162SOPE  H11S18159   3.870   0.654   8.955  0.9824  0.3476 -0.1514
  162SOPE  C21218160   3.910   0.857   8.874  0.7265  0.6508 -0.4747
  162SOPE  H12R18161   3.899   0.962   8.910 -3.2833  0.8892 -1.8873
  162SOPE  H12S18162   3.838   0.842   8.791  0.3760  2.4667 -0.5366
  162SOPE  C21318163   4.049   0.844   8.808  0.1954  0.1934 -0.3936
  162SOPE  H13R18164   4.131   0.874   8.876 -0.8890  1.8504  0.2437
  162SOPE  H13S18165   4.070   0.918   8.727  0.0357  2.4727  1.5180
  162SOPE  C21418166   4.068   0.701   8.748 -0.3692  0.0243  0.1834
  162SOPE  H14R18167   4.030   0.625   8.820  0.3607  0.5072  1.0979
  162SOPE  H14S18168   4.176   0.679   8.736 -0.7845 -2.4112  0.3556
  162SOPE  C21518169   3.998   0.678   8.619 -0.6468  0.5838  0.4851
  162SOPE  H15R18170   4.029   0.743   8.535 -1.9455  1.5361  0.7241
  162SOPE  H15S18171   3.887   0.686   8.619 -0.8596 -1.5386 -0.8420
  162SOPE  C21618172   4.019   0.539   8.545  0.2027  0.0521  0.0793
  162SOPE  H16R18173   3.965   0.539   8.448  0.9107  1.4184 -0.3451
  162SOPE  H16S18174   3.976   0.456   8.604  2.7976 -2.0098 -0.7424
  162SOPE  C21718175   4.166   0.510   8.520  0.1018  0.8348  0.0196
  162SOPE  H17R18176   4.182   0.404   8.492  1.8720  0.7208  1.2754
  162SOPE  H17S18177   4.229   0.519   8.611  0.8341 -2.4384 -0.0573
  162SOPE  C21818178   4.222   0.593   8.399  0.3795 -0.8145  0.3494
  162SOPE  H18R18179   4.325   0.561   8.373 -0.0911 -2.0502 -0.0773
  162SOPE  H18S18180   4.213   0.702   8.422  2.2855 -0.7701  1.1160
  162SOPE  H18T18181   4.156   0.561   8.316  0.4138  1.0521 -0.4635
  162SOPE   C3318182   3.570   0.669   9.807  0.5263  0.0763  0.7542
  162SOPE   H3X18183   3.681   0.670   9.816  0.6413  0.0382 -0.5121
  162SOPE   H3Y18184   3.530   0.772   9.815  1.4102  0.5013 -0.1024
  162SOPE   C3418185   3.527   0.615   9.670 -0.4892 -0.1609 -0.5689
  162SOPE   H4X18186   3.416   0.618   9.670 -0.5511 -1.6752 -0.2575
  162SOPE   H4Y18187   3.560   0.510   9.682  0.0835  0.2518  1.8898
  162SOPE   C3518188   3.591   0.683   9.549  0.2627  0.1321 -1.0617
  162SOPE   H5X18189   3.698   0.688   9.575 -0.6637  0.6720  3.4187
  162SOPE   H5Y18190   3.562   0.790   9.546 -0.2165  0.2239  2.6830
  162SOPE   C3618191   3.569   0.605   9.414 -0.2111  0.0072  0.1213
  162SOPE   H6X18192   3.598   0.501   9.440  2.9995  0.4166 -1.2660
  162SOPE   H6Y18193   3.638   0.641   9.334  0.5383 -0.7281  0.4207
  162SOPE   C3718194   3.429   0.605   9.360  0.4017  0.0373  0.5473
  162SOPE   H7X18195   3.418   0.689   9.289 -0.6161 -0.1261  0.5066
  162SOPE   H7Y18196   3.363   0.614   9.449 -0.3333  0.6876 -0.0557
  162SOPE   C3818197   3.393   0.484   9.271  0.1594 -0.1663  0.3454
  162SOPE   H8X18198   3.284   0.492   9.251  0.2676  0.9796  0.1526
  162SOPE   H8Y18199   3.402   0.387   9.325  1.8468  1.1582  2.6467
  162SOPE   C3918200   3.458   0.483   9.130  0.0692  0.1209 -0.1267
  162SOPE   H9X18201   3.568   0.465   9.137  0.2987  0.9446 -1.2768
  162SOPE   H9Y18202   3.456   0.588   9.093 -0.5467 -0.0215 -0.5057
  162SOPE  C31018203   3.373   0.392   9.036 -0.6265 -0.0723  0.3987
  162SOPE  H10X18204   3.267   0.424   9.027 -0.8707 -0.6025  1.2482
  162SOPE  H10Y18205   3.392   0.296   9.089  2.0349  0.0638 -0.1339
  162SOPE  C31118206   3.441   0.375   8.895  0.4552  0.0583 -0.7637
  162SOPE  H11X18207   3.541   0.329   8.907 -0.7054 -2.8209 -1.3560
  162SOPE  H11Y18208   3.453   0.473   8.845 -1.6033  0.1080 -1.2651
  162SOPE  C31218209   3.362   0.289   8.796  0.1357  0.3171  0.2547
  162SOPE  H12X18210   3.254   0.316   8.802  0.3810  1.2821  0.5164
  162SOPE  H12Y18211   3.355   0.182   8.824  1.5532 -0.2789 -1.5197
  162SOPE  C31318212   3.402   0.303   8.646 -1.3595 -0.6573  0.3445
  162SOPE  H13X18213   3.377   0.404   8.607  0.7315 -0.5924 -0.9548
  162SOPE  H13Y18214   3.339   0.235   8.586 -1.9436  1.0885 -1.1234
  162SOPE  C31418215   3.555   0.289   8.622  0.4913 -0.4197  0.3844
  162SOPE  H14X18216   3.596   0.189   8.649  2.6733 -0.0639 -1.3475
  162SOPE  H14Y18217   3.610   0.369   8.676 -1.3201  0.7507  0.5929
  162SOPE  C31518218   3.592   0.313   8.473  0.5656 -0.1839  0.9473
  162SOPE  H15X18219   3.580   0.416   8.432  1.5973 -1.1605 -2.1303
  162SOPE  H15Y18220   3.534   0.240   8.412 -0.5607  0.1872  1.5440
  162SOPE  C31618221   3.740   0.291   8.451 -0.7536 -0.2477 -0.1614
  162SOPE  H16X18222   3.752   0.181   8.458 -1.3681 -0.4815 -2.2446
  162SOPE  H16Y18223   3.800   0.349   8.525 -0.2712  4.0684 -3.5258
  162SOPE  C31718224   3.790   0.339   8.313  0.2818  0.5424 -0.8152
  162SOPE  H17X18225   3.765   0.262   8.236 -0.3151  1.6283 -1.7384
  162SOPE  H17Y18226   3.901   0.334   8.324 -0.0450 -2.2636  3.2884
  162SOPE  C31818227   3.754   0.475   8.258  0.2125  0.1076 -0.2494
  162SOPE  H18X18228   3.645   0.483   8.235 -0.1943  1.4138  1.8559
  162SOPE  H18Y18229   3.805   0.495   8.162  1.0901 -1.4746 -0.1568
  162SOPE  H18Z18230   3.777   0.562   8.323 -2.1278  0.5059  0.1498
  163SOPE     N18231   3.880   3.120  10.874  0.0169 -0.4638  0.3720
  163SOPE   HN118232   3.852   3.049  10.945  0.2564  0.7457  1.7068
  163SOPE   HN218233   3.906   3.081  10.780  1.0101 -2.0565  1.2541
  163SOPE   HN318234   3.956   3.174  10.920  0.3461  0.7333 -1.4439
  163SOPE   C1218235   3.761   3.214  10.859 -1.0870 -0.1519 -0.1832
  163SOPE  H12A18236   3.735   3.248  10.962  0.3787 -2.4586  1.0409
  163SOPE  H12B18237   3.669   3.158  10.831 -1.2747 -1.2274  2.2669
  163SOPE   C1118238   3.792   3.315  10.750 -0.1609  0.0785 -0.1263
  163SOPE  H11A18239   3.701   3.378  10.747  0.7343  1.4270  0.0623
  163SOPE  H11B18240   3.807   3.269  10.650  1.0915 -1.1503  0.5902
  163SOPE     P18241   3.955   3.514  10.707 -0.0237 -0.1883 -0.2084
  163SOPE   O1318242   4.106   3.520  10.710 -0.2790  0.3832  0.2244
  163SOPE   O1418243   3.885   3.634  10.760 -0.4053 -0.6148  0.4669
  163SOPE   O1218244   3.910   3.387  10.782  0.1658  0.1053 -0.1881
  163SOPE   O1118245   3.910   3.495  10.555  0.4397 -0.5081 -0.0184
  163SOPE    C118246   3.966   3.402  10.469  0.0221 -0.2583  0.0763
  163SOPE    HA18247   3.886   3.376  10.395  1.1224 -0.0399 -1.2300
  163SOPE    HB18248   3.991   3.309  10.524  3.2411 -0.1336 -0.9843
  163SOPE    C218249   4.094   3.442  10.384 -0.1021  0.5967 -0.0838
  163SOPE    HS18250   4.181   3.436  10.453  0.6302 -2.9290 -1.1070
  163SOPE   O2118251   4.077   3.567  10.327 -0.0572  0.1296 -0.0947
  163SOPE   C2118252   4.176   3.623  10.265 -0.0796  0.1228  0.5632
  163SOPE   O2218253   4.282   3.570  10.230 -0.5673  0.4208 -0.4688
  163SOPE   C2218254   4.146   3.773  10.238  0.2872 -0.4481 -0.4731
  163SOPE   H2R18255   4.249   3.814  10.229 -0.6007  2.3369  1.0817
  163SOPE   H2S18256   4.111   3.815  10.334  0.8555 -0.5796 -0.2053
  163SOPE    C318257   4.122   3.319  10.293  0.3284 -0.3400  0.1723
  163SOPE    HX18258   4.112   3.233  10.363 -0.5356  0.2198  0.7493
  163SOPE    HY18259   4.229   3.327  10.265  0.1466  1.6336 -0.1320
  163SOPE   O3118260   4.032   3.316  10.180  0.0936 -0.2258  0.6376
  163SOPE   C3118261   4.102   3.280  10.065  0.2891 -0.1853  0.6097
  163SOPE   O3218262   4.215   3.242  10.055 -0.9127 -0.4486  0.1297
  163SOPE   C3218263   4.003   3.308   9.948 -0.8637 -0.0535  0.0733
  163SOPE   H2X18264   3.960   3.410   9.955 -0.9843 -0.1707  1.2575
  163SOPE   H2Y18265   3.917   3.239   9.955 -0.6513 -0.3438 -0.1168
  163SOPE   C2318266   4.070   3.801  10.109  0.7579  0.4329  0.1423
  163SOPE   H3R18267   4.094   3.726  10.031 -1.7357 -0.6363  0.2822
  163SOPE   H3S18268   4.098   3.901  10.071  0.3564  0.0928 -1.1056
  163SOPE   C2418269   3.916   3.818  10.126  0.0010  0.1636 -0.1333
  163SOPE   H4R18270   3.878   3.718  10.155  0.8739  0.3680  1.8623
  163SOPE   H4S18271   3.901   3.877  10.218 -0.1798  1.5848 -1.0500
  163SOPE   C2518272   3.847   3.871   9.997  0.0671 -0.0095  0.1598
  163SOPE   H5R18273   3.747   3.915  10.019  0.6503  2.4586 -1.6632
  163SOPE   H5S18274   3.909   3.949   9.948  0.9715 -1.0972 -0.4776
  163SOPE   C2618275   3.820   3.756   9.896 -0.6137 -0.6137 -0.1206
  163SOPE   H6R18276   3.911   3.691   9.898 -0.2786 -0.3742 -2.8245
  163SOPE   H6S18277   3.748   3.682   9.935  1.5622 -2.3606  0.8114
  163SOPE   C2718278   3.795   3.799   9.751 -0.1412  0.9381 -0.0593
  163SOPE   H7R18279   3.689   3.830   9.743  0.5211  2.9428 -1.8203
  163SOPE   H7S18280   3.866   3.881   9.728  0.9079 -0.2432 -1.2101
  163SOPE   C2818281   3.814   3.676   9.651  0.4045 -0.9889 -0.5094
  163SOPE   H8R18282   3.748   3.591   9.680 -3.0704  1.7338  0.3162
  163SOPE   H8S18283   3.756   3.698   9.559  3.2204 -3.2068 -2.9950
  163SOPE   C2918284   3.953   3.636   9.604  0.0009  0.7731  0.3053
  163SOPE   H9118285   4.018   3.610   9.689 -1.3775 -3.1055  0.3733
  163SOPE  C21018286   3.991   3.633   9.477 -0.2994 -1.6708  0.0055
  163SOPE  H10118287   4.081   3.581   9.441 -0.6590 -2.8197  0.7122
  163SOPE  C21118288   3.918   3.674   9.359 -0.2526 -0.2886  0.6894
  163SOPE  H11R18289   3.992   3.713   9.286 -2.0224  0.0308 -1.0101
  163SOPE  H11S18290   3.839   3.749   9.381  0.2589  0.8925 -1.2869
  163SOPE  C21218291   3.841   3.550   9.300 -0.3806  0.7247  0.6241
  163SOPE  H12R18292   3.752   3.530   9.365 -1.5920 -0.0234 -1.1840
  163SOPE  H12S18293   3.913   3.467   9.286 -1.2376  0.3072 -1.7353
  163SOPE  C21318294   3.794   3.582   9.160  0.3619 -0.5006  0.1717
  163SOPE  H13R18295   3.886   3.611   9.106  1.2382 -1.2896  1.1987
  163SOPE  H13S18296   3.736   3.676   9.169 -0.1056 -0.3978 -2.7395
  163SOPE  C21418297   3.720   3.480   9.082  0.1598 -1.0267  0.0491
  163SOPE  H14R18298   3.654   3.420   9.149 -0.7712  0.1522  0.2219
  163SOPE  H14S18299   3.791   3.413   9.030 -0.4900 -0.5274 -1.5260
  163SOPE  C21518300   3.639   3.550   8.970 -0.1228 -0.2771  0.1380
  163SOPE  H15R18301   3.703   3.607   8.899  1.5238 -0.6338  1.2761
  163SOPE  H15S18302   3.588   3.625   9.034 -0.4601  1.3147 -1.8737
  163SOPE  C21618303   3.539   3.460   8.892 -0.5016  0.1656  0.2642
  163SOPE  H16R18304   3.465   3.408   8.956 -0.6567  0.3219  0.2108
  163SOPE  H16S18305   3.593   3.378   8.839 -0.8035  1.1701 -1.7157
  163SOPE  C21718306   3.454   3.547   8.793  0.3129 -0.2248  0.3976
  163SOPE  H17R18307   3.516   3.607   8.724  2.1440 -0.9456  1.3454
  163SOPE  H17S18308   3.392   3.624   8.844  0.2012  0.2255 -0.4075
  163SOPE  C21818309   3.360   3.462   8.712  0.1588  0.5173  0.2599
  163SOPE  H18R18310   3.306   3.384   8.771  1.8240 -0.3895  0.6442
  163SOPE  H18S18311   3.411   3.408   8.629 -1.9935  2.1947 -2.3676
  163SOPE  H18T18312   3.275   3.517   8.666 -0.6393 -1.8870 -1.3231
  163SOPE   C3318313   4.065   3.284   9.811  0.3626 -0.3242 -0.6251
  163SOPE   H3X18314   4.121   3.190   9.794 -1.2740 -1.3155 -0.7057
  163SOPE   H3Y18315   4.137   3.366   9.789  0.0500  0.5779  1.5237
  163SOPE   C3418316   3.966   3.283   9.696 -0.1503 -0.0252 -1.2150
  163SOPE   H4X18317   3.927   3.382   9.663  1.0251  0.7929 -0.2135
  163SOPE   H4Y18318   3.885   3.215   9.731  0.7908  0.6064  2.6745
  163SOPE   C3518319   4.024   3.213   9.564 -0.2904 -0.3562 -0.5850
  163SOPE   H5X18320   4.061   3.115   9.601 -0.0696 -0.9087 -2.2167
  163SOPE   H5Y18321   4.109   3.269   9.521 -0.7185 -0.7227 -1.9481
  163SOPE   C3618322   3.925   3.188   9.446 -0.5632 -0.0995 -0.0208
  163SOPE   H6X18323   3.912   3.292   9.408  2.4076 -0.1165 -1.3883
  163SOPE   H6Y18324   3.825   3.151   9.478 -0.9920  0.1854 -1.0028
  163SOPE   C3718325   3.990   3.114   9.332 -0.6450  0.1888 -0.0055
  163SOPE   H7X18326   4.014   3.008   9.353  0.7389  0.0106 -2.1832
  163SOPE   H7Y18327   4.083   3.165   9.299  0.8843 -1.3287  1.7750
  163SOPE   C3818328   3.904   3.120   9.210  0.6478  0.5032 -0.2048
  163SOPE   H8X18329   3.878   3.225   9.187 -0.2261 -0.1052 -2.1855
  163SOPE   H8Y18330   3.801   3.078   9.220 -0.0709  2.2640  0.1180
  163SOPE   C3918331   3.967   3.044   9.095  0.7446  0.7828  0.3254
  163SOPE   H9X18332   4.012   2.944   9.112  1.4977  0.4851 -2.7198
  163SOPE   H9Y18333   4.051   3.109   9.060 -0.6258  1.0510 -2.8463
  163SOPE  C31018334   3.878   3.025   8.970 -0.0137 -0.1788  0.4058
  163SOPE  H10X18335   3.828   3.121   8.943  1.2879 -0.0374 -1.7482
  163SOPE  H10Y18336   3.793   2.956   8.989 -0.1310 -0.1131  0.1303
  163SOPE  C31118337   3.960   2.970   8.848  0.3220 -0.7202  0.6894
  163SOPE  H11X18338   3.996   2.867   8.870  1.4320 -0.8555 -1.4682
  163SOPE  H11Y18339   4.053   3.030   8.836  1.2987 -2.4031 -0.5567
  163SOPE  C31218340   3.870   2.976   8.726  0.1675  0.3958  0.0130
  163SOPE  H12X18341   3.817   3.074   8.718 -0.2077  0.0682 -2.2193
  163SOPE  H12Y18342   3.803   2.888   8.722 -0.9456  1.1386  1.3888
  163SOPE  C31318343   3.944   2.958   8.586 -0.0787 -0.4128 -0.0503
  163SOPE  H13X18344   3.985   2.856   8.590 -1.1894 -0.9338 -1.0783
  163SOPE  H13Y18345   4.028   3.031   8.587 -1.1502  0.9317 -1.8001
  163SOPE  C31418346   3.856   2.978   8.458 -0.5805  0.2796 -0.4323
  163SOPE  H14X18347   3.838   3.087   8.452 -0.9740  0.2544  0.1883
  163SOPE  H14Y18348   3.762   2.919   8.467 -0.1764 -0.3377 -0.1780
  163SOPE  C31518349   3.938   2.930   8.334  0.2385 -0.8399 -0.8411
  163SOPE  H15X18350   3.945   2.820   8.346  1.9288 -0.4521  4.2032
  163SOPE  H15Y18351   4.036   2.983   8.338 -0.2672  0.4494 -3.4683
  163SOPE  C31618352   3.872   2.979   8.204  0.3387  0.5452 -0.5014
  163SOPE  H16X18353   3.770   2.936   8.197 -0.0398  1.1419  1.0540
  163SOPE  H16Y18354   3.931   2.934   8.120  0.2443 -1.1504  0.2942
  163SOPE  C31718355   3.859   3.133   8.187 -0.6897  0.2079 -0.1489
  163SOPE  H17X18356   3.946   3.182   8.235  1.7627 -2.7204 -1.2071
  163SOPE  H17Y18357   3.766   3.150   8.244 -0.9249 -0.3552 -0.3553
  163SOPE  C31818358   3.825   3.178   8.046 -0.6154 -0.2308 -0.3961
  163SOPE  H18X18359   3.810   3.288   8.039  2.4184  0.1811 -3.0616
  163SOPE  H18Y18360   3.733   3.122   8.019  0.4726 -1.7912 -1.0311
  163SOPE  H18Z18361   3.911   3.148   7.982 -0.0510 -0.4712  0.4468
  164SOPE     N18362   3.586   2.380  10.763  0.4656 -0.4028 -0.0680
  164SOPE   HN118363   3.647   2.392  10.847 -2.1211  0.4812  1.8076
  164SOPE   HN218364   3.528   2.294  10.760 -0.1397 -0.0049  0.1468
  164SOPE   HN318365   3.651   2.360  10.684  1.0934 -2.1935  0.8370
  164SOPE   C1218366   3.496   2.501  10.747  0.0825 -0.5968 -0.0382
  164SOPE  H12A18367   3.389   2.473  10.754 -0.4309  1.3664  0.7610
  164SOPE  H12B18368   3.513   2.539  10.644 -0.6651 -0.0062  0.0435
  164SOPE   C1118369   3.535   2.618  10.845  1.0025  0.3872  0.5694
  164SOPE  H11A18370   3.502   2.589  10.947  0.8656  1.1842  0.7575
  164SOPE  H11B18371   3.470   2.705  10.823  0.3478 -0.7830 -2.5489
  164SOPE     P18372   3.733   2.716  10.709  0.4436  0.1587 -0.2017
  164SOPE   O1318373   3.870   2.778  10.732  0.5744 -0.5329 -0.2302
  164SOPE   O1418374   3.624   2.803  10.656 -0.3996 -0.2588 -0.4778
  164SOPE   O1218375   3.680   2.653  10.839 -0.4450  0.1606 -0.4731
  164SOPE   O1118376   3.752   2.595  10.604 -0.0991 -0.3902 -0.0944
  164SOPE    C118377   3.794   2.647  10.473 -0.5819  0.5735 -0.0622
  164SOPE    HA18378   3.888   2.598  10.440 -1.1712 -0.2493 -0.5709
  164SOPE    HB18379   3.818   2.755  10.477  2.2199 -0.0272  2.0523
  164SOPE    C218380   3.690   2.609  10.363  0.1637  0.6507 -0.1398
  164SOPE    HS18381   3.732   2.630  10.263 -3.4961  2.6221 -1.4383
  164SOPE   O2118382   3.565   2.667  10.387  0.2208 -0.5342  0.0192
  164SOPE   C2118383   3.555   2.785  10.344  0.2458 -0.4579  0.0217
  164SOPE   O2218384   3.639   2.857  10.298 -0.0176  0.4627  0.5168
  164SOPE   C2218385   3.410   2.828  10.361 -0.4801  0.6352  0.2511
  164SOPE   H2R18386   3.416   2.939  10.366  0.6298  0.8467 -3.1888
  164SOPE   H2S18387   3.367   2.796  10.458  0.7430 -0.8286  0.3403
  164SOPE    C318388   3.667   2.453  10.344  0.4434  0.2490 -0.5477
  164SOPE    HX18389   3.588   2.427  10.418  1.3792  2.1620  1.2548
  164SOPE    HY18390   3.760   2.401  10.375 -0.4693  0.3503  2.8369
  164SOPE   O3118391   3.633   2.420  10.205  0.1113 -0.1998  0.5482
  164SOPE   C3118392   3.502   2.435  10.171 -0.0018  0.7661  0.0039
  164SOPE   O3218393   3.407   2.459  10.243 -0.0485 -0.0922  0.5087
  164SOPE   C3218394   3.498   2.405  10.021 -0.2123  0.4449 -0.0328
  164SOPE   H2X18395   3.537   2.303  10.000 -2.3766 -0.1377 -1.5951
  164SOPE   H2Y18396   3.576   2.466   9.970  0.8542 -0.2787  0.7001
  164SOPE   C2318397   3.323   2.788  10.250  0.2139  0.1748  0.4579
  164SOPE   H3R18398   3.285   2.684  10.252 -1.4976  0.7493  0.0268
  164SOPE   H3S18399   3.378   2.785  10.154 -1.4592  2.2983 -0.6681
  164SOPE   C2418400   3.205   2.891  10.230  0.2206 -0.3336  0.2217
  164SOPE   H4R18401   3.151   2.882  10.326  0.9845  1.6456  0.8774
  164SOPE   H4S18402   3.231   2.999  10.227 -1.5035  0.0906 -1.4313
  164SOPE   C2518403   3.112   2.859  10.108  0.0440  0.0051 -0.2385
  164SOPE   H5R18404   3.108   2.748  10.110  1.9442 -0.0959  0.9199
  164SOPE   H5S18405   3.010   2.900  10.119 -1.0898 -2.3122 -1.4694
  164SOPE   C2618406   3.168   2.898   9.968  0.7133 -0.3350  0.5162
  164SOPE   H6R18407   3.278   2.913   9.971  0.6733 -0.2587  2.2624
  164SOPE   H6S18408   3.163   2.803   9.910  0.7514 -0.1301  0.1729
  164SOPE   C2718409   3.090   3.011   9.901  0.4127  0.4287  0.8564
  164SOPE   H7R18410   2.985   2.985   9.925  0.5219 -0.6032  0.2908
  164SOPE   H7S18411   3.098   3.113   9.942  2.5341  0.3935  0.6477
  164SOPE   C2818412   3.092   3.010   9.746  0.1168 -0.0216 -0.1803
  164SOPE   H8R18413   3.033   3.097   9.710  0.4125  0.5286  0.6309
  164SOPE   H8S18414   3.200   3.024   9.722 -0.5380  1.2438 -2.7312
  164SOPE   C2918415   3.027   2.883   9.702 -0.0933  0.2008  0.0707
  164SOPE   H9118416   2.927   2.861   9.741  0.7311  0.4864  2.5080
  164SOPE  C21018417   3.079   2.794   9.613  0.6548  0.1967  0.0556
  164SOPE  H10118418   3.036   2.693   9.616 -1.0776  0.9068  0.3423
  164SOPE  C21118419   3.207   2.801   9.554 -0.9024  0.1675  0.1571
  164SOPE  H11R18420   3.257   2.702   9.557  1.8184  1.4528  0.7027
  164SOPE  H11S18421   3.281   2.861   9.611 -0.8280  0.3494 -0.1286
  164SOPE  C21218422   3.219   2.850   9.406  0.0370  0.3267 -0.9306
  164SOPE  H12R18423   3.323   2.857   9.368 -0.6703 -1.4927 -3.3872
  164SOPE  H12S18424   3.183   2.953   9.385 -0.3296  0.6744  1.1644
  164SOPE  C21318425   3.157   2.757   9.303 -0.1609  0.1397  0.0797
  164SOPE  H13R18426   3.056   2.723   9.333 -0.0636 -2.0775 -1.8268
  164SOPE  H13S18427   3.216   2.664   9.286  1.0375  1.1022 -1.2506
  164SOPE  C21418428   3.142   2.827   9.172 -0.1460  0.2717 -0.1825
  164SOPE  H14R18429   3.233   2.883   9.142  0.0227  0.6329  0.9292
  164SOPE  H14S18430   3.059   2.900   9.180 -1.7652 -1.4036 -1.2019
  164SOPE  C21518431   3.117   2.734   9.055 -0.4646  0.3169 -0.0673
  164SOPE  H15R18432   3.022   2.683   9.077 -0.4089  0.4122  0.4190
  164SOPE  H15S18433   3.200   2.661   9.063 -0.2976  0.6667  1.9330
  164SOPE  C21618434   3.104   2.803   8.914 -0.2946 -1.2374 -0.5962
  164SOPE  H16R18435   3.187   2.872   8.887  1.4550 -1.7774  2.8782
  164SOPE  H16S18436   3.012   2.864   8.927 -1.7965 -3.6552  1.0373
  164SOPE  C21718437   3.070   2.709   8.802  0.0831  0.3187 -0.1184
  164SOPE  H17R18438   2.990   2.640   8.837  0.2202  0.2951  0.1505
  164SOPE  H17S18439   3.160   2.645   8.788  1.1284  0.8177  3.3785
  164SOPE  C21818440   3.029   2.760   8.666  0.1402 -0.3808  0.4641
  164SOPE  H18R18441   3.110   2.818   8.615 -1.8962  1.6727 -0.6279
  164SOPE  H18S18442   2.938   2.823   8.679  0.2069 -0.6864  2.8123
  164SOPE  H18T18443   3.007   2.680   8.592 -0.6241 -0.9369  1.2802
  164SOPE   C3318444   3.366   2.438   9.947 -0.3186  0.5568 -0.8698
  164SOPE   H3X18445   3.330   2.539   9.975 -3.1781 -0.8014  0.7191
  164SOPE   H3Y18446   3.291   2.367   9.989 -0.8072  0.8865 -1.1752
  164SOPE   C3418447   3.374   2.417   9.794 -0.3466 -0.7730  0.4816
  164SOPE   H4X18448   3.436   2.499   9.751  0.7238 -0.5586  2.3540
  164SOPE   H4Y18449   3.267   2.421   9.765 -0.1144 -1.6354 -0.5902
  164SOPE   C3518450   3.423   2.284   9.749 -0.5132  0.1290  0.1414
  164SOPE   H5X18451   3.401   2.204   9.822 -2.1384  0.5403  0.1329
  164SOPE   H5Y18452   3.533   2.300   9.741 -0.7781  2.0360 -0.1145
  164SOPE   C3618453   3.374   2.247   9.608 -0.0939 -0.3790  0.3119
  164SOPE   H6X18454   3.444   2.170   9.568  0.1718 -0.5925  1.1627
  164SOPE   H6Y18455   3.388   2.339   9.548  1.0505  0.9297  2.4608
  164SOPE   C3718456   3.229   2.192   9.601 -0.1892 -0.4200 -0.6402
  164SOPE   H7X18457   3.154   2.269   9.627 -1.0478 -1.3185 -0.3971
  164SOPE   H7Y18458   3.227   2.111   9.677  0.1836 -0.3380 -0.5398
  164SOPE   C3818459   3.187   2.129   9.467 -0.6257 -0.7132  0.5914
  164SOPE   H8X18460   3.089   2.078   9.479 -0.9222  0.1363  1.9386
  164SOPE   H8Y18461   3.253   2.041   9.452 -0.1839 -0.0549 -1.7222
  164SOPE   C3918462   3.200   2.234   9.357  0.1379  0.6225 -0.3525
  164SOPE   H9X18463   3.298   2.285   9.360  0.7642 -0.5829  0.3885
  164SOPE   H9Y18464   3.118   2.308   9.371  1.3914  1.7800  1.1849
  164SOPE  C31018465   3.195   2.180   9.215 -0.1476 -0.3106  0.5259
  164SOPE  H10X18466   3.108   2.113   9.201 -0.8809  0.9121 -0.9964
  164SOPE  H10Y18467   3.288   2.123   9.191  1.0678  0.6394  2.6389
  164SOPE  C31118468   3.194   2.289   9.110  0.2152 -0.4916  0.1054
  164SOPE  H11X18469   3.280   2.357   9.126  0.1375 -0.4721  0.4396
  164SOPE  H11Y18470   3.098   2.343   9.118 -1.0141 -2.6130  0.7008
  164SOPE  C31218471   3.200   2.229   8.965  0.1578  0.0592  0.1512
  164SOPE  H12X18472   3.115   2.158   8.949 -1.1278  2.0914 -2.7972
  164SOPE  H12Y18473   3.293   2.168   8.960  0.0566 -0.0669 -0.2032
  164SOPE  C31318474   3.190   2.332   8.859  0.9303  0.5986  0.2617
  164SOPE  H13X18475   3.286   2.388   8.858  0.7402  0.9182 -0.5223
  164SOPE  H13Y18476   3.122   2.404   8.909 -0.8446 -1.4205  0.9015
  164SOPE  C31418477   3.147   2.286   8.720 -0.6812  0.5931  0.2730
  164SOPE  H14X18478   3.058   2.220   8.713  1.8901 -3.2455  0.9259
  164SOPE  H14Y18479   3.234   2.232   8.677 -0.8046  0.1775  0.5416
  164SOPE  C31518480   3.118   2.399   8.629  0.5650 -0.0729 -0.2402
  164SOPE  H15X18481   3.185   2.488   8.629 -1.6373  1.7146  0.6164
  164SOPE  H15Y18482   3.023   2.443   8.666  0.7986  0.3707 -0.1478
  164SOPE  C31618483   3.072   2.350   8.487  0.0443 -0.3333  0.1126
  164SOPE  H16X18484   3.025   2.433   8.429  0.6277 -0.9343 -1.2807
  164SOPE  H16Y18485   2.991   2.276   8.507  0.4089 -1.0810 -1.0774
  164SOPE  C31718486   3.182   2.294   8.400 -0.1053  0.1079  0.2628
  164SOPE  H17X18487   3.218   2.194   8.432 -0.6933 -0.8342 -1.8527
  164SOPE  H17Y18488   3.278   2.350   8.402  0.0365 -0.1271  0.1724
  164SOPE  C31818489   3.141   2.270   8.252  0.1613 -0.0686 -0.6345
  164SOPE  H18X18490   3.068   2.185   8.245 -2.2699  1.6949  1.4496
  164SOPE  H18Y18491   3.229   2.231   8.195  0.1325 -1.0974 -0.0093
  164SOPE  H18Z18492   3.084   2.358   8.214  1.8364  0.4775 -1.9839
  165SOPE     N18493   0.302   2.604  10.531  0.0528 -0.6607  0.0379
  165SOPE   HN118494   0.286   2.707  10.527 -0.0093 -0.5805  1.8720
  165SOPE   HN218495   0.393   2.590  10.579 -0.3872  2.0184  1.8655
  165SOPE   HN318496   0.322   2.567  10.435 -0.8170 -1.1311  0.0322
  165SOPE   C1218497   0.197   2.525  10.595 -0.0548  0.4898  0.0145
  165SOPE  H12A18498   0.121   2.499  10.519 -0.9827  0.2847  1.0005
  165SOPE  H12B18499   0.156   2.585  10.679  4.8944  0.1834  3.0483
  165SOPE   C1118500   0.254   2.396  10.651  0.9066 -0.4320  0.0304
  165SOPE  H11A18501   0.270   2.327  10.565 -3.7518 -0.1579 -1.3346
  165SOPE  H11B18502   0.182   2.356  10.726  0.1546  1.2097  0.2098
  165SOPE     P18503   0.443   2.321  10.813 -0.2973 -0.1520 -0.0831
  165SOPE   O1318504   0.368   2.296  10.940  0.1795  0.0013  0.2850
  165SOPE   O1418505   0.588   2.354  10.827  0.3899 -0.5221 -0.0532
  165SOPE   O1218506   0.378   2.429  10.722  0.1033  0.1333 -0.1676
  165SOPE   O1118507   0.429   2.185  10.726 -0.1334  0.6169  0.1520
  165SOPE    C118508   0.494   2.066  10.771  0.2299 -0.4206 -0.1193
  165SOPE    HA18509   0.426   1.988  10.812  3.7495 -3.1903  0.8815
  165SOPE    HB18510   0.561   2.081  10.858 -0.3560 -0.4220  0.3428
  165SOPE    C218511   0.570   2.000  10.658  0.6122 -0.5854  0.0638
  165SOPE    HS18512   0.621   1.911  10.698  0.3481 -0.4933  0.6206
  165SOPE   O2118513   0.654   2.096  10.602  0.1914  0.3024 -0.0737
  165SOPE   C2118514   0.764   2.116  10.666 -0.1756  0.5027 -0.5329
  165SOPE   O2218515   0.791   2.066  10.773  0.4088 -0.0925 -0.1953
  165SOPE   C2218516   0.862   2.187  10.570 -0.4033 -0.1674 -0.2612
  165SOPE   H2R18517   0.950   2.209  10.634 -0.8294  0.0205  0.2640
  165SOPE   H2S18518   0.812   2.280  10.534  0.0244  0.1739  0.0041
  165SOPE    C318519   0.460   1.953  10.557 -0.3975  0.6198  0.4110
  165SOPE    HX18520   0.393   2.038  10.531 -1.9818 -0.5884  0.4235
  165SOPE    HY18521   0.400   1.882  10.617  1.1639  0.8458  2.3421
  165SOPE   O3118522   0.521   1.884  10.442  0.3578 -0.4490  0.1714
  165SOPE   C3118523   0.528   1.951  10.327  0.0809 -0.2378 -0.4222
  165SOPE   O3218524   0.493   2.068  10.308 -0.3602  0.6346  0.1005
  165SOPE   C3218525   0.577   1.856  10.221 -0.0259  0.9458  0.4790
  165SOPE   H2X18526   0.492   1.790  10.194 -0.4277  0.1519  3.3812
  165SOPE   H2Y18527   0.651   1.786  10.264  0.4580  0.5544 -0.9170
  165SOPE   C2318528   0.910   2.104  10.446  0.3748  0.5395 -0.0706
  165SOPE   H3R18529   0.817   2.080  10.389  0.2850 -0.5603  0.5012
  165SOPE   H3S18530   0.952   2.004  10.468  1.2541  0.8290 -0.3958
  165SOPE   C2418531   1.011   2.182  10.362 -0.1199  0.3515  0.4966
  165SOPE   H4R18532   0.955   2.265  10.315 -1.4718  0.1004  1.5980
  165SOPE   H4S18533   1.096   2.214  10.426 -0.3799  0.4454  0.7997
  165SOPE   C2518534   1.068   2.094  10.252 -0.3781 -0.0064 -0.6175
  165SOPE   H5R18535   1.144   2.031  10.303 -0.5077 -0.3142 -0.8018
  165SOPE   H5S18536   0.986   2.040  10.200 -1.2997  0.9727 -0.2169
  165SOPE   C2618537   1.137   2.188  10.143 -0.1934 -0.4258  0.5478
  165SOPE   H6R18538   1.066   2.271  10.121 -2.0633 -1.3551  2.5996
  165SOPE   H6S18539   1.233   2.222  10.187 -0.0443 -1.3044  0.9209
  165SOPE   C2718540   1.154   2.117  10.008  0.0527  0.5515 -0.5025
  165SOPE   H7R18541   1.247   2.056  10.009  0.5660  1.0724 -3.6730
  165SOPE   H7S18542   1.062   2.054  10.000  0.4716 -0.1753  0.3043
  165SOPE   C2818543   1.157   2.196   9.874 -0.6655 -0.2231 -0.0508
  165SOPE   H8R18544   1.162   2.124   9.790 -0.7928 -0.3916  0.0843
  165SOPE   H8S18545   1.056   2.235   9.851 -2.0523 -3.7862 -0.5945
  165SOPE   C2918546   1.274   2.294   9.874 -0.0513  0.2880  0.8092
  165SOPE   H9118547   1.276   2.341   9.973 -0.7752 -1.6832  1.7963
  165SOPE  C21018548   1.367   2.316   9.781 -0.3803  0.2648  0.0352
  165SOPE  H10118549   1.446   2.388   9.808  0.0854 -0.7846  1.5883
  165SOPE  C21118550   1.371   2.257   9.640  0.6717  0.0243  0.3013
  165SOPE  H11R18551   1.337   2.151   9.645 -0.7983  0.4479 -0.2365
  165SOPE  H11S18552   1.476   2.240   9.606  0.2962  1.1689 -1.5739
  165SOPE  C21218553   1.281   2.332   9.540 -0.2098 -0.3841 -0.3644
  165SOPE  H12R18554   1.316   2.437   9.534 -0.5672 -0.2060  0.5346
  165SOPE  H12S18555   1.172   2.325   9.565 -0.4210 -1.8862 -1.5161
  165SOPE  C21318556   1.285   2.268   9.400 -0.7048  0.2994 -0.5233
  165SOPE  H13R18557   1.211   2.326   9.340 -1.6929 -1.3424 -0.9619
  165SOPE  H13S18558   1.239   2.167   9.395 -0.6012  0.3062 -2.2201
  165SOPE  C21418559   1.417   2.287   9.332  0.3951  0.5232  0.0669
  165SOPE  H14R18560   1.490   2.223   9.385  1.1833  1.9099  0.7111
  165SOPE  H14S18561   1.457   2.390   9.344 -0.0017  0.6718  0.1107
  165SOPE  C21518562   1.430   2.242   9.184 -0.0285 -0.2135  0.2935
  165SOPE  H15R18563   1.376   2.145   9.176 -2.5091  1.1814 -1.1207
  165SOPE  H15S18564   1.540   2.248   9.166 -0.3591 -0.5765 -2.3414
  165SOPE  C21618565   1.370   2.337   9.087  0.8705  0.0870  0.2086
  165SOPE  H16R18566   1.423   2.435   9.090  0.0137  0.6204 -1.1873
  165SOPE  H16S18567   1.267   2.359   9.123  0.4313 -0.5149 -0.6452
  165SOPE  C21718568   1.356   2.276   8.945  0.6993 -0.1970  0.1749
  165SOPE  H17R18569   1.286   2.193   8.969 -1.1862  1.4757  0.7419
  165SOPE  H17S18570   1.453   2.232   8.915 -0.4004 -0.6467 -3.1224
  165SOPE  C21818571   1.308   2.365   8.828 -0.0432  0.2503 -0.5136
  165SOPE  H18R18572   1.217   2.422   8.858  0.0596 -0.7818  2.0504
  165SOPE  H18S18573   1.290   2.295   8.744  1.4731 -0.4064 -0.3145
  165SOPE  H18T18574   1.384   2.439   8.797 -0.3325  0.8164  0.1083
  165SOPE   C3318575   0.645   1.918  10.101 -0.4905  0.6515  0.2765
  165SOPE   H3X18576   0.734   1.973  10.138 -0.9003  0.0257  2.2960
  165SOPE   H3Y18577   0.572   1.981  10.044 -0.0154 -1.1466 -2.5062
  165SOPE   C3418578   0.691   1.822   9.979 -0.3300 -0.0977 -0.3459
  165SOPE   H4X18579   0.605   1.755   9.963 -0.5169  0.5418 -2.2354
  165SOPE   H4Y18580   0.775   1.759  10.015 -0.5860  0.0712  0.5687
  165SOPE   C3518581   0.712   1.899   9.843  0.3668 -0.3027  0.8109
  165SOPE   H5X18582   0.808   1.954   9.852  0.9072 -1.1125  0.1952
  165SOPE   H5Y18583   0.625   1.968   9.843 -0.6790 -1.5237 -0.8201
  165SOPE   C3618584   0.719   1.809   9.720 -0.3547  0.1636 -0.1374
  165SOPE   H6X18585   0.623   1.753   9.712 -0.1341 -0.4828  1.4546
  165SOPE   H6Y18586   0.798   1.731   9.715 -0.1156  0.4875 -2.0799
  165SOPE   C3718587   0.742   1.878   9.586  0.1572  0.0673  0.4621
  165SOPE   H7X18588   0.843   1.922   9.595  0.5439 -0.9830  1.5408
  165SOPE   H7Y18589   0.659   1.950   9.566  0.2040 -0.3960 -1.5351
  165SOPE   C3818590   0.742   1.787   9.465 -0.0474 -0.2169  0.8695
  165SOPE   H8X18591   0.648   1.729   9.475 -0.0185 -0.4641 -0.2021
  165SOPE   H8Y18592   0.831   1.722   9.469  0.1280 -0.0105  0.3718
  165SOPE   C3918593   0.757   1.860   9.326  0.9197  0.2958  0.2563
  165SOPE   H9X18594   0.852   1.917   9.329  1.1448 -0.0390  3.3797
  165SOPE   H9Y18595   0.667   1.925   9.315 -0.4094 -1.6368 -0.8476
  165SOPE  C31018596   0.764   1.757   9.216  0.1187 -0.0614 -0.0726
  165SOPE  H10X18597   0.682   1.683   9.218  0.0758 -0.1331 -2.1158
  165SOPE  H10Y18598   0.856   1.694   9.218  0.5367  0.5502  1.2557
  165SOPE  C31118599   0.749   1.827   9.079  0.2957  0.4114 -0.0129
  165SOPE  H11X18600   0.835   1.896   9.071  1.2636 -0.9087 -2.0516
  165SOPE  H11Y18601   0.654   1.883   9.089  0.8495  1.3243  0.1947
  165SOPE  C31218602   0.744   1.729   8.958  0.0352 -0.4644  0.7577
  165SOPE  H12X18603   0.655   1.663   8.969  0.9342 -1.5798  1.6375
  165SOPE  H12Y18604   0.830   1.660   8.971  0.1218 -0.4453  0.2694
  165SOPE  C31318605   0.762   1.813   8.828  0.4353 -0.3212 -0.1115
  165SOPE  H13X18606   0.852   1.878   8.835 -0.1810  0.6608 -0.9599
  165SOPE  H13Y18607   0.682   1.890   8.823  0.6929 -0.0041  0.6348
  165SOPE  C31418608   0.754   1.736   8.695  0.0455  0.2405 -0.0972
  165SOPE  H14X18609   0.747   1.813   8.616 -1.9954  0.6281  0.4219
  165SOPE  H14Y18610   0.662   1.674   8.698  0.2412 -0.1026 -0.9036
  165SOPE  C31518611   0.879   1.647   8.678 -0.3894 -0.2453 -0.1235
  165SOPE  H15X18612   0.864   1.564   8.750 -0.4128  1.0380  1.3893
  165SOPE  H15Y18613   0.971   1.704   8.704 -0.2127 -0.3856 -0.4348
  165SOPE  C31618614   0.882   1.571   8.541  0.1839 -0.0096  0.2525
  165SOPE  H16X18615   0.783   1.527   8.515  0.5646  0.2800 -1.9168
  165SOPE  H16Y18616   0.954   1.487   8.547 -0.6741 -0.8264 -0.4492
  165SOPE  C31718617   0.927   1.659   8.426  0.1859  0.1446  0.0571
  165SOPE  H17X18618   1.034   1.682   8.449  0.7615 -3.0482  1.0090
  165SOPE  H17Y18619   0.864   1.750   8.427  0.5532  0.4144 -0.8029
  165SOPE  C31818620   0.919   1.598   8.290  0.4103  0.7001  0.2150
  165SOPE  H18X18621   0.996   1.519   8.275  1.1757  1.0609  2.0783
  165SOPE  H18Y18622   0.935   1.680   8.217  1.0805 -0.5533 -1.1031
  165SOPE  H18Z18623   0.819   1.557   8.264  0.3696  0.2806  1.0100
  166SOPE     N18624   4.520   3.568  10.599  0.1023  0.2818 -0.0494
  166SOPE   HN118625   4.440   3.631  10.581  0.2454  0.2892 -0.6908
  166SOPE   HN218626   4.485   3.491  10.660 -1.7811  0.9971 -0.1601
  166SOPE   HN318627   4.596   3.613  10.654 -0.1816  2.4778 -1.3526
  166SOPE   C1218628   4.570   3.525  10.463  0.1333  0.4163 -0.0814
  166SOPE  H12A18629   4.680   3.515  10.479  0.1120  0.6663  0.2334
  166SOPE  H12B18630   4.545   3.603  10.388  0.5741  0.4847 -0.1605
  166SOPE   C1118631   4.512   3.382  10.439  0.3430  0.9199 -0.2612
  166SOPE  H11A18632   4.527   3.356  10.332  0.2985  1.5695 -0.4302
  166SOPE  H11B18633   4.401   3.386  10.447  0.3467  1.0150 -0.2514
  166SOPE     P18634   4.531   3.138  10.542 -0.0291  0.3235  0.0876
  166SOPE   O1318635   4.391   3.124  10.571  0.1138  0.0603 -0.1211
  166SOPE   O1418636   4.628   3.075  10.629 -0.4580  0.6470 -0.7394
  166SOPE   O1218637   4.569   3.290  10.531  0.0610 -0.4307 -0.0685
  166SOPE   O1118638   4.559   3.089  10.394 -0.3373 -0.3448 -0.2611
  166SOPE    C118639   4.450   3.084  10.296 -0.0230 -0.1238 -0.1349
  166SOPE    HA18640   4.457   3.179  10.239  1.1218  0.2731  0.6354
  166SOPE    HB18641   4.349   3.070  10.341  0.4779 -0.9863  0.7615
  166SOPE    C218642   4.467   2.967  10.185  0.9266 -0.8707 -0.1807
  166SOPE    HS18643   4.416   2.879  10.230  1.1694 -1.3154 -0.7514
  166SOPE   O2118644   4.603   2.933  10.163  0.1750 -0.2494  0.3130
  166SOPE   C2118645   4.629   2.804  10.139 -0.0861  0.2812  0.1685
  166SOPE   O2218646   4.547   2.714  10.159  0.0985 -0.4552  0.2322
  166SOPE   C2218647   4.771   2.791  10.100  0.0784 -0.3558 -0.2616
  166SOPE   H2R18648   4.824   2.757  10.192  1.6040  1.1864 -0.5101
  166SOPE   H2S18649   4.820   2.886  10.069  0.3264 -1.0579 -2.1312
  166SOPE    C318650   4.387   3.007  10.058 -0.4486  0.0568 -0.0513
  166SOPE    HX18651   4.413   3.109  10.022 -3.7391  0.7400 -0.8844
  166SOPE    HY18652   4.285   3.013  10.102 -0.4098  0.4005 -0.0102
  166SOPE   O3118653   4.407   2.914   9.949  0.2261 -0.2917  0.0651
  166SOPE   C3118654   4.326   2.797   9.948 -0.1636 -0.1908 -0.0049
  166SOPE   O3218655   4.240   2.777  10.031 -0.5431 -0.4871 -0.6471
  166SOPE   C3218656   4.394   2.701   9.861 -0.2530  0.6612  1.0572
  166SOPE   H2X18657   4.461   2.636   9.921 -0.2623 -0.6913 -0.3318
  166SOPE   H2Y18658   4.457   2.750   9.783 -0.8242  0.0180  0.1737
  166SOPE   C2318659   4.805   2.693   9.982 -0.7962 -0.2308  0.1066
  166SOPE   H3R18660   4.736   2.607   9.996  0.8722 -1.3162  2.2321
  166SOPE   H3S18661   4.909   2.658   9.999 -0.6606 -0.8513 -1.6991
  166SOPE   C2418662   4.811   2.770   9.853  0.1546  0.0186  0.8549
  166SOPE   H4R18663   4.758   2.867   9.854 -1.1727 -0.6247 -0.7900
  166SOPE   H4S18664   4.915   2.808   9.840  0.4426 -0.5555  1.4320
  166SOPE   C2518665   4.776   2.681   9.733 -0.6363  0.2538 -0.3292
  166SOPE   H5R18666   4.822   2.584   9.761  0.3752  0.5824 -0.7848
  166SOPE   H5S18667   4.667   2.662   9.720 -0.4516 -0.8474 -0.3263
  166SOPE   C2618668   4.842   2.724   9.604 -0.6654  0.3965  0.7434
  166SOPE   H6R18669   4.793   2.818   9.574 -1.4317 -0.0837  0.4550
  166SOPE   H6S18670   4.951   2.745   9.618 -0.2147 -0.3399 -1.2427
  166SOPE   C2718671   4.827   2.619   9.491  0.0444  0.5078  0.1789
  166SOPE   H7R18672   4.887   2.538   9.536 -0.1869 -0.1143 -0.6201
  166SOPE   H7S18673   4.720   2.593   9.480  0.2655  0.4328 -2.4691
  166SOPE   C2818674   4.881   2.667   9.351 -0.5006  0.2916  0.4949
  166SOPE   H8R18675   4.833   2.763   9.325  1.3585  1.0584 -0.2436
  166SOPE   H8S18676   4.987   2.699   9.363 -0.0950 -0.2705 -1.2624
  166SOPE   C2918677   4.877   2.560   9.243  0.8294  0.3622 -0.8540
  166SOPE   H9118678   4.864   2.459   9.285 -0.4499  1.1721  0.8353
  166SOPE  C21018679   4.883   2.568   9.112 -0.2466  0.5576  0.2943
  166SOPE  H10118680   4.863   2.483   9.046 -0.0861  0.3781  0.4776
  166SOPE  C21118681   4.895   2.694   9.034 -0.0688 -0.1316 -0.1201
  166SOPE  H11R18682   4.959   2.760   9.096  1.0549 -1.0346 -0.3022
  166SOPE  H11S18683   4.796   2.741   9.016 -1.4868 -1.9777  2.3461
  166SOPE  C21218684   4.968   2.678   8.898  0.4099 -0.0177 -0.1552
  166SOPE  H12R18685   5.062   2.623   8.918  0.0055 -0.1370  1.5785
  166SOPE  H12S18686   4.993   2.782   8.867  1.3677 -0.3160 -0.4208
  166SOPE  C21318687   4.890   2.599   8.788 -0.3490  0.5298  0.0526
  166SOPE  H13R18688   4.874   2.491   8.812 -0.4843  0.9613  2.1106
  166SOPE  H13S18689   4.965   2.595   8.706  0.0901 -1.8268  0.5008
  166SOPE  C21418690   4.758   2.671   8.744  0.2894  0.7107 -0.7401
  166SOPE  H14R18691   4.776   2.779   8.757 -1.6685  0.8344  1.8760
  166SOPE  H14S18692   4.690   2.646   8.829  1.0214  0.7027 -0.1401
  166SOPE  C21518693   4.708   2.633   8.609  0.1903  0.1328  0.5740
  166SOPE  H15R18694   4.706   2.523   8.601 -1.1986  0.1736  0.2252
  166SOPE  H15S18695   4.770   2.681   8.531  0.5302  2.2300  2.0358
  166SOPE  C21618696   4.565   2.690   8.577 -1.0150 -0.1995 -0.5311
  166SOPE  H16R18697   4.555   2.798   8.605 -1.1470 -0.2394 -0.4195
  166SOPE  H16S18698   4.491   2.643   8.646 -1.3721  1.9362  0.6266
  166SOPE  C21718699   4.521   2.672   8.432 -0.0786  0.2549 -0.4055
  166SOPE  H17R18700   4.416   2.704   8.413  0.0334  0.9905  0.1469
  166SOPE  H17S18701   4.520   2.565   8.404  0.4798 -0.1122  0.8960
  166SOPE  C21818702   4.612   2.758   8.341 -0.3830 -0.0822  0.6941
  166SOPE  H18R18703   4.710   2.707   8.335 -1.0838 -1.6671  1.9650
  166SOPE  H18S18704   4.624   2.864   8.372  0.5798 -0.3036  1.1066
  166SOPE  H18T18705   4.568   2.760   8.238 -0.8692  0.7279  0.9041
  166SOPE   C3318706   4.286   2.607   9.790  0.2566 -0.8492 -0.1059
  166SOPE   H3X18707   4.232   2.667   9.714  1.1347 -3.5210 -3.0597
  166SOPE   H3Y18708   4.229   2.552   9.868 -1.0052 -0.5509 -0.7990
  166SOPE   C3418709   4.358   2.496   9.714  0.6307  0.4377  0.0977
  166SOPE   H4X18710   4.388   2.419   9.787  1.6469 -0.2228 -0.9764
  166SOPE   H4Y18711   4.441   2.534   9.650 -0.8792 -0.0378 -2.2484
  166SOPE   C3518712   4.256   2.419   9.621  0.0626 -0.2114 -0.0988
  166SOPE   H5X18713   4.208   2.498   9.559 -0.7607 -1.0824 -0.5984
  166SOPE   H5Y18714   4.175   2.367   9.676  1.0305 -0.6841  0.9252
  166SOPE   C3618715   4.318   2.329   9.516  0.0437  0.0322  0.6329
  166SOPE   H6X18716   4.371   2.248   9.571  0.8098 -0.6996 -1.1179
  166SOPE   H6Y18717   4.385   2.386   9.449  0.9024 -0.4737  1.0518
  166SOPE   C3718718   4.213   2.260   9.418  0.7385 -0.3095 -0.9717
  166SOPE   H7X18719   4.122   2.323   9.402 -0.2376 -1.1488  0.9062
  166SOPE   H7Y18720   4.175   2.170   9.470 -1.8224  0.4588 -1.3741
  166SOPE   C3818721   4.274   2.220   9.291 -0.2233  0.2117  0.4222
  166SOPE   H8X18722   4.363   2.155   9.306  1.2874  1.0271 -3.8010
  166SOPE   H8Y18723   4.314   2.306   9.234 -0.1933 -0.7378 -1.0384
  166SOPE   C3918724   4.169   2.145   9.208 -0.6255 -0.6049  0.0650
  166SOPE   H9X18725   4.077   2.207   9.214 -0.1700  0.2768 -1.5476
  166SOPE   H9Y18726   4.157   2.046   9.257 -0.3372 -0.2179  0.9322
  166SOPE  C31018727   4.220   2.119   9.065 -0.2275 -0.4910  0.8100
  166SOPE  H10X18728   4.323   2.077   9.066  0.3769  0.9439  1.4800
  166SOPE  H10Y18729   4.238   2.212   9.007  2.8361 -1.4897 -0.0221
  166SOPE  C31118730   4.132   2.011   8.994  0.3096  0.1795  0.1013
  166SOPE  H11X18731   4.024   2.033   9.007  0.1431 -0.5727  0.0277
  166SOPE  H11Y18732   4.147   1.912   9.042 -0.6512  0.0114  0.0857
  166SOPE  C31218733   4.163   1.994   8.847  0.5315  0.2222  0.5389
  166SOPE  H12X18734   4.274   1.991   8.847  0.5225 -1.1405 -0.8952
  166SOPE  H12Y18735   4.118   2.076   8.787  2.2620  0.6862 -0.1833
  166SOPE  C31318736   4.109   1.858   8.781  0.2987  0.1696 -0.4649
  166SOPE  H13X18737   3.998   1.865   8.774  0.2529  0.4150  0.3583
  166SOPE  H13Y18738   4.125   1.781   8.859 -3.4801 -0.1095  0.2403
  166SOPE  C31418739   4.193   1.813   8.663 -0.3549 -0.1884  1.1371
  166SOPE  H14X18740   4.300   1.818   8.691  0.2468 -1.2902 -0.7741
  166SOPE  H14Y18741   4.182   1.883   8.578 -1.2243 -0.6841  0.8264
  166SOPE  C31518742   4.152   1.682   8.610 -0.0927 -0.2959  0.0486
  166SOPE  H15X18743   4.050   1.676   8.566 -0.5973 -0.2243  1.1791
  166SOPE  H15Y18744   4.138   1.615   8.698 -2.3168 -0.1793 -0.1684
  166SOPE  C31618745   4.256   1.614   8.517  0.0789 -0.1189  0.0397
  166SOPE  H16X18746   4.354   1.602   8.567  0.4039  0.6049 -0.4054
  166SOPE  H16Y18747   4.259   1.681   8.429  1.7081 -0.0860  0.0890
  166SOPE  C31718748   4.222   1.463   8.470  0.3089 -0.4237  0.7936
  166SOPE  H17X18749   4.122   1.441   8.428  0.5087  0.9192 -0.4523
  166SOPE  H17Y18750   4.243   1.395   8.555  1.2164 -1.3182 -0.1189
  166SOPE  C31818751   4.309   1.407   8.355  0.5069 -0.4570 -0.3417
  166SOPE  H18X18752   4.412   1.448   8.357  1.4806 -2.7494  0.6078
  166SOPE  H18Y18753   4.256   1.428   8.260 -1.9453 -3.0084  0.3424
  166SOPE  H18Z18754   4.322   1.296   8.353 -0.4592 -0.5697 -0.7862
  167SOPE     N18755   4.738   1.295   5.553 -0.4016  0.1948  0.1510
  167SOPE   HN118756   4.719   1.308   5.452 -1.2481 -2.0828 -0.0364
  167SOPE   HN218757   4.829   1.247   5.560 -0.3991  0.1808  0.0110
  167SOPE   HN318758   4.665   1.228   5.585 -1.9585  2.2814  1.2758
  167SOPE   C1218759   4.725   1.420   5.636 -0.4040 -0.6944 -0.0191
  167SOPE  H12A18760   4.760   1.503   5.572  2.0964 -1.5619  0.0989
  167SOPE  H12B18761   4.800   1.405   5.716 -1.0906  0.4367  0.8546
  167SOPE   C1118762   4.590   1.430   5.698 -0.0091 -0.0918  1.3827
  167SOPE  H11A18763   4.517   1.414   5.616 -1.0195  0.6440  2.1047
  167SOPE  H11B18764   4.589   1.531   5.743  0.5603  0.7171 -0.3341
  167SOPE     P18765   4.523   1.349   5.943 -0.0191  0.5451  0.4804
  167SOPE   O1318766   4.547   1.210   5.999 -0.9411  0.2503  0.8413
  167SOPE   O1418767   4.382   1.391   5.947 -0.8267 -0.4103  0.3636
  167SOPE   O1218768   4.574   1.334   5.796  0.2228  0.2591  0.7858
  167SOPE   O1118769   4.609   1.461   6.016  0.3000 -0.1753  0.0164
  167SOPE    C118770   4.744   1.471   6.019 -0.7586  0.2287 -0.3041
  167SOPE    HA18771   4.785   1.541   5.943  3.9168 -2.1453 -0.3651
  167SOPE    HB18772   4.799   1.376   6.000 -0.8616  0.0583  0.2435
  167SOPE    C218773   4.789   1.548   6.151  0.3047 -0.3423  0.2149
  167SOPE    HS18774   4.900   1.539   6.152  0.2985 -0.7314 -0.7733
  167SOPE   O2118775   4.727   1.506   6.266  0.1578 -0.0665 -0.8886
  167SOPE   C2118776   4.786   1.393   6.316  0.4084  0.0124 -0.6793
  167SOPE   O2218777   4.882   1.332   6.265 -0.3724  0.1466 -0.5604
  167SOPE   C2218778   4.712   1.348   6.442  0.6732  0.0631  0.1288
  167SOPE   H2R18779   4.613   1.314   6.403  0.9941 -0.2695 -0.4136
  167SOPE   H2S18780   4.693   1.432   6.513  0.2128 -1.3226  1.7217
  167SOPE    C318781   4.746   1.702   6.137  0.1112  0.2545 -0.5049
  167SOPE    HX18782   4.635   1.703   6.137  0.0923  2.4270  0.5010
  167SOPE    HY18783   4.776   1.750   6.041 -0.2213  0.8734 -0.3067
  167SOPE   O3118784   4.798   1.765   6.252  0.5467  0.0785  0.0574
  167SOPE   C3118785   4.722   1.851   6.320  0.5660 -0.6686  1.1292
  167SOPE   O3218786   4.604   1.879   6.296  0.0726 -0.0711  1.2662
  167SOPE   C3218787   4.800   1.918   6.432 -0.1506 -0.0905  0.1939
  167SOPE   H2X18788   4.801   2.027   6.416  0.8109  0.2048  1.9399
  167SOPE   H2Y18789   4.904   1.880   6.433  0.3532  1.2584  0.0207
  167SOPE   C2318790   4.773   1.230   6.521 -0.1753  0.1307  0.5690
  167SOPE   H3R18791   4.874   1.260   6.557 -0.4778  1.9494  0.0133
  167SOPE   H3S18792   4.788   1.143   6.454 -2.0388  1.1383 -1.2568
  167SOPE   C2418793   4.690   1.182   6.647 -0.1014 -0.6762  0.8941
  167SOPE   H4R18794   4.721   1.079   6.674  0.5583 -0.4772  0.9169
  167SOPE   H4S18795   4.722   1.249   6.730 -0.8442 -0.0876  0.7202
  167SOPE   C2518796   4.537   1.170   6.622  0.0509 -0.7847  0.0595
  167SOPE   H5R18797   4.492   1.266   6.588  1.2569 -0.3725 -0.3874
  167SOPE   H5S18798   4.515   1.087   6.552 -4.7633 -2.2778  2.8193
  167SOPE   C2618799   4.468   1.131   6.748  0.6343 -0.4997  0.7467
  167SOPE   H6R18800   4.492   1.023   6.759 -0.8452 -1.0023 -0.5731
  167SOPE   H6S18801   4.510   1.187   6.834 -1.0080 -0.0556  1.2949
  167SOPE   C2718802   4.313   1.149   6.748 -0.4059 -0.1658 -0.2139
  167SOPE   H7R18803   4.293   1.258   6.744  3.3711  0.6548 -1.5607
  167SOPE   H7S18804   4.268   1.108   6.655  1.1622 -3.2181  0.2272
  167SOPE   C2818805   4.244   1.085   6.866  0.7846 -0.0879 -0.5555
  167SOPE   H8R18806   4.136   1.105   6.854  0.0517 -1.5815  2.5894
  167SOPE   H8S18807   4.252   0.975   6.878 -0.5501  0.0610  2.7759
  167SOPE   C2918808   4.276   1.161   6.994  0.0704  0.1367 -0.3866
  167SOPE   H9118809   4.268   1.270   6.987 -0.6953  0.1263  0.2489
  167SOPE  C21018810   4.303   1.115   7.114 -0.2359  0.6798  0.2555
  167SOPE  H10118811   4.309   1.189   7.195 -1.4484  0.2415  0.7700
  167SOPE  C21118812   4.308   0.969   7.161  0.4457 -0.0372  0.2056
  167SOPE  H11R18813   4.395   0.961   7.229  0.2910 -1.6525  0.2431
  167SOPE  H11S18814   4.336   0.898   7.080 -0.3008  0.5822 -0.6212
  167SOPE  C21218815   4.186   0.927   7.243 -0.1140 -0.5007  0.0618
  167SOPE  H12R18816   4.092   0.952   7.189 -0.9977 -0.6202  1.4949
  167SOPE  H12S18817   4.192   0.996   7.330  0.9668  3.8181 -3.0890
  167SOPE  C21318818   4.191   0.783   7.288  0.1903  0.0772  0.1122
  167SOPE  H13R18819   4.218   0.725   7.198  3.2430  0.6761  0.5516
  167SOPE  H13S18820   4.089   0.755   7.323  0.6104 -0.6183  0.8286
  167SOPE  C21418821   4.300   0.753   7.397  0.0400  0.8110 -0.3251
  167SOPE  H14R18822   4.381   0.829   7.405 -0.8357  1.7276  0.0153
  167SOPE  H14S18823   4.366   0.665   7.378  1.1318  1.2119  1.3225
  167SOPE  C21518824   4.237   0.753   7.539 -0.2352 -0.1182 -0.5641
  167SOPE  H15R18825   4.144   0.693   7.533 -1.6160  2.0536 -3.3306
  167SOPE  H15S18826   4.200   0.857   7.554 -1.7306 -0.7161  0.0016
  167SOPE  C21618827   4.331   0.695   7.645 -0.0322  0.7873  0.0464
  167SOPE  H16R18828   4.335   0.584   7.634 -1.3195  0.5895  1.3221
  167SOPE  H16S18829   4.289   0.716   7.746  1.2188  2.5190  0.2539
  167SOPE  C21718830   4.477   0.746   7.646 -0.0966  0.6751 -0.3798
  167SOPE  H17R18831   4.473   0.855   7.667  0.1625  0.7449 -0.6903
  167SOPE  H17S18832   4.516   0.725   7.544  1.9161 -1.5984  0.7610
  167SOPE  C21818833   4.574   0.671   7.733  0.3210 -0.1400 -0.0747
  167SOPE  H18R18834   4.577   0.566   7.699  1.6106 -0.4314  0.8384
  167SOPE  H18S18835   4.549   0.661   7.841  0.0622 -1.1986 -0.2238
  167SOPE  H18T18836   4.674   0.716   7.718  0.2661  0.4564  1.1836
  167SOPE   C3318837   4.736   1.887   6.567 -0.0137 -0.7428 -0.2510
  167SOPE   H3X18838   4.626   1.882   6.556 -0.1635  0.6086  0.5772
  167SOPE   H3Y18839   4.755   1.973   6.633 -1.3913 -0.9431  0.4361
  167SOPE   C3418840   4.789   1.759   6.630 -0.7496  0.5404  0.3135
  167SOPE   H4X18841   4.896   1.772   6.659 -0.4373  0.1107 -0.5967
  167SOPE   H4Y18842   4.771   1.665   6.573 -1.1157  0.1991  0.9838
  167SOPE   C3518843   4.713   1.731   6.766 -0.1137  0.2055  0.2549
  167SOPE   H5X18844   4.603   1.747   6.751  0.0430  4.3082  2.0611
  167SOPE   H5Y18845   4.740   1.811   6.839 -0.1176 -0.5929  1.1466
  167SOPE   C3618846   4.746   1.593   6.815 -0.3576  0.8690  0.6833
  167SOPE   H6X18847   4.853   1.564   6.812 -0.3454  0.9229 -1.3535
  167SOPE   H6Y18848   4.706   1.530   6.732  1.9301  2.3261 -1.6946
  167SOPE   C3718849   4.692   1.553   6.957 -0.5493  0.7317 -0.2685
  167SOPE   H7X18850   4.586   1.586   6.963 -1.0226 -0.5458 -1.1500
  167SOPE   H7Y18851   4.745   1.600   7.043 -0.5553  0.6352 -0.2113
  167SOPE   C3818852   4.684   1.403   6.989  0.2520 -0.0283  0.3781
  167SOPE   H8X18853   4.789   1.367   6.982 -0.3341 -2.1466  1.4256
  167SOPE   H8Y18854   4.626   1.357   6.906 -0.0202  0.0663  0.5139
  167SOPE   C3918855   4.643   1.349   7.125 -0.2277 -1.0130  0.5386
  167SOPE   H9X18856   4.627   1.239   7.127 -2.3333 -0.7446  1.7203
  167SOPE   H9Y18857   4.540   1.386   7.146  0.2100  0.5789  0.0214
  167SOPE  C31018858   4.740   1.389   7.246  0.0693 -0.0797  0.0563
  167SOPE  H10X18859   4.742   1.500   7.258 -2.4316 -0.2089  3.0123
  167SOPE  H10Y18860   4.840   1.357   7.211  0.0473  1.5147 -1.6564
  167SOPE  C31118861   4.707   1.309   7.367  0.0892 -0.0501  0.5943
  167SOPE  H11X18862   4.802   1.316   7.425  1.5553 -3.3636 -1.1295
  167SOPE  H11Y18863   4.702   1.202   7.340  0.3371  0.1818 -0.4151
  167SOPE  C31218864   4.584   1.354   7.443  0.6096 -0.3778  0.3405
  167SOPE  H12X18865   4.490   1.340   7.385 -0.6640  1.2786  1.8692
  167SOPE  H12Y18866   4.584   1.464   7.459  1.8181 -0.5396  1.6203
  167SOPE  C31318867   4.588   1.294   7.578  0.4299  0.1890 -0.9463
  167SOPE  H13X18868   4.676   1.327   7.637  0.1131  1.0383 -0.9396
  167SOPE  H13Y18869   4.598   1.184   7.588  0.3151  0.3618  2.1809
  167SOPE  C31418870   4.463   1.333   7.657 -0.3579 -0.5187  0.3258
  167SOPE  H14X18871   4.374   1.296   7.601  0.0078  0.1593 -0.7298
  167SOPE  H14Y18872   4.448   1.441   7.676 -1.3437 -0.7876  1.1703
  167SOPE  C31518873   4.458   1.278   7.800 -0.1199 -0.3712  0.7901
  167SOPE  H15X18874   4.374   1.324   7.857  0.0935  2.5136 -1.0778
  167SOPE  H15Y18875   4.549   1.305   7.857  0.4060 -1.1982  0.3667
  167SOPE  C31618876   4.460   1.125   7.814  0.0940  0.3538  0.1404
  167SOPE  H16X18877   4.560   1.085   7.788 -0.5254 -0.7257 -0.6856
  167SOPE  H16Y18878   4.390   1.082   7.738  0.0998  2.6230 -1.2256
  167SOPE  C31718879   4.411   1.074   7.950  0.0215  0.4591 -0.2059
  167SOPE  H17X18880   4.313   1.113   7.983 -0.1638 -1.8122  2.3111
  167SOPE  H17Y18881   4.480   1.128   8.020 -0.3697  3.7066 -2.1165
  167SOPE  C31818882   4.412   0.924   7.963  0.7421 -0.2621 -0.5852
  167SOPE  H18X18883   4.516   0.887   7.952  1.0357 -0.0075  0.9633
  167SOPE  H18Y18884   4.359   0.880   7.877 -0.1304  0.6517 -0.5384
  167SOPE  H18Z18885   4.369   0.894   8.061 -2.1717 -0.8235 -1.9336
  168SOPE     N18886   6.615   5.217   6.081  0.1875 -0.9714 -0.1975
  168SOPE   HN118887   6.554   5.155   6.137  0.5673  1.5979  3.4050
  168SOPE   HN218888   6.583   5.224   5.982 -1.2722  4.4419  0.3571
  168SOPE   HN318889   6.715   5.189   6.091  0.7821  0.4006 -1.8435
  168SOPE   C1218890   6.606   5.354   6.144  0.0333 -0.4387 -0.5979
  168SOPE  H12A18891   6.669   5.425   6.087  0.1903 -1.4366 -1.7029
  168SOPE  H12B18892   6.647   5.346   6.247 -2.0639  2.8984  0.6772
  168SOPE   C1118893   6.460   5.402   6.166 -0.5764 -0.2497  1.1833
  168SOPE  H11A18894   6.451   5.502   6.214  0.6365  0.7641 -0.5663
  168SOPE  H11B18895   6.417   5.338   6.246 -0.1882 -1.5866  0.3528
  168SOPE     P18896   6.226   5.367   6.033  0.0814  0.1665  0.1853
  168SOPE   O1318897   6.218   5.228   5.985  0.1935 -0.5433 -0.1705
  168SOPE   O1418898   6.164   5.465   5.940 -0.1950 -0.6700 -0.0170
  168SOPE   O1218899   6.385   5.399   6.048  0.6268  0.3984 -0.2760
  168SOPE   O1118900   6.174   5.364   6.184 -0.5268  0.1525 -0.1967
  168SOPE    C118901   6.084   5.474   6.229 -0.0756  0.0643  0.0393
  168SOPE    HA18902   6.005   5.434   6.296 -1.0715  3.7529  1.3256
  168SOPE    HB18903   6.054   5.546   6.150  2.8054  1.7351  0.2985
  168SOPE    C218904   6.157   5.572   6.332  0.3102 -0.0428 -0.7121
  168SOPE    HS18905   6.242   5.625   6.284 -0.9691  2.6121 -0.2283
  168SOPE   O2118906   6.195   5.478   6.438 -0.1629 -0.3474  0.1865
  168SOPE   C2118907   6.312   5.493   6.492 -0.7458 -0.2523 -0.3843
  168SOPE   O2218908   6.399   5.571   6.453  0.5223 -0.3641  0.1501
  168SOPE   C2218909   6.309   5.413   6.624  0.3059 -0.1900 -0.2921
  168SOPE   H2R18910   6.333   5.306   6.609  1.8753 -0.2191  1.9049
  168SOPE   H2S18911   6.212   5.435   6.673 -0.6440  1.6786 -2.7635
  168SOPE    C318912   6.063   5.677   6.388  0.4468 -0.7053 -0.1675
  168SOPE    HX18913   5.979   5.617   6.429  0.1869 -0.1376  0.1318
  168SOPE    HY18914   6.020   5.741   6.308 -1.9158 -0.0774  1.4855
  168SOPE   O3118915   6.139   5.760   6.476  0.2920  0.6582 -0.3679
  168SOPE   C3118916   6.067   5.837   6.557  0.6436 -0.0751  0.2584
  168SOPE   O3218917   5.942   5.848   6.557 -0.5846 -0.1419  0.7976
  168SOPE   C3218918   6.151   5.913   6.660 -0.5666 -1.0396  0.1045
  168SOPE   H2X18919   6.126   6.021   6.667  1.4104 -0.6743  3.2584
  168SOPE   H2Y18920   6.260   5.914   6.638 -0.4276  3.1775  0.2233
  168SOPE   C2318921   6.423   5.473   6.705  0.5880  0.5681 -0.4895
  168SOPE   H3R18922   6.416   5.584   6.700 -0.6764  0.4763 -0.9097
  168SOPE   H3S18923   6.517   5.448   6.651 -0.7672  1.8754 -3.7434
  168SOPE   C2418924   6.443   5.418   6.854 -0.4800  0.2241  0.8701
  168SOPE   H4R18925   6.416   5.311   6.865  1.4679 -0.4881 -0.5879
  168SOPE   H4S18926   6.547   5.438   6.886 -0.9503  2.1747  1.3045
  168SOPE   C2518927   6.362   5.504   6.947  0.4256  0.3371 -0.3864
  168SOPE   H5R18928   6.380   5.612   6.930  0.6643  0.4371  0.4808
  168SOPE   H5S18929   6.257   5.472   6.928  0.3865  0.3646 -0.2123
  168SOPE   C2618930   6.377   5.481   7.096  1.0081 -0.2932 -0.1407
  168SOPE   H6R18931   6.310   5.549   7.153  0.7199 -0.9406  0.3167
  168SOPE   H6S18932   6.350   5.375   7.116  1.2916 -0.0707  1.6208
  168SOPE   C2718933   6.517   5.498   7.143  0.0122 -1.0955  0.2873
  168SOPE   H7R18934   6.575   5.410   7.110 -1.9958 -1.3866 -2.9956
  168SOPE   H7S18935   6.558   5.587   7.092 -2.2552 -0.8756 -1.3158
  168SOPE   C2818936   6.524   5.524   7.290 -0.1816  0.0489 -0.0868
  168SOPE   H8R18937   6.495   5.627   7.320  1.7438  0.8401 -0.8060
  168SOPE   H8S18938   6.449   5.452   7.328 -1.0404 -0.4310 -2.5382
  168SOPE   C2918939   6.663   5.493   7.335 -0.1156  0.1845  0.2763
  168SOPE   H9118940   6.745   5.497   7.263  0.2338  0.3388  0.6765
  168SOPE  C21018941   6.709   5.446   7.453  0.1497  0.0373 -0.2204
  168SOPE  H10118942   6.816   5.427   7.474 -0.1149  0.2136  1.3692
  168SOPE  C21118943   6.619   5.412   7.565 -0.2657 -0.5741 -0.3684
  168SOPE  H11R18944   6.592   5.304   7.574 -2.5463  0.0092  0.1253
  168SOPE  H11S18945   6.521   5.463   7.559 -0.1791  0.4259  3.7612
  168SOPE  C21218946   6.681   5.467   7.702  0.4357  0.1838 -0.2716
  168SOPE  H12R18947   6.689   5.577   7.686  0.0478  0.1463 -0.7604
  168SOPE  H12S18948   6.783   5.426   7.715  0.6423  0.4835 -0.9407
  168SOPE  C21318949   6.596   5.441   7.826  0.0807 -0.0468 -0.1520
  168SOPE  H13R18950   6.602   5.332   7.845 -2.6225 -0.0408  1.3083
  168SOPE  H13S18951   6.488   5.457   7.804 -0.0072  2.2954  1.5340
  168SOPE  C21418952   6.634   5.522   7.953  0.5828  0.0035  0.2046
  168SOPE  H14R18953   6.572   5.497   8.041  0.7097 -1.2553 -0.0441
  168SOPE  H14S18954   6.622   5.630   7.930 -0.0090 -0.3845 -1.4948
  168SOPE  C21518955   6.780   5.489   7.993 -0.8282  0.0348  0.0491
  168SOPE  H15R18956   6.858   5.515   7.918 -0.3908  1.2978  0.9142
  168SOPE  H15S18957   6.790   5.379   8.006 -0.7151  0.2927  2.5713
  168SOPE  C21618958   6.809   5.542   8.131 -0.3680 -0.2146 -0.4686
  168SOPE  H16R18959   6.737   5.485   8.194 -0.0316  1.2744  1.3620
  168SOPE  H16S18960   6.787   5.650   8.140 -2.4518 -0.5847 -0.4709
  168SOPE  C21718961   6.958   5.539   8.178 -0.4090 -0.2672 -0.1465
  168SOPE  H17R18962   7.020   5.578   8.094 -1.9533 -1.0105 -1.7093
  168SOPE  H17S18963   6.994   5.434   8.185  0.0274 -0.0983  0.1751
  168SOPE  C21818964   6.972   5.593   8.323  0.3104  0.3639  0.1595
  168SOPE  H18R18965   6.909   5.683   8.332 -2.9316 -1.4666 -2.1466
  168SOPE  H18S18966   7.079   5.613   8.345  0.3586 -1.2571  1.7143
  168SOPE  H18T18967   6.937   5.510   8.389  0.9380  0.2850  0.4029
  168SOPE   C3318968   6.113   5.854   6.800 -0.1036  0.0766  0.1576
  168SOPE   H3X18969   6.139   5.746   6.792  1.6235  0.5011 -0.6605
  168SOPE   H3Y18970   6.006   5.863   6.828 -0.4948 -2.9623  0.0594
  168SOPE   C3418971   6.205   5.906   6.911 -0.0781  0.0987  0.5780
  168SOPE   H4X18972   6.207   6.017   6.901  0.2433  0.1201  0.8702
  168SOPE   H4Y18973   6.305   5.868   6.881 -1.2192 -1.2598 -1.7541
  168SOPE   C3518974   6.156   5.859   7.048  0.1618  0.0682 -0.2405
  168SOPE   H5X18975   6.169   5.752   7.075  0.4330  0.8599  3.2312
  168SOPE   H5Y18976   6.050   5.886   7.062  0.1445 -0.2585  0.2871
  168SOPE   C3618977   6.227   5.950   7.152  0.3591  0.4184  0.3426
  168SOPE   H6X18978   6.188   6.054   7.161 -1.1099  0.1858 -2.2470
  168SOPE   H6Y18979   6.336   5.953   7.129  0.3522 -0.7694  0.0832
  168SOPE   C3718980   6.231   5.876   7.284  0.4346  0.3997  0.5789
  168SOPE   H7X18981   6.284   5.779   7.271  1.2454  0.3023  3.7375
  168SOPE   H7Y18982   6.123   5.861   7.307  0.6674  2.0429  3.2357
  168SOPE   C3818983   6.304   5.962   7.388 -0.4223 -0.8835  0.4505
  168SOPE   H8X18984   6.246   6.056   7.402 -2.1060 -1.6781 -0.8972
  168SOPE   H8Y18985   6.407   5.977   7.348 -1.0908 -1.1585 -1.5014
  168SOPE   C3918986   6.323   5.885   7.523  0.7549  0.1602 -0.1795
  168SOPE   H9X18987   6.383   5.795   7.501  0.2595 -0.5388  1.1889
  168SOPE   H9Y18988   6.217   5.860   7.548  0.5808  0.0563 -1.0007
  168SOPE  C31018989   6.376   5.974   7.638 -0.1868 -0.9261 -0.5132
  168SOPE  H10X18990   6.312   6.064   7.647  0.3662 -0.7488  2.9982
  168SOPE  H10Y18991   6.472   6.016   7.599 -0.5463  1.9329  1.4006
  168SOPE  C31118992   6.393   5.895   7.768 -0.3651 -0.4254  0.4223
  168SOPE  H11X18993   6.480   5.829   7.748 -0.2023  0.3587 -1.7346
  168SOPE  H11Y18994   6.304   5.833   7.793 -0.5842 -0.4003 -0.2578
  168SOPE  C31218995   6.424   5.981   7.895  0.5791 -0.8602  0.1814
  168SOPE  H12X18996   6.356   6.067   7.915  0.7023 -0.7038 -0.0759
  168SOPE  H12Y18997   6.524   6.026   7.874  0.7921 -2.1741 -1.8178
  168SOPE  C31318998   6.437   5.905   8.031  0.5865  0.0886  0.5903
  168SOPE  H13X18999   6.481   5.804   8.022 -0.3831 -0.2738 -0.3438
  168SOPE  H13Y19000   6.336   5.891   8.074 -0.1654  0.7329 -0.8730
  168SOPE  C31419001   6.538   5.973   8.129  0.1202  0.3482 -0.2319
  168SOPE  H14X19002   6.512   6.081   8.137 -1.5815  0.1303 -2.0588
  168SOPE  H14Y19003   6.636   5.987   8.079 -0.3515 -2.1454 -2.0240
  168SOPE  C31519004   6.538   5.923   8.278 -0.0339 -0.8363 -0.2349
  168SOPE  H15X19005   6.431   5.906   8.306  0.3328 -1.5157  0.8161
  168SOPE  H15Y19006   6.573   6.004   8.345  0.2081  1.5453 -3.0407
  168SOPE  C31619007   6.611   5.802   8.320  0.6536 -0.3683 -0.0410
  168SOPE  H16X19008   6.721   5.811   8.307  0.5063 -0.0896 -1.2113
  168SOPE  H16Y19009   6.562   5.719   8.264  1.2272 -1.4361  0.9974
  168SOPE  C31719010   6.601   5.771   8.476  0.1562 -0.1075 -0.6845
  168SOPE  H17X19011   6.493   5.778   8.498  0.5708  2.5564  1.0430
  168SOPE  H17Y19012   6.647   5.858   8.528  1.7900 -0.5437 -1.3162
  168SOPE  C31819013   6.680   5.654   8.522 -0.4835  0.6015 -0.8285
  168SOPE  H18X19014   6.788   5.679   8.519 -0.1150 -0.6844  0.4797
  168SOPE  H18Y19015   6.665   5.559   8.467 -0.1294  0.8336 -1.3385
  168SOPE  H18Z19016   6.661   5.632   8.629 -0.2432  1.1635 -0.6657
  169SOPE     N19017   6.650   6.842   6.296 -0.3214 -0.1135 -0.3956
  169SOPE   HN119018   6.698   6.759   6.256  0.6830  0.1592  0.2090
  169SOPE   HN219019   6.653   6.817   6.397  1.5619  0.9698 -0.1229
  169SOPE   HN319020   6.550   6.848   6.267 -0.8002  1.6947  1.3478
  169SOPE   C1219021   6.707   6.976   6.252 -0.4697  0.1003  0.2553
  169SOPE  H12A19022   6.686   6.991   6.144 -2.5392 -0.8300  0.4827
  169SOPE  H12B19023   6.813   6.975   6.284  0.8619 -1.3433 -3.5457
  169SOPE   C1119024   6.639   7.093   6.323 -0.5763 -0.1755  0.2047
  169SOPE  H11A19025   6.683   7.191   6.293 -2.0028  0.0436 -1.2993
  169SOPE  H11B19026   6.662   7.089   6.431  0.5157  0.5317  0.0186
  169SOPE     P19027   6.434   7.178   6.174 -0.3175 -0.1230 -0.1794
  169SOPE   O1319028   6.416   7.087   6.058 -0.3061  1.2743 -0.2856
  169SOPE   O1419029   6.509   7.311   6.164 -0.5223 -0.0743  0.0090
  169SOPE   O1219030   6.504   7.088   6.291 -0.5172 -1.0526  0.2524
  169SOPE   O1119031   6.288   7.199   6.241 -0.6283 -0.3051  0.1746
  169SOPE    C119032   6.281   7.215   6.387  0.1005  0.2264 -0.9202
  169SOPE    HA19033   6.223   7.310   6.398  1.5688  0.8988  2.2320
  169SOPE    HB19034   6.372   7.239   6.447 -2.1098  1.5445  2.2285
  169SOPE    C219035   6.185   7.102   6.460 -0.6506 -0.5357  0.3485
  169SOPE    HS19036   6.092   7.081   6.404 -0.1312 -1.5733 -0.1557
  169SOPE   O2119037   6.150   7.153   6.592  0.0782 -0.3371  0.5783
  169SOPE   C2119038   6.026   7.128   6.633 -0.2334 -0.6018 -0.0356
  169SOPE   O2219039   5.943   7.074   6.567 -0.0872  0.0036  0.0387
  169SOPE   C2219040   6.015   7.179   6.776  1.1380  0.2444 -0.6243
  169SOPE   H2R19041   6.028   7.289   6.779 -0.3680  0.4123  2.0737
  169SOPE   H2S19042   6.099   7.130   6.830  0.6477  0.6332  0.4991
  169SOPE    C319043   6.247   6.963   6.476  0.2038  0.3967 -0.2164
  169SOPE    HX19044   6.347   6.990   6.516  1.1282  0.4634 -2.4370
  169SOPE    HY19045   6.254   6.918   6.375  0.3265  0.5393 -0.2707
  169SOPE   O3119046   6.168   6.880   6.559 -0.0974  0.1771 -0.8768
  169SOPE   C3119047   6.227   6.782   6.627 -0.0174 -0.8956  0.1328
  169SOPE   O3219048   6.353   6.761   6.617 -0.2865 -0.3436  0.0951
  169SOPE   C3219049   6.137   6.712   6.721 -0.6630 -0.0107  0.7483
  169SOPE   H2X19050   6.215   6.667   6.787 -0.2557 -1.1640 -0.4664
  169SOPE   H2Y19051   6.091   6.621   6.677  0.5084  0.8195 -2.4428
  169SOPE   C2319052   5.877   7.149   6.834 -0.2621 -0.0976  0.1283
  169SOPE   H3R19053   5.837   7.046   6.831  0.0791 -0.2059 -0.9452
  169SOPE   H3S19054   5.797   7.193   6.772 -2.1632 -0.8545  1.9129
  169SOPE   C2419055   5.872   7.195   6.979 -0.0479 -0.4179 -0.1256
  169SOPE   H4R19056   5.867   7.305   6.966 -1.3916 -0.7884 -4.7288
  169SOPE   H4S19057   5.779   7.154   7.025  0.5480  1.3749  2.9707
  169SOPE   C2519058   5.990   7.163   7.067  0.0188 -0.0483  0.0729
  169SOPE   H5R19059   6.007   7.053   7.058  1.5680  0.0441  1.4046
  169SOPE   H5S19060   6.084   7.211   7.033  0.8262 -1.9632 -0.5869
  169SOPE   C2619061   5.970   7.188   7.214  0.1387  0.2481 -0.7176
  169SOPE   H6R19062   5.909   7.280   7.226 -0.5610 -0.3559  0.5966
  169SOPE   H6S19063   5.929   7.108   7.279  0.0729  0.4014 -0.5692
  169SOPE   C2719064   6.103   7.210   7.287  0.0307  0.6604  0.3822
  169SOPE   H7R19065   6.156   7.113   7.299 -1.8479 -0.3693  0.6646
  169SOPE   H7S19066   6.163   7.280   7.226 -0.7150 -0.7392 -2.1130
  169SOPE   C2819067   6.085   7.266   7.430 -0.1019 -0.6808  0.7028
  169SOPE   H8R19068   6.189   7.293   7.459 -0.1504 -0.3971  0.6192
  169SOPE   H8S19069   6.028   7.360   7.412 -0.9221 -1.5738 -1.9705
  169SOPE   C2919070   6.017   7.182   7.538  0.2470 -0.3333 -0.7747
  169SOPE   H9119071   5.936   7.117   7.502  0.2429 -0.0514 -1.2855
  169SOPE  C21019072   6.045   7.198   7.669  0.0122  0.3635 -0.8897
  169SOPE  H10119073   6.005   7.130   7.746  3.4641 -0.1959  0.6325
  169SOPE  C21119074   6.143   7.301   7.730  0.0944  0.3522 -0.1523
  169SOPE  H11R19075   6.119   7.400   7.686  0.9709  0.7851  0.3149
  169SOPE  H11S19076   6.241   7.282   7.681 -0.0414  3.6123 -1.9557
  169SOPE  C21219077   6.159   7.308   7.892  0.4536 -0.0109  0.3783
  169SOPE  H12R19078   6.174   7.203   7.926 -1.4184 -0.1011  1.0746
  169SOPE  H12S19079   6.055   7.334   7.921  0.0300  0.8628 -1.7552
  169SOPE  C21319080   6.261   7.406   7.957  0.0765 -0.2725  0.4485
  169SOPE  H13R19081   6.253   7.506   7.910 -1.0437 -0.0053  1.1901
  169SOPE  H13S19082   6.363   7.372   7.927  0.4161  0.8488  0.2977
  169SOPE  C21419083   6.250   7.416   8.106  0.2408 -0.1188 -0.6461
  169SOPE  H14R19084   6.352   7.418   8.150  0.0854  0.2694 -0.3010
  169SOPE  H14S19085   6.204   7.324   8.150 -0.3763 -0.2453 -1.5147
  169SOPE  C21519086   6.161   7.537   8.146  0.5103  0.2790 -0.4623
  169SOPE  H15R19087   6.078   7.565   8.079  0.8777  0.4167 -0.8632
  169SOPE  H15S19088   6.229   7.625   8.151  0.7399  0.0463  1.2413
  169SOPE  C21619089   6.108   7.521   8.293 -0.4137  0.1277  0.3018
  169SOPE  H16R19090   6.075   7.621   8.328 -2.9775  0.0406 -1.5445
  169SOPE  H16S19091   6.194   7.490   8.355 -0.0462  1.2211  0.3563
  169SOPE  C21719092   6.009   7.413   8.314  0.3345 -0.5085  0.1256
  169SOPE  H17R19093   6.058   7.315   8.328  0.4702 -0.0203  3.8431
  169SOPE  H17S19094   5.941   7.416   8.226 -0.2945 -1.9092  0.5294
  169SOPE  C21819095   5.908   7.430   8.429 -0.1203 -0.9553  0.5514
  169SOPE  H18R19096   5.899   7.541   8.437  0.4184 -0.7235 -1.3714
  169SOPE  H18S19097   5.943   7.394   8.527  0.5985  1.3863  1.2276
  169SOPE  H18T19098   5.816   7.374   8.400 -0.2600  0.3272 -1.7975
  169SOPE   C3319099   6.031   6.788   6.796 -0.2001  0.0868  0.1575
  169SOPE   H3X19100   5.943   6.787   6.729  0.8721 -0.7315 -1.2795
  169SOPE   H3Y19101   6.074   6.890   6.808  1.0283 -0.3792 -0.1271
  169SOPE   C3419102   5.989   6.744   6.928  0.6784  1.5606  0.0728
  169SOPE   H4X19103   5.948   6.640   6.930  0.3556  1.5723  4.5785
  169SOPE   H4Y19104   5.900   6.804   6.956 -0.0434  1.1654 -1.2654
  169SOPE   C3519105   6.090   6.752   7.039 -0.2982  0.3509  0.1496
  169SOPE   H5X19106   6.132   6.855   7.046  1.1754 -0.2576  0.6467
  169SOPE   H5Y19107   6.174   6.681   7.026  0.3768  0.7522  1.9336
  169SOPE   C3619108   6.016   6.743   7.176  0.3183  0.2275 -0.6443
  169SOPE   H6X19109   5.998   6.638   7.207 -1.9069  1.4591  2.8521
  169SOPE   H6Y19110   5.918   6.795   7.187 -0.9122 -2.3632  1.6301
  169SOPE   C3719111   6.106   6.814   7.276  0.1560  0.7550  0.1470
  169SOPE   H7X19112   6.133   6.916   7.240  2.5910 -0.2437 -1.0774
  169SOPE   H7Y19113   6.207   6.768   7.269 -1.0206 -1.8487 -1.4526
  169SOPE   C3819114   6.043   6.817   7.418  0.3948  0.3772 -0.8228
  169SOPE   H8X19115   6.108   6.888   7.474 -0.8671  1.6820 -0.9462
  169SOPE   H8Y19116   5.946   6.871   7.417  0.4884  0.7687  2.0563
  169SOPE   C3919117   6.026   6.681   7.485  0.3536  0.2544 -0.2182
  169SOPE   H9X19118   6.118   6.619   7.492 -0.1550 -0.4408  0.5542
  169SOPE   H9Y19119   5.947   6.617   7.440  0.2526 -1.3908  2.0878
  169SOPE  C31019120   5.968   6.704   7.631  0.0222 -0.2761  0.4276
  169SOPE  H10X19121   5.905   6.621   7.669  0.4055 -0.1873  1.2630
  169SOPE  H10Y19122   5.893   6.783   7.613  0.0850 -0.4708 -0.7724
  169SOPE  C31119123   6.084   6.744   7.715 -0.5291 -0.1004 -0.7947
  169SOPE  H11X19124   6.137   6.828   7.664  1.4731 -0.4288  0.5780
  169SOPE  H11Y19125   6.152   6.659   7.739  3.3900  3.5717  2.9502
  169SOPE  C31219126   6.034   6.792   7.853  0.3955 -0.5808  0.2152
  169SOPE  H12X19127   5.965   6.714   7.894  0.5363 -1.5226 -1.2690
  169SOPE  H12Y19128   5.979   6.888   7.844 -2.3845 -2.1423 -0.6832
  169SOPE  C31319129   6.145   6.836   7.950 -0.5788  0.4074  0.2713
  169SOPE  H13X19130   6.207   6.909   7.893 -0.0859 -1.5777 -1.8801
  169SOPE  H13Y19131   6.214   6.749   7.962 -0.2456  0.5386 -0.5944
  169SOPE  C31419132   6.090   6.882   8.081  0.2055  0.0071  0.3543
  169SOPE  H14X19133   6.036   6.795   8.124 -1.1362  0.5899 -0.1081
  169SOPE  H14Y19134   6.022   6.968   8.063  0.1009  0.3555  2.2041
  169SOPE  C31519135   6.207   6.927   8.168  0.5358 -0.2665 -0.1566
  169SOPE  H15X19136   6.287   6.965   8.102  4.1596 -0.9327  3.4450
  169SOPE  H15Y19137   6.257   6.843   8.221  3.7103 -0.1954 -2.7397
  169SOPE  C31619138   6.163   7.042   8.263 -0.1559 -0.0542  0.5446
  169SOPE  H16X19139   6.076   7.006   8.323 -0.0334 -0.0771  0.7064
  169SOPE  H16Y19140   6.139   7.131   8.201 -0.5263 -1.2140 -1.0476
  169SOPE  C31719141   6.266   7.084   8.365 -0.1632  0.2236 -0.6107
  169SOPE  H17X19142   6.280   7.015   8.451  0.1260 -0.0100 -0.8464
  169SOPE  H17Y19143   6.231   7.180   8.411 -0.5294  0.7173 -1.8710
  169SOPE  C31819144   6.407   7.105   8.308 -0.2003  0.6904  0.0837
  169SOPE  H18X19145   6.476   7.129   8.392  0.0216 -1.3120  0.5246
  169SOPE  H18Y19146   6.402   7.179   8.225 -1.6750  4.0172  2.8430
  169SOPE  H18Z19147   6.446   7.005   8.282 -1.7036 -0.2926  1.4318
  170SOPE     N19148   6.757   6.086   6.233 -0.2094  0.2045 -0.0928
  170SOPE   HN119149   6.719   6.178   6.203 -4.6415 -0.6448  2.1288
  170SOPE   HN219150   6.681   6.015   6.229  0.3556 -0.6106  2.0894
  170SOPE   HN319151   6.771   6.098   6.336 -1.6222  1.1961  0.0167
  170SOPE   C1219152   6.882   6.039   6.163  1.1137 -0.0928 -0.1520
  170SOPE  H12A19153   6.972   6.083   6.210  1.7311 -0.9365 -0.5279
  170SOPE  H12B19154   6.883   6.078   6.058  0.5018  0.8280  0.1711
  170SOPE   C1119155   6.897   5.887   6.173  0.9893  0.1851 -0.0171
  170SOPE  H11A19156   6.889   5.852   6.278  0.5401  2.2323  0.6840
  170SOPE  H11B19157   7.001   5.864   6.141  1.4813  1.9832  0.1515
  170SOPE     P19158   6.664   5.755   6.149 -0.1139 -0.4786  0.0156
  170SOPE   O1319159   6.700   5.645   6.237  0.5061  0.2576  0.5249
  170SOPE   O1419160   6.576   5.726   6.029  0.1792  0.0188  0.4710
  170SOPE   O1219161   6.798   5.820   6.095  0.4143 -0.5632 -0.0349
  170SOPE   O1119162   6.602   5.879   6.231  0.4099 -0.4041  0.3571
  170SOPE    C119163   6.482   5.870   6.307  0.1960 -0.1311 -0.2300
  170SOPE    HA19164   6.441   5.767   6.308 -1.5270  0.5172  0.6682
  170SOPE    HB19165   6.403   5.926   6.253  0.4472 -1.4659 -2.0824
  170SOPE    C219166   6.507   5.925   6.446 -0.7953  0.5499 -0.3974
  170SOPE    HS19167   6.422   5.907   6.515  1.1446  3.4411  3.0868
  170SOPE   O2119168   6.525   6.069   6.445 -0.3555  0.0368 -0.1202
  170SOPE   C2119169   6.424   6.146   6.440 -0.8087  0.7941 -0.0466
  170SOPE   O2219170   6.308   6.110   6.442  0.3215 -0.5733  0.4010
  170SOPE   C2219171   6.471   6.290   6.445 -0.3561  0.0529  0.3085
  170SOPE   H2R19172   6.437   6.339   6.351  2.9102 -0.2836 -1.1651
  170SOPE   H2S19173   6.581   6.301   6.457 -0.0450 -0.8259 -1.4898
  170SOPE    C319174   6.627   5.856   6.519 -0.3232  0.1656 -0.0999
  170SOPE    HX19175   6.716   5.883   6.458  0.0302  0.5999  0.5889
  170SOPE    HY19176   6.611   5.747   6.533 -1.9704  0.4487  0.3995
  170SOPE   O3119177   6.648   5.920   6.646  0.5319 -0.4067 -0.6793
  170SOPE   C3119178   6.631   5.864   6.762 -0.3777 -0.7596 -0.4944
  170SOPE   O3219179   6.585   5.751   6.787 -0.4952 -0.1164  0.4916
  170SOPE   C3219180   6.639   5.973   6.866 -0.1210  0.1990  0.4017
  170SOPE   H2X19181   6.541   6.024   6.860  0.1361  0.7572  0.8678
  170SOPE   H2Y19182   6.716   6.050   6.847  0.2003 -0.0915  0.5055
  170SOPE   C2319183   6.401   6.364   6.558 -0.7608 -0.0806  0.0034
  170SOPE   H3R19184   6.291   6.345   6.554 -0.7302 -0.2303 -0.1320
  170SOPE   H3S19185   6.410   6.474   6.548  0.0752 -0.2236 -1.0773
  170SOPE   C2419186   6.467   6.323   6.693 -0.3984 -0.4279  0.1900
  170SOPE   H4R19187   6.439   6.216   6.704 -1.7636 -0.0024  1.1180
  170SOPE   H4S19188   6.578   6.325   6.688 -0.4200 -1.2158 -1.1345
  170SOPE   C2519189   6.403   6.395   6.815  0.7676  0.1718 -0.1073
  170SOPE   H5R19190   6.400   6.504   6.796  0.9152 -0.1567 -2.3381
  170SOPE   H5S19191   6.295   6.369   6.818  0.4466  0.8820 -3.0069
  170SOPE   C2619192   6.478   6.361   6.952 -0.0802  0.0311 -0.8585
  170SOPE   H6R19193   6.494   6.253   6.974  1.6584 -0.0184 -2.1694
  170SOPE   H6S19194   6.582   6.383   6.921 -0.0142 -1.5096 -1.8522
  170SOPE   C2719195   6.433   6.440   7.068 -0.2275 -0.2354 -0.2846
  170SOPE   H7R19196   6.522   6.472   7.127 -0.3161 -2.5197  1.2548
  170SOPE   H7S19197   6.375   6.529   7.038 -0.0069 -0.0166 -0.0635
  170SOPE   C2819198   6.342   6.368   7.166  0.1168 -0.0170  0.0831
  170SOPE   H8R19199   6.252   6.334   7.111  0.3703 -1.1685  0.3436
  170SOPE   H8S19200   6.384   6.268   7.194  0.3716  0.0730  0.0297
  170SOPE   C2919201   6.295   6.460   7.275  0.7418 -0.6608 -0.2629
  170SOPE   H9119202   6.221   6.537   7.250  0.5695 -0.5046  0.6827
  170SOPE  C21019203   6.319   6.437   7.402  1.0012  0.2084  0.5872
  170SOPE  H10119204   6.286   6.507   7.480  0.9406 -0.7767  1.4681
  170SOPE  C21119205   6.411   6.329   7.461  0.3593  0.2939 -0.5143
  170SOPE  H11R19206   6.497   6.324   7.392  1.1779  2.8528  0.1959
  170SOPE  H11S19207   6.353   6.234   7.460 -2.2034  1.7490 -1.6132
  170SOPE  C21219208   6.450   6.343   7.613  0.6036 -0.4625 -0.1797
  170SOPE  H12R19209   6.536   6.413   7.617  0.6577 -0.5532  0.4723
  170SOPE  H12S19210   6.516   6.259   7.645  2.2318  0.6504 -0.4585
  170SOPE  C21319211   6.355   6.404   7.716  0.5287 -0.2266  0.6146
  170SOPE  H13R19212   6.263   6.342   7.712  0.8019 -0.5792 -0.6305
  170SOPE  H13S19213   6.319   6.505   7.686  0.4604  0.2089  2.1008
  170SOPE  C21419214   6.430   6.413   7.850 -0.2172 -0.1637  0.0548
  170SOPE  H14R19215   6.517   6.481   7.844 -2.1184  2.5151  0.6611
  170SOPE  H14S19216   6.457   6.311   7.885 -0.5557 -0.4546 -0.5102
  170SOPE  C21519217   6.347   6.474   7.964  1.0457  0.2622 -0.2441
  170SOPE  H15R19218   6.265   6.405   7.990 -0.4656  2.7052  2.0433
  170SOPE  H15S19219   6.298   6.567   7.927 -2.4610 -1.3210  0.1079
  170SOPE  C21619220   6.425   6.502   8.094  0.3847 -0.2768 -0.0227
  170SOPE  H16R19221   6.506   6.567   8.055  1.2408 -1.7600 -0.8374
  170SOPE  H16S19222   6.479   6.414   8.136  0.4425  0.5728  1.7653
  170SOPE  C21719223   6.354   6.570   8.202  0.2867 -0.0954 -0.0867
  170SOPE  H17R19224   6.292   6.493   8.252  0.8366 -0.1139  0.5749
  170SOPE  H17S19225   6.286   6.645   8.156 -1.0250 -1.2310 -0.0427
  170SOPE  C21819226   6.443   6.638   8.306 -1.1355 -0.4024 -0.3770
  170SOPE  H18R19227   6.386   6.688   8.387  0.1941  1.2789 -0.4217
  170SOPE  H18S19228   6.499   6.721   8.257  0.8119 -0.1034  2.1526
  170SOPE  H18T19229   6.516   6.576   8.362 -0.6691  1.4044  1.0823
  170SOPE   C3319230   6.676   5.913   7.007  0.1915 -0.2223  0.0192
  170SOPE   H3X19231   6.775   5.862   7.007  0.9474  1.2105  0.7083
  170SOPE   H3Y19232   6.604   5.835   7.038  2.4284 -2.0737  0.8884
  170SOPE   C3419233   6.687   6.026   7.107  0.1502 -0.0159 -0.2154
  170SOPE   H4X19234   6.587   6.069   7.127 -0.0311  0.7990 -2.5824
  170SOPE   H4Y19235   6.752   6.104   7.063 -1.5462  2.3376  1.2009
  170SOPE   C3519236   6.747   5.990   7.248 -0.1118 -0.1370 -0.1434
  170SOPE   H5X19237   6.848   5.943   7.248  0.6370  1.4080 -0.5845
  170SOPE   H5Y19238   6.673   5.926   7.301  1.6128 -2.6101 -0.5211
  170SOPE   C3619239   6.764   6.122   7.325  0.2462  1.0877 -0.2629
  170SOPE   H6X19240   6.666   6.174   7.333  0.0238  0.9131 -1.6637
  170SOPE   H6Y19241   6.850   6.172   7.275  0.0463 -0.1470 -1.9259
  170SOPE   C3719242   6.799   6.087   7.470  0.1260 -0.3184 -0.1884
  170SOPE   H7X19243   6.903   6.047   7.473  0.3838  0.3555  2.0961
  170SOPE   H7Y19244   6.729   6.016   7.518 -1.2524  2.1170  1.6740
  170SOPE   C3819245   6.804   6.212   7.567  0.9591  0.0229 -0.1025
  170SOPE   H8X19246   6.715   6.271   7.539  0.7292  0.5126  1.5438
  170SOPE   H8Y19247   6.897   6.265   7.536  1.2167 -0.4765 -0.1947
  170SOPE   C3919248   6.797   6.164   7.709  0.0418 -0.3444 -0.6118
  170SOPE   H9X19249   6.886   6.102   7.737  1.8096  1.9822 -0.8259
  170SOPE   H9Y19250   6.704   6.105   7.724 -0.9160  1.2088 -0.3149
  170SOPE  C31019251   6.796   6.281   7.804  0.0931  0.0767 -0.2401
  170SOPE  H10X19252   6.715   6.350   7.775  0.1222  0.7680  1.2337
  170SOPE  H10Y19253   6.884   6.347   7.790  0.3986 -0.3701 -0.4674
  170SOPE  C31119254   6.751   6.246   7.944 -0.0792 -0.4292 -0.1520
  170SOPE  H11X19255   6.821   6.171   7.986  1.3154  0.5815 -0.5837
  170SOPE  H11Y19256   6.651   6.197   7.947 -0.7984  0.9742 -0.0647
  170SOPE  C31219257   6.762   6.363   8.046 -0.0913 -0.2310 -0.0133
  170SOPE  H12X19258   6.697   6.446   8.010 -0.7510 -0.5547  0.3993
  170SOPE  H12Y19259   6.869   6.392   8.054 -0.0542 -0.0474 -1.0321
  170SOPE  C31319260   6.726   6.326   8.193 -0.1544 -0.4001 -0.5232
  170SOPE  H13X19261   6.629   6.274   8.210  1.2653 -2.9860  0.1673
  170SOPE  H13Y19262   6.725   6.418   8.256 -3.7009 -0.2165 -0.6137
  170SOPE  C31419263   6.828   6.236   8.262 -0.1610 -0.3335  0.3047
  170SOPE  H14X19264   6.933   6.270   8.257 -0.4696  0.4707 -1.9416
  170SOPE  H14Y19265   6.828   6.131   8.224 -0.8034 -0.5618  0.9108
  170SOPE  C31519266   6.802   6.206   8.409  0.7901 -0.2453 -0.1050
  170SOPE  H15X19267   6.693   6.189   8.419  0.9208 -1.8051 -0.9911
  170SOPE  H15Y19268   6.808   6.293   8.479  0.4344 -3.3981  4.2220
  170SOPE  C31619269   6.869   6.082   8.480  0.8077  0.0707 -0.2262
  170SOPE  H16X19270   6.833   5.989   8.430  0.2746 -0.9706  1.9596
  170SOPE  H16Y19271   6.846   6.072   8.588  0.3631 -0.4273 -0.3621
  170SOPE  C31719272   7.015   6.092   8.467 -0.2804  0.2967  0.2475
  170SOPE  H17X19273   7.046   6.192   8.503 -3.0713  2.2232 -2.2417
  170SOPE  H17Y19274   7.042   6.091   8.359 -1.1406  1.5504  0.0037
  170SOPE  C31819275   7.088   5.990   8.544 -0.0507 -0.5349  0.9134
  170SOPE  H18X19276   7.192   5.966   8.511 -0.0729 -0.9825  1.1528
  170SOPE  H18Y19277   7.031   5.895   8.529 -0.9530  0.0087  0.8519
  170SOPE  H18Z19278   7.083   5.995   8.655 -0.3953  0.5850  0.8562
  171SOPE     N19279   1.310   2.028   6.337 -0.1092  0.0237  0.4591
  171SOPE   HN119280   1.293   2.129   6.352  0.6187  0.1438  0.5269
  171SOPE   HN219281   1.241   1.982   6.399 -1.6698  3.5708  1.6107
  171SOPE   HN319282   1.403   2.007   6.379  0.2033  2.6091  1.1829
  171SOPE   C1219283   1.296   2.001   6.188 -0.6034 -0.3187 -0.6818
  171SOPE  H12A19284   1.369   1.919   6.168 -1.2543 -1.0756 -0.0572
  171SOPE  H12B19285   1.341   2.090   6.139  1.4678 -0.4792  0.7601
  171SOPE   C1119286   1.151   1.969   6.150 -0.6333  1.3721 -0.3973
  171SOPE  H11A19287   1.154   1.938   6.043  1.4276  0.6711 -0.1824
  171SOPE  H11B19288   1.093   2.062   6.167  0.8076  2.0727  0.9980
  171SOPE     P19289   0.978   1.864   6.323 -0.2103  0.0588 -0.3769
  171SOPE   O1319290   0.972   1.734   6.398 -0.1637  0.1896 -0.2062
  171SOPE   O1419291   0.857   1.899   6.250  0.0926  0.0456 -0.1461
  171SOPE   O1219292   1.093   1.857   6.213 -0.7925 -0.8321 -0.4021
  171SOPE   O1119293   1.025   1.990   6.416 -0.6936  0.0582  0.2197
  171SOPE    C119294   0.939   2.048   6.512  0.4553  0.0084  0.2134
  171SOPE    HA19295   0.832   2.034   6.487  0.2743  1.3745  0.1397
  171SOPE    HB19296   0.952   2.159   6.511 -1.9467  0.3467  0.5065
  171SOPE    C219297   0.982   1.997   6.654  0.2258 -0.4030  0.4843
  171SOPE    HS19298   0.994   1.887   6.653  0.0314 -0.4494 -1.7043
  171SOPE   O2119299   0.873   2.017   6.751 -0.2628  1.0526  0.7910
  171SOPE   C2119300   0.837   2.138   6.780 -0.0073  0.1422 -0.6169
  171SOPE   O2219301   0.871   2.239   6.722  0.1859 -0.5406 -0.7184
  171SOPE   C2219302   0.731   2.128   6.898 -0.0079 -0.4565 -0.2760
  171SOPE   H2R19303   0.753   2.030   6.944  0.8406 -0.9509 -1.6928
  171SOPE   H2S19304   0.629   2.128   6.854  0.4341  0.6276 -1.3620
  171SOPE    C319305   1.122   2.045   6.694  0.2558 -0.6842  0.1615
  171SOPE    HX19306   1.129   2.149   6.655 -0.7961 -1.4576 -2.2562
  171SOPE    HY19307   1.185   1.974   6.635 -0.5989  0.9629 -2.9961
  171SOPE   O3119308   1.140   2.046   6.834  0.3768  0.1794 -0.3816
  171SOPE   C3119309   1.144   1.926   6.892 -0.3176 -0.4277  0.3247
  171SOPE   O3219310   1.161   1.819   6.836 -0.5077 -0.1759  0.3551
  171SOPE   C3219311   1.157   1.936   7.041  0.3758  0.4981 -0.2685
  171SOPE   H2X19312   1.247   1.997   7.060  0.8686 -0.3357  0.0841
  171SOPE   H2Y19313   1.178   1.836   7.083  1.8395  0.7257 -0.4265
  171SOPE   C2319314   0.735   2.247   7.004  0.5710 -0.3026  0.1235
  171SOPE   H3R19315   0.687   2.339   6.966 -1.4807 -0.9833  0.9434
  171SOPE   H3S19316   0.839   2.279   7.027  1.6465 -1.8900 -2.0645
  171SOPE   C2419317   0.666   2.198   7.138  0.4790  0.2612  0.2981
  171SOPE   H4R19318   0.573   2.148   7.102  1.2718 -1.0039 -0.0686
  171SOPE   H4S19319   0.717   2.110   7.183 -0.6305 -0.7118 -0.2801
  171SOPE   C2519320   0.639   2.306   7.237 -0.5420 -0.4847 -0.4654
  171SOPE   H5R19321   0.739   2.350   7.258 -1.3395  0.7466  0.9635
  171SOPE   H5S19322   0.587   2.396   7.199  0.4653  0.3372  0.0565
  171SOPE   C2619323   0.577   2.271   7.371 -0.5650 -0.4327 -0.4661
  171SOPE   H6R19324   0.475   2.227   7.368  0.2288 -2.6700  2.1249
  171SOPE   H6S19325   0.641   2.193   7.418  1.3771  1.6166  0.4752
  171SOPE   C2719326   0.582   2.387   7.477  0.0442 -0.3717  0.8801
  171SOPE   H7R19327   0.686   2.424   7.478  0.8679 -2.5071 -0.2276
  171SOPE   H7S19328   0.529   2.473   7.431  0.9284 -1.7203 -3.0492
  171SOPE   C2819329   0.517   2.353   7.612 -0.0128 -0.3325 -0.1494
  171SOPE   H8R19330   0.534   2.450   7.662  0.0534 -0.1956 -0.4328
  171SOPE   H8S19331   0.409   2.328   7.603  0.0443 -0.4358 -0.6156
  171SOPE   C2919332   0.597   2.250   7.684  0.8740 -0.3241 -0.5186
  171SOPE   H9119333   0.577   2.146   7.654  1.6440  0.0166 -2.3124
  171SOPE  C21019334   0.698   2.277   7.767  0.4321  0.2742 -1.2061
  171SOPE  H10119335   0.738   2.198   7.833  0.3131  1.2280  0.0263
  171SOPE  C21119336   0.758   2.407   7.801  0.7063 -0.6738 -0.3248
  171SOPE  H11R19337   0.724   2.484   7.729 -3.6154 -0.6301  1.4774
  171SOPE  H11S19338   0.868   2.394   7.791  0.8453 -0.3415  0.6390
  171SOPE  C21219339   0.715   2.469   7.933  0.5301 -0.0781  0.0283
  171SOPE  H12R19340   0.608   2.451   7.957 -0.4556  1.8245 -2.5348
  171SOPE  H12S19341   0.728   2.579   7.928  1.4139 -0.2353 -2.6607
  171SOPE  C21319342   0.805   2.421   8.051 -0.4050 -0.8580 -0.1084
  171SOPE  H13R19343   0.910   2.453   8.032 -1.2281  2.9668  0.8886
  171SOPE  H13S19344   0.803   2.310   8.055  0.1427 -0.8890 -0.4809
  171SOPE  C21419345   0.760   2.499   8.184 -0.6542 -0.7543  0.2680
  171SOPE  H14R19346   0.783   2.602   8.149 -0.4142 -1.1487 -0.7648
  171SOPE  H14S19347   0.836   2.487   8.263  1.9732  1.8034 -1.6762
  171SOPE  C21519348   0.611   2.477   8.216 -0.0091 -0.4258  0.6689
  171SOPE  H15R19349   0.568   2.380   8.180 -1.5459  1.4092 -2.9731
  171SOPE  H15S19350   0.564   2.548   8.144  1.0478  1.4071  1.7332
  171SOPE  C21619351   0.559   2.513   8.360 -0.1119 -0.1874 -0.0029
  171SOPE  H16R19352   0.564   2.622   8.380  1.4137 -0.3330  0.4750
  171SOPE  H16S19353   0.628   2.463   8.430  0.6485  0.9861  0.1122
  171SOPE  C21719354   0.415   2.462   8.394  0.0855 -0.1884 -0.1875
  171SOPE  H17R19355   0.429   2.352   8.391  2.9901  0.1147 -2.2731
  171SOPE  H17S19356   0.339   2.501   8.322  1.4258  1.9094 -0.5623
  171SOPE  C21819357   0.366   2.495   8.528 -0.4170  0.4855  0.3303
  171SOPE  H18R19358   0.276   2.436   8.556  0.5615 -1.1059  0.2478
  171SOPE  H18S19359   0.313   2.592   8.521 -3.2246 -0.9121  0.5379
  171SOPE  H18T19360   0.442   2.489   8.609  0.1305 -1.8985 -0.3018
  171SOPE   C3319361   1.029   2.010   7.098  0.0749 -0.1089  1.1333
  171SOPE   H3X19362   0.940   1.945   7.091 -0.1924  0.3781 -0.2538
  171SOPE   H3Y19363   1.021   2.104   7.040  0.0964 -0.4084  0.6364
  171SOPE   C3419364   1.048   2.063   7.242  0.4138  0.1423  0.4379
  171SOPE   H4X19365   0.976   2.147   7.258  0.0252 -0.2535  0.8245
  171SOPE   H4Y19366   1.142   2.120   7.252  1.3336 -0.6318 -2.8034
  171SOPE   C3519367   1.031   1.955   7.349 -0.1554 -0.5127 -0.5822
  171SOPE   H5X19368   1.104   1.871   7.355 -1.4673 -1.5689  1.8801
  171SOPE   H5Y19369   0.934   1.901   7.351 -1.4459  1.5318 -2.8441
  171SOPE   C3619370   1.029   2.021   7.497 -0.8368 -0.3770 -0.6535
  171SOPE   H6X19371   0.999   1.935   7.561 -1.3229 -0.9930 -1.6941
  171SOPE   H6Y19372   0.946   2.095   7.495 -0.5390  0.0212  0.6807
  171SOPE   C3719373   1.162   2.081   7.548  0.2061  0.5777  0.1115
  171SOPE   H7X19374   1.159   2.191   7.531 -1.5512  0.3415 -1.3525
  171SOPE   H7Y19375   1.240   2.042   7.479 -1.8624 -1.3082 -1.2795
  171SOPE   C3819376   1.189   2.067   7.703 -0.2358  0.2538 -0.5156
  171SOPE   H8X19377   1.290   2.112   7.716 -0.3068  1.1231 -2.5639
  171SOPE   H8Y19378   1.198   1.966   7.748 -0.4418  0.3861 -0.1752
  171SOPE   C3919379   1.087   2.155   7.780 -0.1012  0.5302  0.0042
  171SOPE   H9X19380   0.979   2.129   7.770  0.1271 -0.6541  0.4740
  171SOPE   H9Y19381   1.092   2.260   7.743  0.8890 -0.1279 -1.8098
  171SOPE  C31019382   1.119   2.169   7.932 -1.0757  0.9584 -0.6832
  171SOPE  H10X19383   1.077   2.262   7.976  1.2060  1.9332 -0.4186
  171SOPE  H10Y19384   1.228   2.154   7.950 -0.7481  1.1449 -2.3785
  171SOPE  C31119385   1.049   2.061   8.015  0.0542 -0.3797  1.0246
  171SOPE  H11X19386   1.084   1.962   7.980 -1.0576 -0.7914  1.0420
  171SOPE  H11Y19387   0.939   2.060   7.996  0.4044 -3.4346 -1.6148
  171SOPE  C31219388   1.075   2.062   8.165 -0.3311 -0.0480  0.7842
  171SOPE  H12X19389   1.185   2.071   8.177  0.2455  1.7539 -3.7825
  171SOPE  H12Y19390   1.041   1.962   8.200  1.8302 -0.3627  2.1853
  171SOPE  C31319391   1.006   2.177   8.240 -0.1843 -0.9024 -0.0691
  171SOPE  H13X19392   0.896   2.169   8.232 -0.4129  1.1103  0.4772
  171SOPE  H13Y19393   1.030   2.277   8.200  0.3224 -1.7879 -2.0920
  171SOPE  C31419394   1.062   2.185   8.382  0.1508 -0.0376 -0.6967
  171SOPE  H14X19395   0.998   2.248   8.448 -0.2111 -1.9943  0.8979
  171SOPE  H14Y19396   1.162   2.234   8.381  0.8975 -1.3161  1.6482
  171SOPE  C31519397   1.077   2.048   8.450  0.7723 -0.1581 -0.6502
  171SOPE  H15X19398   1.135   1.967   8.402 -1.0048 -1.6416 -0.3951
  171SOPE  H15Y19399   0.971   2.017   8.455  0.2563  1.4050 -1.1033
  171SOPE  C31619400   1.129   2.070   8.599  0.1405 -0.0085  1.2242
  171SOPE  H16X19401   1.062   2.136   8.658 -0.0463  0.7003  0.2522
  171SOPE  H16Y19402   1.231   2.113   8.597  0.2265 -0.1439 -1.5152
  171SOPE  C31719403   1.129   1.930   8.661  0.0036 -0.6648  0.2891
  171SOPE  H17X19404   1.195   1.859   8.607  0.0869  0.1764 -0.7633
  171SOPE  H17Y19405   1.027   1.886   8.663 -1.0052  1.5769  1.7047
  171SOPE  C31819406   1.172   1.924   8.807 -0.6647 -0.2159  0.2338
  171SOPE  H18X19407   1.098   1.988   8.860 -0.7528  0.4805 -0.7040
  171SOPE  H18Y19408   1.274   1.966   8.812  0.0612 -2.0600  1.9752
  171SOPE  H18Z19409   1.158   1.825   8.855 -0.6667 -0.5467 -0.4380
  172SOPE     N19410   1.520   4.652   6.635  0.8987  0.2881 -0.1099
  172SOPE   HN119411   1.545   4.670   6.734  0.4045 -2.9965  0.7416
  172SOPE   HN219412   1.420   4.678   6.622  0.3981 -0.8335  1.2206
  172SOPE   HN319413   1.509   4.551   6.612  0.0335  0.4747 -0.5555
  172SOPE   C1219414   1.608   4.713   6.527 -0.4817  0.1298 -0.0013
  172SOPE  H12A19415   1.676   4.789   6.570 -0.4378  0.2759 -0.3250
  172SOPE  H12B19416   1.544   4.769   6.455  1.9091  0.6735 -1.8458
  172SOPE   C1119417   1.685   4.610   6.441  0.4519 -0.1410 -0.5584
  172SOPE  H11A19418   1.733   4.661   6.355 -1.9499 -1.3800 -2.7662
  172SOPE  H11B19419   1.624   4.532   6.392 -0.8876  1.2313 -1.1590
  172SOPE     P19420   1.948   4.572   6.492 -0.1504  0.4853  0.4342
  172SOPE   O1319421   1.980   4.685   6.405  0.0083  0.0270  0.0469
  172SOPE   O1419422   2.016   4.445   6.461 -0.0181 -0.6472 -0.2095
  172SOPE   O1219423   1.791   4.548   6.519 -0.1139 -0.7775  0.0919
  172SOPE   O1119424   1.998   4.604   6.637  0.2960 -0.4663 -0.1360
  172SOPE    C119425   1.975   4.731   6.700  0.1353  0.7081 -0.2034
  172SOPE    HA19426   1.908   4.797   6.640  1.5281  1.8116 -0.6055
  172SOPE    HB19427   2.071   4.786   6.706  0.5553 -0.1107  0.7884
  172SOPE    C219428   1.922   4.723   6.843  0.0454 -0.2969  0.3039
  172SOPE    HS19429   1.824   4.673   6.828 -0.2864  0.0821  1.1310
  172SOPE   O2119430   1.914   4.853   6.895  0.6615 -0.1579 -0.0392
  172SOPE   C2119431   1.821   4.882   6.984  0.8414 -0.8446 -0.2105
  172SOPE   O2219432   1.746   4.803   7.042  0.6527 -0.5525 -0.2746
  172SOPE   C2219433   1.812   5.041   6.989  0.3294  0.1922  0.5724
  172SOPE   H2R19434   1.702   5.059   6.995  0.0823 -1.1667  0.5656
  172SOPE   H2S19435   1.840   5.071   6.886 -0.7422  0.4121  0.3270
  172SOPE    C319436   2.006   4.633   6.927 -0.0291 -0.0229  0.5337
  172SOPE    HX19437   2.104   4.681   6.947 -0.6170  1.9002 -0.9434
  172SOPE    HY19438   2.035   4.542   6.869  2.0087 -0.9089  2.7527
  172SOPE   O3119439   1.940   4.601   7.053  0.4834 -0.4946  0.0326
  172SOPE   C3119440   1.869   4.489   7.050 -0.2491 -0.5673  0.9039
  172SOPE   O3219441   1.863   4.417   6.951 -0.4797  0.1982 -0.0986
  172SOPE   C3219442   1.786   4.479   7.181  0.4011  0.2993 -0.0193
  172SOPE   H2X19443   1.703   4.550   7.163 -0.0634  0.2157  1.6524
  172SOPE   H2Y19444   1.846   4.518   7.267  1.3001  0.3854 -0.6641
  172SOPE   C2319445   1.898   5.106   7.100 -0.1274  0.1326 -0.6343
  172SOPE   H3R19446   1.913   5.216   7.094 -0.2387  0.2409  0.7176
  172SOPE   H3S19447   1.999   5.060   7.095  0.3147  1.2001 -2.6834
  172SOPE   C2419448   1.842   5.078   7.246 -0.5218 -0.7496 -0.0749
  172SOPE   H4R19449   1.748   5.134   7.264 -0.7896 -1.5019  0.9710
  172SOPE   H4S19450   1.818   4.972   7.268 -2.7108  0.0426  1.7769
  172SOPE   C2519451   1.946   5.143   7.342 -0.0494  0.0918  0.2194
  172SOPE   H5R19452   2.044   5.144   7.289 -0.4420  2.0476 -0.5522
  172SOPE   H5S19453   1.925   5.250   7.360 -0.4603  0.3351 -1.4866
  172SOPE   C2619454   1.963   5.058   7.468 -0.0316 -0.4649 -0.0575
  172SOPE   H6R19455   1.866   5.063   7.521  0.1666 -1.3156  0.3974
  172SOPE   H6S19456   1.983   4.954   7.433  0.6826 -0.6774  0.9418
  172SOPE   C2719457   2.043   5.123   7.578  0.0593  0.3405  0.8241
  172SOPE   H7R19458   2.138   5.144   7.525 -0.4068  1.2795  0.3460
  172SOPE   H7S19459   2.004   5.223   7.605 -1.7698 -0.8302  2.8980
  172SOPE   C2819460   2.069   5.044   7.706  0.0153 -0.2391  0.3879
  172SOPE   H8R19461   1.971   5.016   7.748  0.8767 -1.5268  1.6095
  172SOPE   H8S19462   2.112   4.949   7.669  0.5545  0.0000  0.3853
  172SOPE   C2919463   2.165   5.104   7.807 -0.4582  0.0529  0.3180
  172SOPE   H9119464   2.213   5.195   7.769  0.6137 -0.1616  1.1210
  172SOPE  C21019465   2.205   5.037   7.915  0.0502  0.7215  0.3682
  172SOPE  H10119466   2.283   5.084   7.976 -0.1603 -0.7729  1.8432
  172SOPE  C21119467   2.159   4.906   7.964  0.1579 -0.6717 -0.4413
  172SOPE  H11R19468   2.244   4.838   7.986  1.6483  1.3309  0.3231
  172SOPE  H11S19469   2.088   4.859   7.893 -0.6154  0.1517 -0.2384
  172SOPE  C21219470   2.079   4.926   8.095 -0.0760 -0.4694 -0.0127
  172SOPE  H12R19471   2.011   4.841   8.120  0.3927 -0.9234 -0.2567
  172SOPE  H12S19472   2.006   5.009   8.089  0.4243 -0.0377 -0.2161
  172SOPE  C21319473   2.158   4.934   8.225  0.9669 -0.1725  1.0885
  172SOPE  H13R19474   2.191   5.038   8.243  1.6158 -0.4157  1.3566
  172SOPE  H13S19475   2.251   4.874   8.219  0.4669 -0.8263 -2.5743
  172SOPE  C21419476   2.083   4.901   8.360  0.3914  0.1622  0.0301
  172SOPE  H14R19477   2.068   4.794   8.387 -0.7874  0.9933  3.1408
  172SOPE  H14S19478   1.984   4.950   8.357 -0.1648 -0.7133  2.1950
  172SOPE  C21519479   2.158   4.956   8.487 -0.4043  0.3212 -0.0013
  172SOPE  H15R19480   2.133   5.062   8.506  1.8462  0.8865  0.0392
  172SOPE  H15S19481   2.268   4.945   8.474 -0.4895 -0.1845 -0.3187
  172SOPE  C21619482   2.124   4.868   8.607  0.1467  0.3584  0.0560
  172SOPE  H16R19483   2.031   4.809   8.592  0.1274 -0.0577  1.6610
  172SOPE  H16S19484   2.105   4.929   8.698  0.1217 -1.9085  1.6403
  172SOPE  C21719485   2.242   4.766   8.631  1.3314 -0.4843  0.0341
  172SOPE  H17R19486   2.329   4.830   8.653  1.2378 -0.3370 -0.0244
  172SOPE  H17S19487   2.264   4.706   8.540 -0.9085 -1.4998  0.0930
  172SOPE  C21819488   2.202   4.677   8.751  0.2331  0.3482 -0.3200
  172SOPE  H18R19489   2.111   4.616   8.733  1.6079 -1.1969 -2.6191
  172SOPE  H18S19490   2.178   4.726   8.848 -0.6205 -2.8885  1.2723
  172SOPE  H18T19491   2.284   4.605   8.772 -2.0632 -2.6663 -1.0033
  172SOPE   C3319492   1.733   4.333   7.199  0.3235  0.7380  0.9078
  172SOPE   H3X19493   1.680   4.304   7.105 -2.7608  0.7222  2.5119
  172SOPE   H3Y19494   1.661   4.333   7.284  0.8668  1.8845  1.3928
  172SOPE   C3419495   1.841   4.234   7.239 -0.2394  0.3199  0.4269
  172SOPE   H4X19496   1.916   4.236   7.157 -0.9850 -0.9788 -0.3147
  172SOPE   H4Y19497   1.800   4.131   7.235 -0.8779  0.6194 -1.6428
  172SOPE   C3519498   1.912   4.255   7.376  0.2167  0.0832  0.1592
  172SOPE   H5X19499   1.831   4.257   7.452 -0.4865  3.6680 -0.5071
  172SOPE   H5Y19500   1.939   4.362   7.383  1.5781 -0.1457 -1.1134
  172SOPE   C3619501   2.031   4.167   7.403  0.9099 -0.1879 -0.1008
  172SOPE   H6X19502   2.105   4.208   7.331  0.9244  0.3430  0.2148
  172SOPE   H6Y19503   2.017   4.058   7.388 -0.4271 -0.6241  3.4131
  172SOPE   C3719504   2.089   4.174   7.544  0.0606 -0.0966 -0.2803
  172SOPE   H7X19505   2.097   4.277   7.585 -3.2908 -0.6375  2.2033
  172SOPE   H7Y19506   2.189   4.125   7.552  0.3994  0.8799  3.2090
  172SOPE   C3819507   1.989   4.100   7.645  0.5677 -0.2809  0.7106
  172SOPE   H8X19508   1.958   4.004   7.599  1.5034 -0.2962  0.0817
  172SOPE   H8Y19509   1.898   4.162   7.656  1.0676  0.4836  0.5778
  172SOPE   C3919510   2.055   4.088   7.776 -0.5048  0.1511  0.4403
  172SOPE   H9X19511   2.097   4.187   7.803 -2.9272  1.1142  0.8572
  172SOPE   H9Y19512   2.139   4.016   7.759 -0.2172  0.9400 -1.8298
  172SOPE  C31019513   1.964   4.041   7.886  0.2795  0.1276  0.7651
  172SOPE  H10X19514   1.904   3.958   7.843 -0.3985  0.3511  1.2757
  172SOPE  H10Y19515   1.894   4.127   7.894 -1.5337 -0.9415 -2.0656
  172SOPE  C31119516   2.041   3.987   8.013  0.7723 -0.1809 -0.5561
  172SOPE  H11X19517   2.113   3.908   7.983  1.5895  1.1711 -2.3610
  172SOPE  H11Y19518   1.977   3.937   8.088 -2.2589  1.1144 -2.1058
  172SOPE  C31219519   2.122   4.101   8.096  0.0715  0.1350 -0.3259
  172SOPE  H12X19520   2.045   4.159   8.150  2.4195  1.9965  1.2370
  172SOPE  H12Y19521   2.180   4.158   8.021 -0.5192  1.0785 -0.0802
  172SOPE  C31319522   2.220   4.046   8.193  0.0312  0.3256  1.1066
  172SOPE  H13X19523   2.267   4.138   8.233  2.8877 -0.7561  0.4991
  172SOPE  H13Y19524   2.299   3.992   8.136 -1.0054  0.2309 -0.3008
  172SOPE  C31419525   2.146   3.971   8.304  0.0742  0.2151 -0.8122
  172SOPE  H14X19526   2.096   3.878   8.269  1.2448 -1.1322  0.9196
  172SOPE  H14Y19527   2.065   4.035   8.345 -2.9487 -2.5884 -1.9428
  172SOPE  C31519528   2.233   3.935   8.424 -0.7724 -0.8028  0.0087
  172SOPE  H15X19529   2.179   3.915   8.520  0.5037  2.1650  1.4932
  172SOPE  H15Y19530   2.297   4.020   8.457 -0.5601 -0.9145 -0.1176
  172SOPE  C31619531   2.333   3.826   8.387 -0.3910  0.3190 -0.2396
  172SOPE  H16X19532   2.406   3.857   8.310 -0.7380  0.9475 -0.3264
  172SOPE  H16Y19533   2.287   3.740   8.333  1.5631  0.4394 -2.2188
  172SOPE  C31719534   2.408   3.767   8.504 -0.3300 -0.8771  0.1007
  172SOPE  H17X19535   2.456   3.674   8.465 -0.1333 -1.4984  1.7373
  172SOPE  H17Y19536   2.340   3.736   8.587 -1.1338 -0.9643 -0.5716
  172SOPE  C31819537   2.525   3.865   8.555 -0.1694  0.4429 -0.2529
  172SOPE  H18X19538   2.481   3.948   8.613 -0.1116 -0.5670  1.2947
  172SOPE  H18Y19539   2.583   3.915   8.474  1.7464 -0.9985  0.1346
  172SOPE  H18Z19540   2.601   3.814   8.618 -0.7245  1.4790  1.3126
  173SAPI   C1219541   6.090   2.108  10.831  0.0028 -0.5755 -0.0426
  173SAPI    H219542   6.194   2.067  10.828 -0.4259 -1.6356 -1.1489
  173SAPI    O219543   5.992   2.012  10.876 -0.8189 -0.2685 -0.2653
  173SAPI   HO219544   5.911   2.028  10.827 -1.5086 -1.2375  0.5164
  173SAPI   C1319545   6.099   2.220  10.935 -0.4878  0.1418 -0.0710
  173SAPI    H319546   6.175   2.293  10.901 -1.1395  0.9093  0.1103
  173SAPI    O319547   6.157   2.168  11.053  0.3371  0.4217 -0.0279
  173SAPI   HO319548   6.091   2.126  11.108  1.1245  1.7132  2.0302
  173SAPI   C1419549   5.971   2.288  10.961 -0.2646  0.6032 -0.1526
  173SAPI    H419550   5.887   2.221  10.987  0.8606 -1.3018 -1.1725
  173SAPI    O419551   5.988   2.394  11.064 -0.1853  0.5231  0.0464
  173SAPI   HO419552   5.924   2.382  11.135  1.4184 -1.8200  1.2441
  173SAPI   C1519553   5.929   2.352  10.827  0.8067  0.1177  0.0007
  173SAPI    H519554   6.008   2.427  10.806  1.3779  0.4711  2.9028
  173SAPI    O519555   5.797   2.412  10.843  0.3633  0.2386 -0.1250
  173SAPI   HO519556   5.726   2.352  10.864  0.5054  0.7606  2.1499
  173SAPI   C1619557   5.924   2.251  10.708 -0.0056  1.0982  0.2759
  173SAPI    H619558   5.851   2.174  10.741 -0.5791  1.1201 -0.8629
  173SAPI    O619559   5.887   2.301  10.579 -0.4937  0.4731 -0.4808
  173SAPI   HO619560   5.950   2.257  10.521 -1.1325 -0.2890 -0.6147
  173SAPI   C1119561   6.053   2.174  10.698 -0.4512  0.1460 -0.3574
  173SAPI    H119562   6.132   2.248  10.673  0.9456 -1.8197 -2.1127
  173SAPI     P19563   6.182   2.021  10.518 -0.3477 -0.0237 -0.0392
  173SAPI   O1319564   6.190   1.872  10.521  0.0535 -0.5999 -0.5466
  173SAPI   O1419565   6.298   2.091  10.572 -0.4318 -0.1798  0.4660
  173SAPI   O1219566   6.046   2.069  10.595 -0.1472  0.4770 -0.2143
  173SAPI   O1119567   6.158   2.071  10.372 -0.0749  0.5573  0.2326
  173SAPI    C119568   6.026   2.068  10.309 -0.1004  0.1939  0.4179
  173SAPI    HA19569   5.949   2.124  10.367 -1.7192 -2.1174  0.6323
  173SAPI    HB19570   6.042   2.119  10.211 -0.1092  0.8518  0.7558
  173SAPI    C219571   5.978   1.926  10.279  0.5359 -0.1228  0.4464
  173SAPI    HS19572   5.945   1.880  10.375 -2.5518  1.3028  0.1832
  173SAPI   O2119573   6.077   1.853  10.210  0.2948  0.1712 -0.1712
  173SAPI   C2119574   6.049   1.721  10.198  0.2176 -0.8872  1.1470
  173SAPI   O2219575   5.962   1.666  10.262 -0.3139  0.3060  0.3655
  173SAPI   C2219576   6.143   1.658  10.097 -0.4967 -0.6304 -0.2678
  173SAPI   H2R19577   6.115   1.687   9.993  1.1572 -0.7369 -0.7760
  173SAPI   H2S19578   6.246   1.699  10.110 -0.6506 -0.8502  1.9981
  173SAPI    C319579   5.850   1.942  10.195  0.0903 -0.4374 -0.1275
  173SAPI    HX19580   5.771   1.964  10.270  0.5887 -0.6383  0.4577
  173SAPI    HY19581   5.806   1.844  10.166  1.0117 -0.9313  0.1153
  173SAPI   O3119582   5.862   2.049  10.094  0.5690  0.0409  0.1767
  173SAPI   C3119583   5.897   2.003   9.973 -1.1419  0.7099 -0.2526
  173SAPI   O3219584   5.939   1.892   9.946  0.8001 -0.1569 -0.3392
  173SAPI   C3219585   5.886   2.120   9.871 -0.1988 -0.6621  0.2170
  173SAPI   H2X19586   5.845   2.208   9.926 -0.0978 -0.6863  0.3314
  173SAPI   H2Y19587   5.809   2.088   9.798 -1.5144 -1.3275  1.8312
  173SAPI   C2319588   6.149   1.505  10.096  1.0048  0.0467  0.0418
  173SAPI   H3R19589   6.052   1.456  10.120  1.0034 -0.1517 -0.3539
  173SAPI   H3S19590   6.218   1.477  10.179  0.3661  0.2519  0.6506
  173SAPI   C2419591   6.199   1.443   9.966 -0.7343  0.1811 -0.3684
  173SAPI   H4R19592   6.242   1.343   9.987  1.5447  1.0273 -0.7126
  173SAPI   H4S19593   6.286   1.510   9.952  1.2794 -1.2838  3.7328
  173SAPI   C2519594   6.094   1.447   9.856  0.0073 -0.2636 -0.3812
  173SAPI   H5R19595   6.004   1.385   9.869 -0.7706  0.9615  0.2321
  173SAPI   C2619596   6.096   1.528   9.752 -0.1239 -0.3833 -0.3562
  173SAPI   H6R19597   6.015   1.520   9.678  0.6003  1.9991 -1.5159
  173SAPI   C2719598   6.187   1.638   9.722  0.4333  0.2626  0.2815
  173SAPI   H7R19599   6.257   1.612   9.639 -1.6534  0.1111 -1.5340
  173SAPI   H7S19600   6.250   1.662   9.810  1.1309  1.2318 -0.4492
  173SAPI   C2819601   6.119   1.757   9.687  0.3569 -0.7608  0.2204
  173SAPI   H8R19602   6.084   1.805   9.780 -0.8097 -0.4851 -0.3426
  173SAPI   C2919603   6.086   1.816   9.571 -0.5102  0.1749  0.5389
  173SAPI   H9R19604   6.035   1.914   9.566  1.2823  1.1265  0.1133
  173SAPI  C21019605   6.126   1.762   9.436  0.2289  0.1145  0.2547
  173SAPI  H10R19606   6.212   1.692   9.445 -0.2928 -1.1525 -3.0150
  173SAPI  H10S19607   6.149   1.838   9.358 -1.3426 -0.5353 -0.9186
  173SAPI  C21119608   6.031   1.663   9.375  0.8250  0.4085  0.3795
  173SAPI  H11R19609   6.021   1.567   9.428 -3.0328 -1.2075 -2.7554
  173SAPI  C21219610   5.954   1.667   9.267 -0.5678  0.5645 -0.0963
  173SAPI  H12R19611   5.890   1.583   9.234 -1.3334  1.1737 -0.1881
  173SAPI  C21319612   5.964   1.782   9.173  0.2682 -0.5550 -0.2154
  173SAPI  H13R19613   5.972   1.878   9.227 -1.2531 -0.8811  0.6417
  173SAPI  H13S19614   5.861   1.786   9.130  1.4306  2.2578 -3.1156
  173SAPI  C21419615   6.068   1.765   9.070  0.1470  0.7094  0.9540
  173SAPI  H14R19616   6.157   1.718   9.114  0.2206  1.3110  1.4595
  173SAPI  C21519617   6.065   1.815   8.943  0.8275  0.0094 -0.1914
  173SAPI  H15R19618   6.145   1.791   8.871  0.4625  0.6937 -0.8438
  173SAPI  C21619619   5.960   1.905   8.884  0.4756 -0.4794 -0.4135
  173SAPI  H16R19620   5.996   2.010   8.882  1.5930 -0.8588 -0.7812
  173SAPI  H16S19621   5.864   1.909   8.940 -1.1001 -1.3082 -2.8401
  173SAPI  C21719622   5.927   1.849   8.741 -0.5386  0.1504 -1.0153
  173SAPI  H17R19623   5.822   1.870   8.713 -1.6843  1.1536  3.2183
  173SAPI  H17S19624   5.943   1.740   8.752 -0.5420  0.0542 -1.9241
  173SAPI  C21819625   6.031   1.904   8.641 -0.1304  1.0026  0.0175
  173SAPI  H18R19626   6.134   1.876   8.672  0.6132 -1.0402 -3.7420
  173SAPI  H18S19627   6.006   2.012   8.647 -3.7556  0.3068 -0.5094
  173SAPI  C21919628   6.016   1.845   8.499  0.3894 -0.5777 -0.4229
  173SAPI  H19R19629   5.994   1.737   8.511 -0.2054 -0.7340 -2.4189
  173SAPI  H19S19630   6.116   1.844   8.450  0.3014  1.2690 -0.7357
  173SAPI  C22019631   5.921   1.930   8.418  0.0918  0.0221 -0.1861
  173SAPI  H20R19632   5.900   1.886   8.318  2.1350 -0.4867 -0.4545
  173SAPI  H20S19633   5.961   2.033   8.404  2.9253 -0.5934  2.1756
  173SAPI  H20T19634   5.823   1.937   8.469  0.3779  2.8768  0.1404
  173SAPI   C3319635   6.017   2.164   9.800 -0.5616 -0.1060  0.3372
  173SAPI   H3X19636   6.054   2.075   9.745  1.2470 -0.9161  2.6815
  173SAPI   H3Y19637   6.091   2.182   9.881  0.6713 -2.9971 -0.0534
  173SAPI   C3419638   6.018   2.291   9.713  0.2376  0.1420  0.3108
  173SAPI   H4X19639   6.117   2.340   9.726  0.9690 -1.4436  1.0315
  173SAPI   H4Y19640   5.947   2.366   9.753 -1.0983 -1.8539  1.8380
  173SAPI   C3519641   5.976   2.271   9.564  0.5482  0.2239  1.3256
  173SAPI   H5X19642   5.866   2.259   9.560  0.4663  1.1823 -0.5081
  173SAPI   H5Y19643   6.013   2.176   9.521  0.1472  0.0590  1.3388
  173SAPI   C3619644   6.034   2.394   9.488  0.7227 -0.6613  0.0354
  173SAPI   H6X19645   6.145   2.393   9.489  0.7420 -0.4756  2.0369
  173SAPI   H6Y19646   6.002   2.493   9.527 -1.5430 -0.5918 -1.7983
  173SAPI   C3719647   5.977   2.396   9.340  0.0238  0.6101  0.7467
  173SAPI   H7X19648   5.873   2.435   9.344 -1.2398 -2.5354  2.3124
  173SAPI   H7Y19649   5.961   2.288   9.319 -3.0385  1.1810 -0.4266
  173SAPI   C3819650   6.076   2.466   9.236 -0.2702  0.0123  0.3693
  173SAPI   H8X19651   6.156   2.391   9.217 -0.9560 -0.3378 -1.4719
  173SAPI   H8Y19652   6.117   2.558   9.283  1.7835  2.2718 -5.0306
  173SAPI   C3919653   6.012   2.500   9.103  0.1599 -0.0970  0.5642
  173SAPI   H9X19654   5.923   2.566   9.117  1.8335  2.3678  0.1539
  173SAPI   H9Y19655   5.973   2.402   9.069 -1.1431  0.3760  0.6119
  173SAPI  C31019656   6.110   2.565   9.003  0.2134  0.2991  0.2051
  173SAPI  H10X19657   6.163   2.649   9.053 -0.3271  0.9508 -0.2987
  173SAPI  H10Y19658   6.059   2.616   8.919 -0.6957  0.4050  0.8046
  173SAPI  C31119659   6.227   2.478   8.947  0.0607  0.6294  0.5785
  173SAPI  H11X19660   6.187   2.384   8.903  0.9960  0.8099 -0.7023
  173SAPI  H11Y19661   6.298   2.456   9.030 -0.5528  0.2547  1.0171
  173SAPI  C31219662   6.313   2.546   8.839  0.7190 -0.0169 -0.3982
  173SAPI  H12X19663   6.414   2.501   8.835  0.4135 -0.7958  0.3467
  173SAPI  H12Y19664   6.328   2.651   8.873  3.8537  0.0405 -1.6605
  173SAPI  C31319665   6.243   2.542   8.704  0.4951  0.3667  0.4861
  173SAPI  H13X19666   6.146   2.597   8.706  0.1479 -0.0995 -1.5349
  173SAPI  H13Y19667   6.236   2.433   8.689  1.2334  0.4361 -0.4021
  173SAPI  C31419668   6.320   2.598   8.574 -0.2790  0.5390  0.0353
  173SAPI  H14X19669   6.265   2.590   8.478 -0.3110  1.6205 -0.0401
  173SAPI  H14Y19670   6.408   2.531   8.561 -1.7887 -1.1351 -2.5147
  173SAPI  C31519671   6.379   2.731   8.607  0.0368 -0.3668 -0.0717
  173SAPI  H15X19672   6.481   2.703   8.641  0.0983 -1.9793 -1.4343
  173SAPI  H15Y19673   6.310   2.783   8.676 -0.6556 -1.3147 -0.0307
  173SAPI  C31619674   6.394   2.812   8.474  0.5524  0.3266 -1.1586
  173SAPI  H16X19675   6.358   2.916   8.491 -0.7227  0.1097 -2.3478
  173SAPI  H16Y19676   6.346   2.769   8.383  0.7375 -0.8235 -0.7258
  173SAPI  C31719677   6.543   2.812   8.439 -0.5956  0.0726 -0.4839
  173SAPI  H17X19678   6.570   2.710   8.405 -0.0955 -0.2084  0.7189
  173SAPI  H17Y19679   6.604   2.827   8.531  2.0159 -2.5327 -1.6183
  173SAPI  C31819680   6.588   2.922   8.345  0.3026  0.5010  0.6155
  173SAPI  H18X19681   6.590   3.017   8.403  1.3795  1.9246 -1.6276
  173SAPI  H18Y19682   6.540   2.926   8.245 -3.7022 -1.6665  2.2317
  173SAPI  H18Z19683   6.694   2.892   8.330  0.5422  0.6441  1.8573
  174SAPI   C1219684   1.529   1.287  11.005 -0.2280  0.4301  0.3531
  174SAPI    H219685   1.550   1.395  10.992  0.6499  0.1943 -0.2664
  174SAPI    O219686   1.598   1.221  10.899 -0.3398  0.2892 -0.2200
  174SAPI   HO219687   1.694   1.219  10.904 -0.2963 -0.4108 -1.0687
  174SAPI   C1319688   1.590   1.245  11.145  0.0491 -0.2553 -1.0263
  174SAPI    H319689   1.530   1.309  11.214 -0.9963 -0.6924 -1.5160
  174SAPI    O319690   1.730   1.277  11.149 -0.0396  0.3739 -0.2084
  174SAPI   HO319691   1.773   1.240  11.072  0.1011  0.3444 -0.1145
  174SAPI   C1419692   1.558   1.098  11.166 -0.7992 -0.6859 -0.1820
  174SAPI    H419693   1.629   1.053  11.092  3.1302  2.5109  1.2550
  174SAPI    O419694   1.602   1.050  11.296 -0.0864 -0.3863  0.1502
  174SAPI   HO419695   1.528   1.073  11.352 -2.0070 -0.4067 -2.2371
  174SAPI   C1519696   1.410   1.062  11.147 -1.4521 -0.6740  0.4450
  174SAPI    H519697   1.354   1.114  11.229 -1.5423  0.9516 -0.6009
  174SAPI    O519698   1.386   0.921  11.162 -0.3150  0.2733  0.4366
  174SAPI   HO519699   1.306   0.910  11.111  0.1500  2.6783 -0.9985
  174SAPI   C1619700   1.354   1.117  11.019 -0.0689  0.0621  0.1416
  174SAPI    H619701   1.390   1.070  10.925 -0.3262  2.8862 -1.4892
  174SAPI    O619702   1.214   1.093  11.018 -0.5066 -0.2316 -0.2713
  174SAPI   HO619703   1.171   1.179  11.015 -0.0466  0.0111  0.0448
  174SAPI   C1119704   1.378   1.261  10.999 -0.0361 -0.2943  0.0673
  174SAPI    H119705   1.338   1.324  11.081 -0.2066 -1.4565  0.8956
  174SAPI     P19706   1.323   1.460  10.831 -0.5226 -0.2307  0.2699
  174SAPI   O1319707   1.336   1.543  10.957 -0.4597  0.0841  0.2839
  174SAPI   O1419708   1.204   1.485  10.749  0.5011 -0.2161  0.2507
  174SAPI   O1219709   1.321   1.294  10.876  0.4027 -0.0170 -0.5217
  174SAPI   O1119710   1.460   1.479  10.757 -0.2553  0.0566  0.1406
  174SAPI    C119711   1.476   1.415  10.626 -0.4368 -0.3408  0.0174
  174SAPI    HA19712   1.447   1.308  10.639  1.0684 -0.8480 -0.5687
  174SAPI    HB19713   1.417   1.473  10.552  0.4346  3.6217  2.1587
  174SAPI    C219714   1.621   1.436  10.577  0.0278 -0.7144 -0.4871
  174SAPI    HS19715   1.686   1.403  10.661  0.7277  0.2621 -0.6343
  174SAPI   O2119716   1.640   1.578  10.556  0.6300 -0.5811  0.9145
  174SAPI   C2119717   1.767   1.616  10.532  0.1968 -0.0849 -0.2018
  174SAPI   O2219718   1.864   1.549  10.562 -0.2016  0.6099  0.5863
  174SAPI   C2219719   1.763   1.759  10.494 -0.1155  0.1575  0.5794
  174SAPI   H2R19720   1.664   1.810  10.489 -0.2572 -0.1129  0.6375
  174SAPI   H2S19721   1.827   1.817  10.565  1.0992 -1.7029  1.0853
  174SAPI    C319722   1.644   1.347  10.459  0.6982 -0.0488 -1.1031
  174SAPI    HX19723   1.632   1.244  10.501  3.5547  0.4459  1.2009
  174SAPI    HY19724   1.747   1.369  10.423  1.2397  0.6947  0.7966
  174SAPI   O3119725   1.532   1.369  10.364  0.0161 -0.4631  0.0294
  174SAPI   C3119726   1.565   1.334  10.240  0.4924  0.2441 -0.2729
  174SAPI   O3219727   1.674   1.300  10.199 -0.8881  0.2692  0.0413
  174SAPI   C3219728   1.441   1.326  10.139  0.3900  0.2753 -0.5777
  174SAPI   H2X19729   1.361   1.397  10.166 -1.1014  0.1627 -4.1138
  174SAPI   H2Y19730   1.399   1.224  10.151 -1.1458  1.0996  1.4528
  174SAPI   C2319731   1.819   1.774  10.348  0.1956 -0.3006  0.3385
  174SAPI   H3R19732   1.928   1.757  10.341  0.2586  0.6436 -2.7765
  174SAPI   H3S19733   1.812   1.885  10.339  1.1450  0.2375  4.3271
  174SAPI   C2419734   1.740   1.709  10.230  0.1934 -0.0545  0.6574
  174SAPI   H4R19735   1.749   1.600  10.244 -1.5864 -0.0722  2.0189
  174SAPI   H4S19736   1.785   1.738  10.133 -1.6707  0.0023 -0.2273
  174SAPI   C2519737   1.592   1.753  10.238 -0.1633 -0.0528 -0.3087
  174SAPI   H5R19738   1.546   1.701  10.323  1.3633 -3.7678 -1.5736
  174SAPI   C2619739   1.512   1.821  10.152 -0.7846 -0.1404 -0.2087
  174SAPI   H6R19740   1.406   1.837  10.175 -0.7577  0.6128 -0.5735
  174SAPI   C2719741   1.559   1.871  10.016  0.0946 -0.1847 -0.0821
  174SAPI   H7R19742   1.652   1.932  10.025 -0.3918  0.6066 -0.3683
  174SAPI   H7S19743   1.494   1.951   9.974  2.1753  2.1594  0.8387
  174SAPI   C2819744   1.574   1.763   9.916 -0.6315  0.4742 -0.2556
  174SAPI   H8R19745   1.578   1.659   9.952  3.0088 -0.5264 -2.9322
  174SAPI   C2919746   1.614   1.779   9.787  0.1273  1.0861  0.1367
  174SAPI   H9R19747   1.656   1.688   9.741  0.5835  0.9655  0.7830
  174SAPI  C21019748   1.666   1.906   9.719  0.3044  0.2139 -0.0308
  174SAPI  H10R19749   1.767   1.891   9.675 -0.1877  0.3465 -1.2713
  174SAPI  H10S19750   1.678   1.989   9.792  0.9875  1.1392 -1.1664
  174SAPI  C21119751   1.574   1.951   9.605  0.2721  0.0142 -0.3091
  174SAPI  H11R19752   1.465   1.950   9.619  0.2218 -0.5132 -0.7067
  174SAPI  C21219753   1.607   1.972   9.476  0.5662  0.3611  0.5352
  174SAPI  H12R19754   1.530   2.005   9.405  0.9034 -2.3096 -1.2341
  174SAPI  C21319755   1.750   1.968   9.415  0.1550 -0.2003  0.7303
  174SAPI  H13R19756   1.820   1.994   9.497 -1.2589  0.3019  1.8230
  174SAPI  H13S19757   1.769   2.059   9.355  2.6627  0.1927  2.0133
  174SAPI  C21419758   1.786   1.850   9.333  0.3368  0.4503  0.4330
  174SAPI  H14R19759   1.840   1.768   9.382 -1.7112 -1.0827  0.2227
  174SAPI  C21519760   1.757   1.829   9.203  0.3678 -0.3457  0.8029
  174SAPI  H15R19761   1.786   1.734   9.156  0.9360 -0.8935  2.1981
  174SAPI  C21619762   1.680   1.924   9.109  0.1987  0.6783  0.3597
  174SAPI  H16R19763   1.665   2.024   9.156  0.8012  0.3289  1.3366
  174SAPI  H16S19764   1.585   1.875   9.078  1.4298 -1.3679 -0.3795
  174SAPI  C21719765   1.746   1.961   8.978 -0.5192  0.1372 -0.2011
  174SAPI  H17R19766   1.772   1.872   8.917 -1.3380 -1.0491  1.1174
  174SAPI  H17S19767   1.843   2.015   8.990 -1.5022  1.6687  1.1296
  174SAPI  C21819768   1.668   2.071   8.897  0.4579 -0.5413 -0.3561
  174SAPI  H18R19769   1.673   2.165   8.956  1.1980 -1.3713  0.9394
  174SAPI  H18S19770   1.559   2.050   8.897  0.6527 -1.6210 -1.0728
  174SAPI  C21919771   1.713   2.111   8.754 -0.0137  0.3231 -0.6754
  174SAPI  H19R19772   1.727   2.016   8.698  0.4656  1.7360 -3.0937
  174SAPI  H19S19773   1.812   2.158   8.771  1.0287 -1.7588 -0.7134
  174SAPI  C22019774   1.622   2.211   8.677 -0.0422 -0.2349  0.1327
  174SAPI  H20R19775   1.513   2.188   8.677 -0.4439  1.3959 -1.2182
  174SAPI  H20S19776   1.653   2.223   8.571  1.3767 -1.5756  0.3593
  174SAPI  H20T19777   1.617   2.305   8.735 -1.7225 -0.7637  0.9305
  174SAPI   C3319778   1.489   1.378   9.995  0.4912  0.7516  0.6814
  174SAPI   H3X19779   1.586   1.339   9.957 -0.3864 -1.9730  0.9988
  174SAPI   H3Y19780   1.489   1.488  10.004  0.3374  0.9709 -1.5390
  174SAPI   C3419781   1.390   1.339   9.886 -0.2858  0.8796 -0.3925
  174SAPI   H4X19782   1.285   1.359   9.918  0.2600  1.4130  1.1475
  174SAPI   H4Y19783   1.394   1.230   9.867 -1.0915  1.2295 -2.9791
  174SAPI   C3519784   1.425   1.406   9.755  0.0407 -0.5026 -0.4398
  174SAPI   H5X19785   1.531   1.387   9.729 -0.0574  2.1776 -3.3514
  174SAPI   H5Y19786   1.416   1.517   9.763 -0.6320 -0.6935  2.7982
  174SAPI   C3619787   1.345   1.355   9.634  0.2338  0.8537 -0.2218
  174SAPI   H6X19788   1.238   1.351   9.664  0.2237 -0.9457 -0.3733
  174SAPI   H6Y19789   1.366   1.248   9.610  2.6029  1.4658 -1.1415
  174SAPI   C3719790   1.367   1.422   9.502 -0.0342  0.2864  0.3538
  174SAPI   H7X19791   1.332   1.527   9.512 -0.0253  0.1909  1.5797
  174SAPI   H7Y19792   1.304   1.365   9.430  0.5527 -0.0725  0.1165
  174SAPI   C3819793   1.504   1.410   9.444  0.0816 -0.4911 -0.4678
  174SAPI   H8X19794   1.548   1.309   9.461  2.3373  0.6863  1.2741
  174SAPI   H8Y19795   1.560   1.481   9.509 -1.7163 -0.4249  1.1089
  174SAPI   C3919796   1.501   1.438   9.295  0.3858  0.3333  0.3780
  174SAPI   H9X19797   1.455   1.537   9.277 -0.6045 -0.2795 -0.5742
  174SAPI   H9Y19798   1.441   1.350   9.260  0.1047  1.4932 -2.2483
  174SAPI  C31019799   1.643   1.434   9.229 -0.2472 -0.7442 -0.4554
  174SAPI  H10X19800   1.675   1.329   9.212 -1.5494 -1.4891  1.4280
  174SAPI  H10Y19801   1.726   1.467   9.296 -2.1356  0.2964  1.4763
  174SAPI  C31119802   1.618   1.513   9.098  0.3974  0.3857 -0.4670
  174SAPI  H11X19803   1.594   1.620   9.120  0.0065  0.2568 -0.2490
  174SAPI  H11Y19804   1.529   1.470   9.048 -0.7069 -1.7929  3.0449
  174SAPI  C31219805   1.738   1.509   9.000 -0.4034 -0.2135 -0.1029
  174SAPI  H12X19806   1.774   1.404   8.994  2.1290  0.6426 -1.3508
  174SAPI  H12Y19807   1.824   1.565   9.041  2.0374 -2.4364 -1.8600
  174SAPI  C31319808   1.706   1.555   8.863 -0.7244  0.2709  0.7736
  174SAPI  H13X19809   1.681   1.662   8.847 -4.1536 -0.3470  1.3160
  174SAPI  H13Y19810   1.617   1.495   8.835 -0.5921 -0.3674  1.6928
  174SAPI  C31419811   1.821   1.528   8.763 -0.3478  0.7732  0.2858
  174SAPI  H14X19812   1.771   1.536   8.664  0.9830  0.0149 -0.4763
  174SAPI  H14Y19813   1.849   1.421   8.773 -0.0716  0.8533  0.3723
  174SAPI  C31519814   1.943   1.617   8.770  0.6344 -0.3555  0.4449
  174SAPI  H15X19815   1.975   1.612   8.876  0.0833 -1.0350  0.5880
  174SAPI  H15Y19816   1.914   1.723   8.749 -0.0077 -0.4030  1.0535
  174SAPI  C31619817   2.056   1.591   8.667 -0.1669  0.7585  0.1384
  174SAPI  H16X19818   2.021   1.639   8.573 -3.0165  1.9626  1.7009
  174SAPI  H16Y19819   2.060   1.481   8.651  2.1056  0.6544  0.9468
  174SAPI  C31719820   2.186   1.665   8.701  0.9240  0.3943 -0.6092
  174SAPI  H17X19821   2.227   1.662   8.804 -0.2092  0.9248 -0.1295
  174SAPI  H17Y19822   2.170   1.772   8.678  0.9416  0.3965 -0.6117
  174SAPI  C31819823   2.299   1.606   8.620  0.1034  0.5735 -0.5829
  174SAPI  H18X19824   2.326   1.507   8.662 -1.7373  0.0052 -0.6274
  174SAPI  H18Y19825   2.393   1.664   8.620  1.0560 -0.9062  0.3336
  174SAPI  H18Z19826   2.263   1.594   8.516 -1.1246 -0.1002 -0.1010
  175SAPI   C1219827   0.771   2.438   5.986  0.4537 -0.7697 -0.1716
  175SAPI    H219828   0.775   2.522   6.058 -1.0890 -1.2920  0.5668
  175SAPI    O219829   0.707   2.489   5.870 -0.7272  0.3873 -0.0110
  175SAPI   HO219830   0.643   2.553   5.903 -0.5034  2.0804 -2.5384
  175SAPI   C1319831   0.905   2.383   5.952  0.4367 -0.8577  0.0114
  175SAPI    H319832   0.958   2.347   6.043  0.7261  1.2341  0.7370
  175SAPI    O319833   0.986   2.486   5.898 -0.4368 -0.2144  0.1538
  175SAPI   HO319834   0.998   2.557   5.962  2.0943 -0.2846 -0.1642
  175SAPI   C1419835   0.890   2.265   5.854  0.5359  0.1769  0.7276
  175SAPI    H419836   0.852   2.306   5.758 -2.1562 -2.2167  0.6247
  175SAPI    O419837   1.013   2.205   5.824  0.0105 -0.3956  0.3525
  175SAPI   HO419838   1.020   2.178   5.732 -0.7028 -0.4802  0.3163
  175SAPI   C1519839   0.796   2.158   5.917  0.2415  0.5906 -0.6457
  175SAPI    H519840   0.852   2.139   6.011 -2.6134  0.2389  1.0690
  175SAPI    O519841   0.781   2.033   5.845 -0.5440 -0.2950  0.1695
  175SAPI   HO519842   0.692   2.027   5.808 -0.1733 -0.7295 -0.6785
  175SAPI   C1619843   0.661   2.211   5.954  0.3921 -0.5109 -0.2593
  175SAPI    H619844   0.608   2.247   5.863  0.5700  1.1890  0.2864
  175SAPI    O619845   0.582   2.122   6.032 -0.0017 -0.0198 -0.7785
  175SAPI   HO619846   0.496   2.164   6.041 -0.2896 -0.2708 -2.0556
  175SAPI   C1119847   0.686   2.329   6.044  0.5160 -0.2822 -0.2093
  175SAPI    H119848   0.747   2.291   6.129  0.0395  1.1216  0.8065
  175SAPI     P19849   0.541   2.450   6.236  0.1080  0.4850  0.2335
  175SAPI   O1319850   0.411   2.521   6.245 -1.0263  0.3722  0.7741
  175SAPI   O1419851   0.663   2.520   6.287 -0.3430  0.0444  0.7657
  175SAPI   O1219852   0.561   2.394   6.082 -0.1294 -0.1579 -0.1382
  175SAPI   O1119853   0.535   2.313   6.312 -0.2034  0.2683  0.2032
  175SAPI    C119854   0.415   2.237   6.313  0.0866  0.3736 -0.0650
  175SAPI    HA19855   0.322   2.294   6.333 -0.8785 -1.6041  1.5368
  175SAPI    HB19856   0.411   2.168   6.226 -1.1676 -3.0389  2.4510
  175SAPI    C219857   0.412   2.143   6.445  0.0462 -0.5481 -0.6022
  175SAPI    HS19858   0.319   2.081   6.438  1.1965 -2.4936  0.4220
  175SAPI   O2119859   0.410   2.228   6.563  0.3096 -0.0799  0.1131
  175SAPI   C2119860   0.345   2.165   6.670 -0.9231 -1.0551 -0.5024
  175SAPI   O2219861   0.288   2.059   6.655  0.9580 -0.0084  0.3926
  175SAPI   C2219862   0.358   2.249   6.801 -0.6067 -0.3717  0.1427
  175SAPI   H2R19863   0.450   2.203   6.843 -1.1539 -1.2781  0.3567
  175SAPI   H2S19864   0.370   2.354   6.764  0.9543 -0.4455  0.3599
  175SAPI    C319865   0.547   2.061   6.450 -0.5627 -0.2087 -0.0019
  175SAPI    HX19866   0.624   2.139   6.465 -0.8087  0.3533 -1.4673
  175SAPI    HY19867   0.572   2.018   6.350 -2.3941 -0.5609 -0.3433
  175SAPI   O3119868   0.543   1.962   6.552 -0.8376 -0.4600  0.4428
  175SAPI   C3119869   0.466   1.856   6.523  0.6517  0.5800 -0.2867
  175SAPI   O3219870   0.399   1.843   6.425  0.6059 -0.1541  0.5197
  175SAPI   C3219871   0.476   1.761   6.641  0.0481  0.1066 -0.1992
  175SAPI   H2X19872   0.401   1.794   6.716 -0.2544 -0.7259 -0.1293
  175SAPI   H2Y19873   0.579   1.775   6.681  0.0735 -0.0944 -0.1953
  175SAPI   C2319874   0.238   2.228   6.898 -0.0213 -0.4567 -0.4675
  175SAPI   H3R19875   0.262   2.152   6.976  0.0970 -0.3244 -0.3732
  175SAPI   H3S19876   0.159   2.184   6.834 -1.0790  1.3188 -0.4419
  175SAPI   C2419877   0.192   2.358   6.953 -0.2349 -0.1086 -0.7497
  175SAPI   H4R19878   0.087   2.355   6.988  0.5554  1.0897  2.0384
  175SAPI   H4S19879   0.182   2.442   6.881 -0.9234 -0.4040 -1.0044
  175SAPI   C2519880   0.272   2.406   7.076 -0.6321  0.3834 -0.9564
  175SAPI   H5R19881   0.363   2.459   7.046  0.8661 -1.0867  0.7394
  175SAPI   C2619882   0.252   2.357   7.201 -0.0746  0.8028  0.5198
  175SAPI   H6R19883   0.307   2.402   7.285 -0.1530 -0.3574  1.1981
  175SAPI   C2719884   0.152   2.250   7.240 -0.0395  0.0728  0.0513
  175SAPI   H7R19885   0.203   2.177   7.306 -0.3698  0.0220  0.2562
  175SAPI   H7S19886   0.123   2.182   7.157 -0.5511 -1.0840  1.1413
  175SAPI   C2819887   0.031   2.308   7.306  0.2564  0.1673  0.6384
  175SAPI   H8R19888  -0.054   2.341   7.245 -0.5234  2.6966  2.8780
  175SAPI   C2919889   0.016   2.340   7.436  0.4608  0.1278 -0.1886
  175SAPI   H9R19890  -0.079   2.376   7.479  1.2364  1.4431  0.4826
  175SAPI  C21019891   0.118   2.332   7.547  0.8533 -0.0155  0.3237
  175SAPI  H10R19892   0.085   2.400   7.629 -0.3385  2.2403 -1.8718
  175SAPI  H10S19893   0.207   2.387   7.509  0.5735 -0.4659 -1.0464
  175SAPI  C21119894   0.149   2.187   7.591 -0.7620 -0.7446  0.0468
  175SAPI  H11R19895   0.209   2.130   7.518 -0.0412  2.3171 -1.9469
  175SAPI  C21219896   0.097   2.132   7.703 -0.1549 -0.1025  0.4170
  175SAPI  H12R19897   0.120   2.028   7.730 -1.0643 -1.0032 -2.0062
  175SAPI  C21319898   0.008   2.201   7.803 -0.4505 -0.0904 -0.2506
  175SAPI  H13R19899  -0.060   2.119   7.837 -0.2390 -0.1901 -0.0627
  175SAPI  H13S19900  -0.063   2.272   7.756 -0.1096  0.0698 -0.5197
  175SAPI  C21419901   0.086   2.258   7.917 -0.0927  0.0904 -1.0550
  175SAPI  H14R19902   0.166   2.195   7.958 -0.5667 -0.4875 -0.9993
  175SAPI  C21519903   0.054   2.367   7.982  0.4241 -0.5137 -1.3707
  175SAPI  H15R19904   0.116   2.409   8.062 -2.3029  0.3523  0.4267
  175SAPI  C21619905  -0.069   2.454   7.949  0.1908  1.2825  0.3807
  175SAPI  H16R19906  -0.148   2.440   8.026 -1.2900  1.9918 -0.9524
  175SAPI  H16S19907  -0.117   2.435   7.851 -1.7431 -0.9163  1.6373
  175SAPI  C21719908  -0.030   2.601   7.933  1.2741  0.5448 -0.1741
  175SAPI  H17R19909   0.040   2.610   7.848  0.6592  1.2325 -0.6163
  175SAPI  H17S19910   0.015   2.655   8.019 -0.8980  1.3750  0.5060
  175SAPI  C21819911  -0.149   2.687   7.896 -0.2228 -0.1332 -0.5530
  175SAPI  H18R19912  -0.227   2.661   7.970  1.5230 -1.1042  1.0390
  175SAPI  H18S19913  -0.186   2.665   7.793 -0.5868 -0.7837 -0.2917
  175SAPI  C21919914  -0.126   2.836   7.910 -0.6645  0.1301 -0.6583
  175SAPI  H19R19915  -0.053   2.844   7.993 -0.9599 -0.7787 -0.2975
  175SAPI  H19S19916  -0.225   2.874   7.944 -0.4860  1.1388 -1.2316
  175SAPI  C22019917  -0.083   2.896   7.777  0.7895  0.2867 -0.6552
  175SAPI  H20R19918  -0.076   3.006   7.790 -3.5100  0.9230 -1.9054
  175SAPI  H20S19919  -0.161   2.878   7.699 -0.7833  1.8722  0.4920
  175SAPI  H20T19920   0.012   2.851   7.742  0.6799 -0.0833 -0.4895
  175SAPI   C3319921   0.445   1.606   6.617 -0.1015  0.3658  0.6781
  175SAPI   H3X19922   0.503   1.553   6.537 -2.4528 -2.7099  0.8146
  175SAPI   H3Y19923   0.343   1.587   6.576  0.4989  0.7308 -1.0982
  175SAPI   C3419924   0.481   1.531   6.745  0.2868  0.0715 -0.3395
  175SAPI   H4X19925   0.424   1.582   6.826  1.2540  1.9399 -0.7716
  175SAPI   H4Y19926   0.589   1.535   6.771  0.8257 -0.4400 -2.2996
  175SAPI   C3519927   0.448   1.384   6.736 -0.2333  0.5846  0.1920
  175SAPI   H5X19928   0.508   1.335   6.656  0.5537 -1.3852  1.9276
  175SAPI   H5Y19929   0.345   1.372   6.694  1.0571 -0.9836 -2.8492
  175SAPI   C3619930   0.473   1.303   6.863  0.3492  0.5076  0.1671
  175SAPI   H6X19931   0.579   1.323   6.888  0.1529  1.1155  0.5126
  175SAPI   H6Y19932   0.463   1.196   6.833  1.9077  0.3317  0.1920
  175SAPI   C3719933   0.374   1.332   6.969  0.0987  0.1761 -0.2101
  175SAPI   H7X19934   0.276   1.304   6.924  1.5155  0.3102 -3.6963
  175SAPI   H7Y19935   0.389   1.439   6.994  3.1435 -0.0257 -0.7771
  175SAPI   C3819936   0.392   1.260   7.099  0.1822 -0.4225 -0.1034
  175SAPI   H8X19937   0.499   1.266   7.128  0.4554  2.3969 -1.3707
  175SAPI   H8Y19938   0.350   1.158   7.091 -0.3646 -0.2338  0.2850
  175SAPI   C3919939   0.306   1.341   7.200  0.4813 -0.5516 -0.4177
  175SAPI   H9X19940   0.201   1.335   7.164 -0.0646  1.1391  0.7484
  175SAPI   H9Y19941   0.338   1.447   7.195 -1.4227  0.0351 -1.4171
  175SAPI  C31019942   0.317   1.287   7.343  0.3119 -0.4340  0.4790
  175SAPI  H10X19943   0.418   1.321   7.376  2.3710 -3.2267 -2.2498
  175SAPI  H10Y19944   0.316   1.176   7.340  0.6667 -0.4348 -1.6593
  175SAPI  C31119945   0.219   1.349   7.435 -0.1642 -0.6739  1.0330
  175SAPI  H11X19946   0.118   1.344   7.388  0.3323 -0.2420 -0.1218
  175SAPI  H11Y19947   0.234   1.459   7.438  1.9041 -0.6036 -3.2902
  175SAPI  C31219948   0.223   1.281   7.572 -0.1958 -0.3088 -0.5048
  175SAPI  H12X19949   0.196   1.175   7.554 -1.9372 -0.1630  0.9602
  175SAPI  H12Y19950   0.146   1.333   7.633 -0.9733 -3.5379  1.5215
  175SAPI  C31319951   0.352   1.301   7.645 -0.0336  0.1747  0.3532
  175SAPI  H13X19952   0.387   1.406   7.646  2.3283 -0.4262 -2.7752
  175SAPI  H13Y19953   0.434   1.245   7.594  1.4952  1.1786  1.5999
  175SAPI  C31419954   0.356   1.252   7.790 -0.3670  0.7235  0.1626
  175SAPI  H14X19955   0.393   1.147   7.784  2.0760  1.6159 -2.6915
  175SAPI  H14Y19956   0.250   1.253   7.822 -0.4281  0.6220 -0.0371
  175SAPI  C31519957   0.447   1.341   7.881 -0.2231 -1.0150 -0.1070
  175SAPI  H15X19958   0.388   1.432   7.903 -0.6301 -1.7851  2.3204
  175SAPI  H15Y19959   0.540   1.383   7.839 -0.4149 -1.1520 -0.6859
  175SAPI  C31619960   0.474   1.278   8.016  0.0215  0.5488  0.2571
  175SAPI  H16X19961   0.512   1.353   8.089  0.5383 -0.0880  0.6538
  175SAPI  H16Y19962   0.555   1.203   8.001  0.4295  1.0053  0.1715
  175SAPI  C31719963   0.351   1.209   8.080 -0.5675 -0.5793 -0.3094
  175SAPI  H17X19964   0.302   1.141   8.007 -0.0016 -0.5255 -0.7516
  175SAPI  H17Y19965   0.279   1.291   8.098  0.0487 -0.0860 -0.0596
  175SAPI  C31819966   0.388   1.142   8.210  0.3309  0.3947 -0.3948
  175SAPI  H18X19967   0.465   1.069   8.178  1.5863  1.4972  0.0392
  175SAPI  H18Y19968   0.297   1.091   8.246  0.5421 -0.0580 -0.4977
  175SAPI  H18Z19969   0.427   1.205   8.293 -0.2474  0.5446 -0.2332
  176SAPI   C1219970   1.369   6.661   6.322 -0.5363 -0.2617 -0.5313
  176SAPI    H219971   1.318   6.692   6.416  0.9979 -0.6629  0.4640
  176SAPI    O219972   1.492   6.594   6.351  0.4672 -0.0099 -0.1001
  176SAPI   HO219973   1.557   6.660   6.377  0.1789  0.2421 -0.0082
  176SAPI   C1319974   1.277   6.569   6.250 -0.2644 -0.6417  0.9682
  176SAPI    H319975   1.185   6.627   6.227  1.8028  2.4332 -0.1597
  176SAPI    O319976   1.249   6.456   6.333  0.2757 -0.2419 -0.4028
  176SAPI   HO319977   1.335   6.420   6.353 -0.1043 -0.5651  0.7165
  176SAPI   C1419978   1.343   6.519   6.124  0.1027  0.2454  0.8460
  176SAPI    H419979   1.444   6.482   6.150  0.0244 -0.9064 -0.3506
  176SAPI    O419980   1.271   6.410   6.066  0.9129 -0.2164 -0.5009
  176SAPI   HO419981   1.320   6.329   6.081  0.4004 -0.1422  1.9024
  176SAPI   C1519982   1.356   6.646   6.027  0.1048 -0.0528  0.3964
  176SAPI    H519983   1.254   6.691   6.026 -0.0705 -0.3892 -1.7108
  176SAPI    O519984   1.399   6.608   5.901 -0.4796  0.2792  1.1256
  176SAPI   HO519985   1.359   6.522   5.886  0.0571  0.3298 -1.0467
  176SAPI   C1619986   1.451   6.741   6.109 -0.4939  0.4037  1.0784
  176SAPI    H619987   1.545   6.683   6.124 -0.7521 -0.6108 -0.8853
  176SAPI    O619988   1.481   6.852   6.023 -0.0069 -0.8367  0.0015
  176SAPI   HO619989   1.407   6.913   6.020  1.5921  1.1759 -1.7249
  176SAPI   C1119990   1.398   6.784   6.242 -0.4160  0.4835 -0.0792
  176SAPI    H119991   1.302   6.836   6.220 -0.3960  0.0375 -1.2694
  176SAPI     P19992   1.473   7.022   6.359  0.2352 -0.1562 -0.3513
  176SAPI   O1319993   1.376   7.098   6.272 -0.0667 -0.2668 -0.0830
  176SAPI   O1419994   1.606   7.090   6.377 -0.0113 -0.2474  0.0522
  176SAPI   O1219995   1.490   6.866   6.307  0.6216 -0.5080  0.3002
  176SAPI   O1119996   1.412   7.003   6.504 -0.3527 -0.4385  0.0726
  176SAPI    C119997   1.475   6.914   6.599  0.0725 -0.3914  0.3900
  176SAPI    HA19998   1.505   6.814   6.563  0.5291 -0.5435  1.1664
  176SAPI    HB19999   1.568   6.955   6.644 -0.6388  0.3617  1.2250
  176SAPI    C220000   1.385   6.895   6.724 -0.8210  0.7618 -0.1058
  176SAPI    HS20001   1.461   6.875   6.803 -0.8208  0.8945 -0.0727
  176SAPI   O2120002   1.291   6.786   6.709 -0.9247 -0.1563  0.2131
  176SAPI   C2120003   1.339   6.674   6.724  0.1478  0.1172 -0.5529
  176SAPI   O2220004   1.457   6.642   6.734  0.3622 -0.2080  0.2063
  176SAPI   C2220005   1.218   6.568   6.722  0.4517 -0.4621 -0.7517
  176SAPI   H2R20006   1.140   6.643   6.747  1.7802  1.8362 -3.0361
  176SAPI   H2S20007   1.192   6.534   6.620 -2.8077  3.3555 -1.4163
  176SAPI    C320008   1.297   7.021   6.758 -0.1207  0.5756  0.0654
  176SAPI    HX20009   1.229   7.058   6.677  0.6138  1.8997  0.0317
  176SAPI    HY20010   1.383   7.091   6.753 -0.4254  1.0561  1.2405
  176SAPI   O3120011   1.241   7.007   6.886 -0.3440 -0.3452 -0.5655
  176SAPI   C3120012   1.108   7.015   6.900  0.4404  0.1147 -0.5174
  176SAPI   O3220013   1.027   7.040   6.818 -0.4749 -0.0865 -0.1681
  176SAPI   C3220014   1.078   6.974   7.042  0.3277 -1.1726 -0.7713
  176SAPI   H2X20015   1.141   6.891   7.080  0.4658 -0.6067  0.2732
  176SAPI   H2Y20016   0.973   6.941   7.058 -0.1278  1.0997  1.6074
  176SAPI   C2320017   1.236   6.446   6.817  0.6079  0.5656 -0.0968
  176SAPI   H3R20018   1.329   6.393   6.785  0.4928  0.1760  0.2030
  176SAPI   H3S20019   1.162   6.366   6.795  1.0810  0.5962 -1.9593
  176SAPI   C2420020   1.239   6.484   6.968  0.0623 -0.0374  0.3500
  176SAPI   H4R20021   1.138   6.513   7.002 -0.0143  1.0942 -0.7703
  176SAPI   H4S20022   1.304   6.570   6.992  1.5233 -0.2979 -2.2339
  176SAPI   C2520023   1.281   6.362   7.050 -0.2449 -0.1694 -0.0196
  176SAPI   H5R20024   1.205   6.285   7.068  0.2374 -0.1242  2.4589
  176SAPI   C2620025   1.399   6.339   7.102 -0.1415  0.3903  0.0224
  176SAPI   H6R20026   1.409   6.238   7.146 -0.7714  0.2512 -0.1353
  176SAPI   C2720027   1.518   6.440   7.095  0.1975 -0.4313 -0.2791
  176SAPI   H7R20028   1.484   6.528   7.154 -0.2966 -0.7892 -0.0150
  176SAPI   H7S20029   1.525   6.474   6.990  2.7090 -2.1442 -0.7511
  176SAPI   C2820030   1.651   6.403   7.139 -0.0947  0.0887  1.2904
  176SAPI   H8R20031   1.725   6.402   7.058  1.4166  5.8694  2.1397
  176SAPI   C2920032   1.694   6.370   7.262 -0.1820  0.4549 -0.0085
  176SAPI   H9R20033   1.802   6.350   7.270 -0.1890 -0.3055 -1.4169
  176SAPI  C21020034   1.612   6.364   7.396 -0.1154  0.6198  0.1660
  176SAPI  H10R20035   1.516   6.413   7.371 -1.1571 -1.5045 -0.1919
  176SAPI  H10S20036   1.658   6.425   7.477 -0.5192 -0.4507  1.2267
  176SAPI  C21120037   1.582   6.221   7.437 -0.3222 -0.2287 -0.5336
  176SAPI  H11R20038   1.605   6.142   7.365 -0.1618 -2.2293  1.5804
  176SAPI  C21220039   1.532   6.180   7.561 -0.6270 -0.6198 -0.1832
  176SAPI  H12R20040   1.530   6.072   7.584  1.0452 -0.3100  1.7088
  176SAPI  C21320041   1.497   6.269   7.677  0.3741  0.1013  0.1220
  176SAPI  H13R20042   1.406   6.328   7.654  1.2924  1.5461  0.0605
  176SAPI  H13S20043   1.573   6.350   7.677 -0.6175  1.0529 -1.0868
  176SAPI  C21420044   1.491   6.185   7.809  0.9659  0.1415  0.4967
  176SAPI  H14R20045   1.400   6.124   7.817 -1.0359  2.8179 -0.2843
  176SAPI  C21520046   1.588   6.178   7.904  0.0473 -0.1436 -0.7567
  176SAPI  H15R20047   1.570   6.128   8.001  1.4530  0.6268 -0.0763
  176SAPI  C21620048   1.710   6.264   7.888  0.3070  0.1802 -0.6130
  176SAPI  H16R20049   1.737   6.282   7.781 -0.7559  1.0210 -0.7591
  176SAPI  H16S20050   1.793   6.206   7.935  0.5824 -0.2743 -1.6269
  176SAPI  C21720051   1.689   6.385   7.968 -0.0803 -0.0218 -0.6226
  176SAPI  H17R20052   1.585   6.422   7.953 -1.2662 -2.5395  0.7728
  176SAPI  H17S20053   1.754   6.469   7.935 -1.7758  0.6383 -2.4984
  176SAPI  C21820054   1.709   6.375   8.119 -0.0278  0.4614  0.1874
  176SAPI  H18R20055   1.811   6.333   8.133  0.6999  2.7947  2.7945
  176SAPI  H18S20056   1.632   6.317   8.175  1.1933 -1.3220  0.1219
  176SAPI  C21920057   1.725   6.516   8.193 -0.3772  0.0068  0.4704
  176SAPI  H19R20058   1.627   6.569   8.188 -1.0926 -1.2313  0.9570
  176SAPI  H19S20059   1.797   6.583   8.141 -0.1275  1.3029  2.3710
  176SAPI  C22020060   1.772   6.503   8.337  0.4742  0.5681 -0.0477
  176SAPI  H20R20061   1.726   6.414   8.387 -0.6541 -0.9500 -3.4455
  176SAPI  H20S20062   1.744   6.596   8.390  0.8880  0.1297  0.9719
  176SAPI  H20T20063   1.882   6.496   8.335  0.4960  0.9721 -0.5679
  176SAPI   C3320064   1.081   7.107   7.129 -0.2645 -0.0109 -0.3934
  176SAPI   H3X20065   0.999   7.099   7.204 -1.0553 -1.8580 -1.3933
  176SAPI   H3Y20066   1.067   7.199   7.067  1.6244 -0.6326 -1.8345
  176SAPI   C3420067   1.210   7.123   7.207 -0.4619 -0.2800  0.4730
  176SAPI   H4X20068   1.278   7.161   7.128 -1.2062 -0.7206 -0.3975
  176SAPI   H4Y20069   1.244   7.021   7.236  0.1860 -0.5213 -1.0254
  176SAPI   C3520070   1.204   7.231   7.317  0.3636 -0.3829  0.6055
  176SAPI   H5X20071   1.117   7.299   7.306 -0.0093 -0.7745  1.0581
  176SAPI   H5Y20072   1.294   7.294   7.303  0.1764 -0.1138  0.5964
  176SAPI   C3620073   1.194   7.165   7.452 -0.9162 -0.5288 -0.1888
  176SAPI   H6X20074   1.292   7.112   7.461 -1.0034 -0.4238  1.7655
  176SAPI   H6Y20075   1.109   7.094   7.456 -3.3041  2.1090 -1.3436
  176SAPI   C3720076   1.181   7.274   7.559  0.4141  0.7597  0.2422
  176SAPI   H7X20077   1.089   7.335   7.545  1.5100  2.2328 -1.0303
  176SAPI   H7Y20078   1.263   7.347   7.540  0.0389  1.7204  2.0827
  176SAPI   C3820079   1.174   7.233   7.702 -0.4147 -0.5766 -0.2674
  176SAPI   H8X20080   1.271   7.196   7.740 -1.4703 -1.6851  1.4883
  176SAPI   H8Y20081   1.094   7.157   7.715 -2.6657  1.6926 -0.0082
  176SAPI   C3920082   1.164   7.361   7.787  0.1649 -0.0449 -0.1494
  176SAPI   H9X20083   1.069   7.414   7.765  0.9362  1.4269 -0.0220
  176SAPI   H9Y20084   1.249   7.429   7.763  2.0167 -1.6764  1.3817
  176SAPI  C31020085   1.174   7.319   7.936  0.2263  0.1343  0.0776
  176SAPI  H10X20086   1.269   7.264   7.955  0.0384 -0.0387  0.5360
  176SAPI  H10Y20087   1.092   7.259   7.983 -0.2190  1.3199  0.8623
  176SAPI  C31120088   1.174   7.440   8.017  0.0229  0.2325 -0.9030
  176SAPI  H11X20089   1.199   7.525   7.950  0.7836  0.7528  0.0152
  176SAPI  H11Y20090   1.255   7.434   8.093 -2.9918 -0.1240  2.5487
  176SAPI  C31220091   1.043   7.475   8.092  0.3097  0.3699 -0.4543
  176SAPI  H12X20092   1.025   7.396   8.168  3.7558  0.5646  0.7109
  176SAPI  H12Y20093   0.966   7.481   8.012  0.7920  2.3340 -0.8429
  176SAPI  C31320094   1.040   7.610   8.165  0.4837 -0.5136 -0.0313
  176SAPI  H13X20095   1.125   7.642   8.229 -0.0193 -1.1155  0.9547
  176SAPI  H13Y20096   0.956   7.610   8.238 -0.4240  0.4779 -1.0203
  176SAPI  C31420097   1.009   7.725   8.067 -0.4038  0.1534 -0.4641
  176SAPI  H14X20098   0.916   7.704   8.010 -0.5721  2.1395 -1.0123
  176SAPI  H14Y20099   1.096   7.727   7.997  0.7831 -2.0619  0.8462
  176SAPI  C31520100   1.002   7.859   8.140 -0.0902  0.0837  0.1499
  176SAPI  H15X20101   1.084   7.923   8.102 -0.3004  0.2327 -0.0603
  176SAPI  H15Y20102   1.014   7.853   8.250 -2.5147  2.0167  0.6248
  176SAPI  C31620103   0.873   7.940   8.108 -0.3255 -0.0730  0.0815
  176SAPI  H16X20104   0.792   7.878   8.152  0.5513  0.5533  2.8261
  176SAPI  H16Y20105   0.843   7.934   8.002  0.3489 -0.8539 -0.0778
  176SAPI  C31720106   0.866   8.076   8.163  0.1491  0.8308  0.0374
  176SAPI  H17X20107   0.787   8.132   8.109 -1.0108 -0.3651  0.4498
  176SAPI  H17Y20108   0.971   8.112   8.152  1.5759 -2.9014 -0.0422
  176SAPI  C31820109   0.824   8.086   8.316  0.1516 -0.3879  0.1023
  176SAPI  H18X20110   0.892   8.028   8.383 -1.3536  1.0573  3.0783
  176SAPI  H18Y20111   0.721   8.058   8.346  0.0365 -1.3279 -1.0971
  176SAPI  H18Z20112   0.839   8.196   8.322 -1.6808  0.1311 -2.8226
  177SLPC     N20113   2.003   1.529  10.889 -0.4204 -0.2156 -0.3418
  177SLPC   C1320114   2.058   1.446  11.006  0.8873 -0.2800  0.9112
  177SLPC  H13A20115   2.018   1.467  11.104 -0.0170 -2.5683  1.0863
  177SLPC  H13B20116   2.049   1.340  10.987  1.7135 -0.0763 -0.8349
  177SLPC  H13C20117   2.163   1.461  11.028  0.5708 -0.2349  2.4554
  177SLPC   C1420118   2.042   1.674  10.917 -0.0974  0.4458  0.3241
  177SLPC  H14A20119   2.004   1.699  11.015 -1.1793  2.6837 -0.6130
  177SLPC  H14B20120   2.148   1.690  10.923  0.1204 -0.3890 -0.8092
  177SLPC  H14C20121   2.004   1.740  10.840  0.2105  1.3404  0.9311
  177SLPC   C1520122   1.853   1.520  10.898  0.6682 -0.0331 -0.3349
  177SLPC  H15A20123   1.798   1.589  10.836  2.1299 -0.2804 -1.9898
  177SLPC  H15B20124   1.827   1.418  10.873 -1.9996  0.8354 -1.4119
  177SLPC  H15C20125   1.817   1.538  10.999  0.2997 -1.0846 -0.2634
  177SLPC   C1220126   2.065   1.486  10.756 -0.5279 -0.8185 -0.3274
  177SLPC  H12A20127   2.171   1.484  10.778 -0.4902 -1.6540 -0.5876
  177SLPC  H12B20128   2.049   1.564  10.682 -1.3742  1.4061  2.0476
  177SLPC   C1120129   2.030   1.341  10.703 -0.1798  0.1096 -0.8488
  177SLPC  H11A20130   2.060   1.335  10.596 -0.2876 -1.8346 -0.8125
  177SLPC  H11B20131   1.920   1.352  10.696 -0.2393  2.3376  1.7212
  177SLPC     P20132   1.974   1.132  10.844 -0.1658 -0.5783  0.3035
  177SLPC   O1320133   2.051   1.019  10.900  0.2301  0.2733 -0.2740
  177SLPC   O1420134   1.864   1.191  10.920  0.8016 -0.6636 -1.1216
  177SLPC   O1220135   2.078   1.240  10.792 -0.6261  0.1188 -0.3689
  177SLPC   O1120136   1.915   1.082  10.701  0.2518 -0.0603  0.0810
  177SLPC    C120137   2.007   1.008  10.615 -0.1699 -0.5088 -0.4524
  177SLPC    HA20138   2.110   1.049  10.618  0.2829 -1.6544  1.6088
  177SLPC    HB20139   2.016   0.900  10.641  2.5302  0.2985  2.7137
  177SLPC    C220140   1.972   1.005  10.465 -0.2881  0.1080 -0.3144
  177SLPC    HS20141   2.043   0.951  10.399  0.1841  0.7103 -0.3156
  177SLPC   O2120142   1.959   1.139  10.416  0.6060 -0.2556 -0.1677
  177SLPC   C2120143   2.070   1.197  10.379  0.2220 -0.7231 -1.2976
  177SLPC   O2220144   2.182   1.158  10.402 -0.0612  0.8661  0.4162
  177SLPC   C2220145   2.028   1.313  10.288  0.2412  0.3060  0.0510
  177SLPC   H2R20146   1.952   1.281  10.213  2.5276 -1.5616 -1.6305
  177SLPC   H2S20147   1.982   1.390  10.353 -1.0946 -1.1562  0.9154
  177SLPC    C320148   1.841   0.931  10.445 -0.8816  0.2015 -0.5595
  177SLPC    HX20149   1.752   0.991  10.473 -1.6333 -1.3844  0.6153
  177SLPC    HY20150   1.850   0.833  10.498 -0.4382  0.6627  0.2326
  177SLPC   O3120151   1.829   0.900  10.306 -0.5229  0.4610 -0.5030
  177SLPC   C3120152   1.716   0.848  10.261 -0.1677 -0.4953 -0.2737
  177SLPC   O3220153   1.620   0.819  10.334  0.3019  0.3883 -0.8153
  177SLPC   C3220154   1.727   0.829  10.106 -0.3554 -1.1014  0.1363
  177SLPC   H2X20155   1.789   0.740  10.082 -0.0096  0.0008 -3.8239
  177SLPC   H2Y20156   1.769   0.921  10.058  1.2135 -0.2760  2.8283
  177SLPC   C2320157   2.144   1.372  10.204  0.1620 -0.1566 -0.4911
  177SLPC   H3R20158   2.224   1.394  10.278 -0.6658 -0.5198  0.5341
  177SLPC   H3S20159   2.119   1.463  10.146 -1.5207 -1.5494 -2.0695
  177SLPC   C2420160   2.199   1.269  10.105 -0.2159  0.7623  0.1841
  177SLPC   H4R20161   2.112   1.235  10.045 -0.5962 -1.5202  1.9101
  177SLPC   H4S20162   2.246   1.182  10.156 -1.1006  0.2316  0.1157
  177SLPC   C2520163   2.308   1.332  10.014  0.2079 -0.0343  0.4517
  177SLPC   H5R20164   2.392   1.374  10.072 -1.1436  1.5897  1.2990
  177SLPC   H5S20165   2.266   1.408   9.944  1.3973 -1.1775 -1.6289
  177SLPC   C2620166   2.362   1.227   9.910  0.1282 -0.4996 -0.3175
  177SLPC   H6R20167   2.286   1.157   9.871 -0.7102  0.5343 -0.5798
  177SLPC   H6S20168   2.438   1.168   9.966 -0.4819 -3.3923 -2.3394
  177SLPC   C2720169   2.440   1.294   9.793  0.2720 -0.2366  0.7872
  177SLPC   H7R20170   2.510   1.216   9.755 -1.3052 -0.3580 -2.0939
  177SLPC   H7S20171   2.501   1.379   9.832  0.4391 -0.6203  1.3842
  177SLPC   C2820172   2.348   1.341   9.672 -0.9798 -0.6298 -0.5439
  177SLPC   H8R20173   2.276   1.413   9.717 -2.5309 -2.1038 -0.5573
  177SLPC   H8S20174   2.284   1.255   9.642  0.9355 -3.0880  1.9651
  177SLPC   C2920175   2.407   1.401   9.550 -0.3577  0.3973  0.3611
  177SLPC   H9R20176   2.491   1.337   9.522 -0.8088  0.1073 -0.3425
  177SLPC  C21020177   2.375   1.511   9.479 -0.1996  0.2486 -0.6518
  177SLPC  H10R20178   2.442   1.537   9.397  2.1488 -1.0528  0.7504
  177SLPC  C21120179   2.272   1.619   9.511 -0.1451  0.0089  0.2916
  177SLPC  H11R20180   2.179   1.589   9.458 -1.1232  3.0582  0.0496
  177SLPC  H11S20181   2.240   1.633   9.616 -1.1629 -2.2193  0.3391
  177SLPC  C21220182   2.308   1.758   9.456 -0.5062  0.0949  0.1748
  177SLPC  H12R20183   2.350   1.823   9.535  0.2527  0.1126 -0.2366
  177SLPC  C21320184   2.276   1.806   9.338 -0.2473  0.1006  0.2548
  177SLPC  H13R20185   2.307   1.908   9.310  0.3496 -0.0775  0.2442
  177SLPC  C21420186   2.210   1.727   9.229  0.2125  0.4237  0.0914
  177SLPC  H14R20187   2.101   1.717   9.247  0.2034  0.4233  0.0349
  177SLPC  H14S20188   2.250   1.623   9.223 -2.1119 -0.5202 -0.1732
  177SLPC  C21520189   2.236   1.780   9.092  0.8619  0.4120  0.6931
  177SLPC  H15R20190   2.190   1.715   9.015 -0.4689  1.0987  0.8875
  177SLPC  H15S20191   2.344   1.761   9.073  0.6660 -1.2536  1.0711
  177SLPC  C21620192   2.178   1.927   9.070  0.1820  0.1197 -0.3418
  177SLPC  H16R20193   2.213   2.002   9.144  1.0031 -0.6321  0.0418
  177SLPC  H16S20194   2.067   1.924   9.075  0.0776 -2.8355 -2.0073
  177SLPC  C21720195   2.209   1.983   8.927  0.0541  0.4711 -0.1337
  177SLPC  H17R20196   2.208   1.895   8.859  1.9245  0.6724 -0.4774
  177SLPC  H17S20197   2.307   2.035   8.923 -0.1483  1.0430  1.5436
  177SLPC  C21820198   2.091   2.073   8.883 -0.8480  0.4342 -0.3363
  177SLPC  H18R20199   2.121   2.146   8.804 -3.1369 -0.0609 -1.7550
  177SLPC  H18S20200   2.055   2.146   8.958 -1.1244  0.6378 -0.6635
  177SLPC  H18T20201   2.011   2.013   8.836 -1.0936 -0.5873  1.3342
  177SLPC   C3320202   1.588   0.802  10.040 -0.3605 -0.1499  0.9049
  177SLPC   H3X20203   1.521   0.889  10.052  1.2394  1.2028  0.5007
  177SLPC   H3Y20204   1.539   0.707  10.069 -1.5891 -0.1667 -1.0736
  177SLPC   C3420205   1.598   0.780   9.889 -0.2087  0.3469 -0.1092
  177SLPC   H4X20206   1.513   0.722   9.847 -0.3844  1.0635 -0.7587
  177SLPC   H4Y20207   1.693   0.726   9.868 -0.3805 -0.3581  0.8263
  177SLPC   C3520208   1.611   0.902   9.806  0.1739  0.1054  0.0159
  177SLPC   H5X20209   1.698   0.953   9.851 -0.8670  0.1417  2.1104
  177SLPC   H5Y20210   1.527   0.974   9.818  1.8859  2.2731 -0.3347
  177SLPC   C3620211   1.618   0.873   9.662 -0.5901 -0.0298 -0.0088
  177SLPC   H6X20212   1.536   0.802   9.639  1.3169 -2.3941  0.1554
  177SLPC   H6Y20213   1.715   0.828   9.630 -0.6362 -0.2716  0.1949
  177SLPC   C3720214   1.578   0.996   9.578 -0.7446  0.6032  0.0588
  177SLPC   H7X20215   1.660   1.069   9.595  0.5350 -0.5654 -0.9368
  177SLPC   H7Y20216   1.480   1.038   9.610 -0.1738  1.8360  0.2320
  177SLPC   C3820217   1.554   0.949   9.433  0.0326  0.0751  1.0087
  177SLPC   H8X20218   1.443   0.951   9.425  0.0923 -1.4754 -0.7293
  177SLPC   H8Y20219   1.593   0.847   9.412 -0.9222  0.1602 -1.4924
  177SLPC   C3920220   1.612   1.034   9.313 -0.3077  0.6003  0.0095
  177SLPC   H9X20221   1.721   1.017   9.316 -0.1813  0.9566 -1.6987
  177SLPC   H9Y20222   1.579   1.140   9.320  0.8508  1.2256 -2.8290
  177SLPC  C31020223   1.558   0.980   9.177  0.4220  0.2211 -0.5435
  177SLPC  H10X20224   1.455   0.943   9.193  0.7014 -0.0127  0.7795
  177SLPC  H10Y20225   1.622   0.893   9.149  0.9293  1.2251 -2.7282
  177SLPC  C31120226   1.554   1.090   9.064 -1.2024  0.4333  0.7660
  177SLPC  H11X20227   1.663   1.108   9.048 -1.1629 -1.0048 -0.8531
  177SLPC  H11Y20228   1.509   1.182   9.106 -2.4104  0.3597 -0.3231
  177SLPC  C31220229   1.474   1.045   8.941  0.4598 -0.0001 -0.0414
  177SLPC  H12X20230   1.367   1.033   8.967  0.8875 -1.6227  1.1164
  177SLPC  H12Y20231   1.489   0.939   8.914 -1.0760 -0.3881  0.5584
  177SLPC  C31320232   1.508   1.124   8.815 -0.0245 -0.7667 -0.2454
  177SLPC  H13X20233   1.486   1.232   8.830 -0.1135 -0.9262  0.8531
  177SLPC  H13Y20234   1.439   1.093   8.733  0.2102  1.5808 -1.4115
  177SLPC  C31420235   1.654   1.129   8.779  0.2360  0.5623 -0.1591
  177SLPC  H14X20236   1.700   1.034   8.815 -0.8152  0.2496  0.4105
  177SLPC  H14Y20237   1.697   1.224   8.816  0.3844  1.1314 -1.7142
  177SLPC  C31520238   1.672   1.139   8.628  0.4913 -0.1970 -0.3349
  177SLPC  H15X20239   1.629   1.049   8.579  3.7122 -1.5037 -0.9808
  177SLPC  H15Y20240   1.781   1.147   8.610  0.9566 -0.8315  1.9134
  177SLPC  C31620241   1.618   1.271   8.564 -0.0535 -0.5125 -0.1220
  177SLPC  H16X20242   1.646   1.365   8.617 -1.2857  1.3396 -2.5592
  177SLPC  H16Y20243   1.507   1.273   8.558  0.0133  1.5308 -2.6980
  177SLPC  C31720244   1.663   1.271   8.425 -0.3578  0.3488  0.4497
  177SLPC  H17X20245   1.620   1.188   8.364 -0.4756 -1.5252  2.9546
  177SLPC  H17Y20246   1.773   1.261   8.428 -0.3377  0.6818  0.8120
  177SLPC  C31820247   1.628   1.404   8.363 -0.2883 -0.1539  0.7732
  177SLPC  H18X20248   1.517   1.418   8.364 -0.2167  0.4612  1.1396
  177SLPC  H18Y20249   1.671   1.400   8.261  0.9348 -2.9364  1.3214
  177SLPC  H18Z20250   1.663   1.500   8.406 -0.2483  0.2737 -0.1774
  178SLPC     N20251   4.417   6.167  11.244 -0.2233  0.1695  0.1157
  178SLPC   C1320252   4.562   6.192  11.234 -0.0995  0.7992  0.0005
  178SLPC  H13A20253   4.609   6.206  11.330  1.1842  1.1087 -0.6562
  178SLPC  H13B20254   4.606   6.110  11.181  2.1227  0.2929  2.4377
  178SLPC  H13C20255   4.590   6.287  11.191  1.9841 -0.2370 -1.0259
  178SLPC   C1420256   4.366   6.256  11.354  0.7730 -0.2350  0.3583
  178SLPC  H14A20257   4.352   6.357  11.318  0.2094 -0.2877  0.4130
  178SLPC  H14B20258   4.265   6.228  11.382  0.0014  0.8748 -1.1558
  178SLPC  H14C20259   4.431   6.254  11.439  1.0778 -2.7761  0.1469
  178SLPC   C1520260   4.400   6.031  11.288  0.1490  0.8968 -0.7301
  178SLPC  H15A20261   4.442   6.022  11.387  0.0027  2.9687 -0.4439
  178SLPC  H15B20262   4.295   6.009  11.303  0.0301  1.3350 -0.9116
  178SLPC  H15C20263   4.450   5.963  11.221  0.6387  0.2493  0.2611
  178SLPC   C1220264   4.343   6.195  11.113 -0.3304 -0.1138 -0.3056
  178SLPC  H12A20265   4.375   6.285  11.062 -3.0474 -0.4188 -2.8400
  178SLPC  H12B20266   4.235   6.188  11.120 -0.4387 -1.3642 -2.3212
  178SLPC   C1120267   4.376   6.092  11.002 -0.1420 -0.1337  0.1883
  178SLPC  H11A20268   4.486   6.078  11.011 -0.0419  0.1979 -0.4452
  178SLPC  H11B20269   4.349   6.142  10.907  0.2900 -0.6607 -0.2234
  178SLPC     P20270   4.163   5.938  10.992 -0.5028  0.0655  0.1723
  178SLPC   O1320271   4.142   5.796  11.017  0.0180  0.0636  0.5806
  178SLPC   O1420272   4.082   6.035  11.075 -0.5604  0.2373 -1.0116
  178SLPC   O1220273   4.315   5.964  11.017  0.0419 -0.1491 -0.2765
  178SLPC   O1120274   4.145   5.972  10.844 -0.1256 -0.5957 -0.0899
  178SLPC    C120275   4.212   5.910  10.736  0.1758  0.0533 -0.0787
  178SLPC    HA20276   4.323   5.920  10.740  0.1680  0.2224 -0.2735
  178SLPC    HB20277   4.199   5.800  10.726 -0.0704  0.1071 -0.3745
  178SLPC    C220278   4.163   5.974  10.602 -0.3769  0.4277  0.9061
  178SLPC    HS20279   4.212   6.073  10.605  2.3933 -0.8033 -0.1411
  178SLPC   O2120280   4.022   5.967  10.592 -0.2107 -0.3067  0.8259
  178SLPC   C2120281   3.971   6.064  10.520  0.0504  0.2123 -0.4895
  178SLPC   O2220282   4.036   6.161  10.483  0.1436  0.2355 -0.3979
  178SLPC   C2220283   3.821   6.051  10.486 -0.4138  0.7756  0.1673
  178SLPC   H2R20284   3.809   5.949  10.444 -0.1871  0.6970  0.2870
  178SLPC   H2S20285   3.756   6.060  10.576 -1.7180 -0.6038 -0.5998
  178SLPC    C320286   4.229   5.898  10.482  0.2266 -0.8005 -0.1237
  178SLPC    HX20287   4.203   5.791  10.482 -1.7482 -0.3452 -0.0231
  178SLPC    HY20288   4.339   5.896  10.500  0.4965 -0.8992 -1.6592
  178SLPC   O3120289   4.189   5.957  10.356 -0.4249 -0.5884 -0.6401
  178SLPC   C3120290   4.252   6.061  10.305 -0.2674 -0.0760  0.4411
  178SLPC   O3220291   4.344   6.121  10.364 -0.9129 -0.0100 -0.1683
  178SLPC   C3220292   4.203   6.087  10.164  0.1936  0.1718  0.2617
  178SLPC   H2X20293   4.133   6.173  10.176  0.9311  1.4825 -3.5062
  178SLPC   H2Y20294   4.151   6.001  10.118  0.6377 -0.1694  0.3972
  178SLPC   C2320295   3.778   6.150  10.374 -0.3152 -0.3894 -0.9701
  178SLPC   H3R20296   3.826   6.249  10.389 -0.7026 -0.2194 -0.8436
  178SLPC   H3S20297   3.673   6.175  10.399  0.2091  1.4312 -0.4293
  178SLPC   C2420298   3.784   6.098  10.231  0.0764  0.4267  0.8448
  178SLPC   H4R20299   3.710   6.015  10.219 -1.5405  1.9043  0.1312
  178SLPC   H4S20300   3.885   6.054  10.219 -1.0569 -2.2113  0.1477
  178SLPC   C2520301   3.744   6.191  10.117 -0.2202 -0.3121 -0.4461
  178SLPC   H5R20302   3.815   6.276  10.121 -2.7391  1.8611  2.1644
  178SLPC   H5S20303   3.644   6.234  10.139 -1.1558 -2.0913 -0.9847
  178SLPC   C2620304   3.740   6.125   9.975 -0.1302 -0.3140 -0.8945
  178SLPC   H6R20305   3.634   6.101   9.951 -1.4019  1.7561  1.9439
  178SLPC   H6S20306   3.816   6.045   9.969  1.1130  0.6919  0.5391
  178SLPC   C2720307   3.785   6.230   9.870  0.8591  0.6985 -0.6091
  178SLPC   H7R20308   3.893   6.233   9.895  0.6519 -0.4097  0.5367
  178SLPC   H7S20309   3.739   6.329   9.886  0.6343  0.4805  0.1492
  178SLPC   C2820310   3.755   6.172   9.727 -0.2080 -0.4462 -0.3104
  178SLPC   H8R20311   3.645   6.159   9.721 -0.2506  0.5964 -2.5866
  178SLPC   H8S20312   3.792   6.067   9.723 -2.3680 -1.3362  1.1754
  178SLPC   C2920313   3.803   6.259   9.620  0.2037 -0.4292  0.4795
  178SLPC   H9R20314   3.912   6.276   9.621 -0.1252  2.3103 -0.7272
  178SLPC  C21020315   3.731   6.328   9.527  0.6744  0.5127  0.3273
  178SLPC  H10R20316   3.781   6.385   9.447 -0.4294 -0.4965 -1.1117
  178SLPC  C21120317   3.581   6.331   9.509  0.1298  0.3338 -0.1766
  178SLPC  H11R20318   3.529   6.330   9.607  2.3708  0.9586  1.0700
  178SLPC  H11S20319   3.537   6.242   9.458  1.1044 -0.3980  0.2376
  178SLPC  C21220320   3.553   6.452   9.430  0.1018 -0.1815 -0.5347
  178SLPC  H12R20321   3.557   6.538   9.500  1.4545 -0.2483 -0.5158
  178SLPC  C21320322   3.521   6.463   9.299  0.2762 -0.1907  0.4289
  178SLPC  H13R20323   3.518   6.568   9.265 -2.9456 -0.3300  0.0089
  178SLPC  C21420324   3.500   6.362   9.190  0.2840 -0.1978 -0.7845
  178SLPC  H14R20325   3.466   6.418   9.100  3.8931  1.8107 -1.1352
  178SLPC  H14S20326   3.425   6.284   9.211  1.4820 -1.5470 -1.3060
  178SLPC  C21520327   3.626   6.283   9.166  0.4493 -0.5209 -0.2945
  178SLPC  H15R20328   3.672   6.232   9.254 -1.2524  0.9582  1.5591
  178SLPC  H15S20329   3.708   6.349   9.129 -0.6617  0.7075 -0.6282
  178SLPC  C21620330   3.600   6.185   9.055 -0.6716 -0.2925  0.2892
  178SLPC  H16R20331   3.528   6.104   9.080  0.2251 -1.2104 -0.0214
  178SLPC  H16S20332   3.703   6.143   9.050 -1.1514 -1.4156 -1.0437
  178SLPC  C21720333   3.571   6.243   8.918 -0.0690 -0.2451 -0.9142
  178SLPC  H17R20334   3.641   6.330   8.910  0.5599 -0.5008  1.2521
  178SLPC  H17S20335   3.469   6.288   8.914  0.0751  0.2658  0.7739
  178SLPC  C21820336   3.575   6.138   8.803  0.2689 -0.7940  0.0895
  178SLPC  H18R20337   3.487   6.070   8.815 -0.8769  0.0955 -2.5945
  178SLPC  H18S20338   3.675   6.092   8.817  0.4863  0.1166  1.8035
  178SLPC  H18T20339   3.574   6.182   8.701  3.5600 -1.4818 -0.3572
  178SLPC   C3320340   4.310   6.160  10.073 -0.1671  0.2414  0.7620
  178SLPC   H3X20341   4.404   6.101  10.070  0.9844  2.0308 -0.1766
  178SLPC   H3Y20342   4.351   6.250  10.124  2.4467  0.7460 -1.9524
  178SLPC   C3420343   4.261   6.209   9.932  0.0461 -0.6414 -0.2378
  178SLPC   H4X20344   4.210   6.308   9.930  0.7760 -0.2515  0.0759
  178SLPC   H4Y20345   4.180   6.137   9.907  0.8793 -1.7608  0.2220
  178SLPC   C3520346   4.374   6.205   9.824  0.9114  0.3237 -0.3077
  178SLPC   H5X20347   4.413   6.102   9.834  0.8777  0.1264 -1.9999
  178SLPC   H5Y20348   4.456   6.275   9.852 -0.2449  1.6220 -0.0249
  178SLPC   C3620349   4.324   6.215   9.676 -0.2216 -0.8326 -0.1612
  178SLPC   H6X20350   4.217   6.187   9.666 -0.4072  0.1839 -1.1274
  178SLPC   H6Y20351   4.382   6.154   9.603  2.6388  2.0056 -0.4563
  178SLPC   C3720352   4.333   6.367   9.645 -0.4298 -1.1194 -0.4666
  178SLPC   H7X20353   4.437   6.403   9.658 -0.3806 -0.9326 -1.3485
  178SLPC   H7Y20354   4.267   6.426   9.713  1.8723  1.7399 -0.4880
  178SLPC   C3820355   4.292   6.417   9.504  0.5176 -0.1563 -0.7917
  178SLPC   H8X20356   4.351   6.354   9.434 -0.2874 -0.3445 -1.3179
  178SLPC   H8Y20357   4.317   6.525   9.492 -1.0121  0.4192  0.8485
  178SLPC   C3920358   4.136   6.414   9.480  0.1521 -0.9844 -0.8897
  178SLPC   H9X20359   4.096   6.491   9.548  3.3263 -0.2367  0.2959
  178SLPC   H9Y20360   4.100   6.317   9.520 -1.8349  0.5070  1.2015
  178SLPC  C31020361   4.080   6.456   9.346 -0.0634  0.0665  1.0103
  178SLPC  H10X20362   3.970   6.445   9.337  0.1561 -2.2830  0.4726
  178SLPC  H10Y20363   4.122   6.390   9.267 -1.1581  1.2821 -0.6663
  178SLPC  C31120364   4.117   6.595   9.293  0.0181 -0.1047  0.2180
  178SLPC  H11X20365   4.227   6.612   9.300 -0.2232  1.9814 -0.3997
  178SLPC  H11Y20366   4.068   6.680   9.345 -1.2839 -0.8504  0.2348
  178SLPC  C31220367   4.070   6.611   9.143  0.0865 -0.3769 -0.2181
  178SLPC  H12X20368   3.959   6.611   9.135  0.1215  2.5301 -2.0894
  178SLPC  H12Y20369   4.102   6.520   9.086 -2.9292 -1.5317 -0.2570
  178SLPC  C31320370   4.113   6.741   9.081 -0.2703 -0.2731  0.2548
  178SLPC  H13X20371   4.223   6.757   9.088 -0.0264  0.6819 -3.6480
  178SLPC  H13Y20372   4.065   6.823   9.137  1.1171 -0.6843  2.1934
  178SLPC  C31420373   4.078   6.761   8.930 -0.2225 -0.5483 -0.1054
  178SLPC  H14X20374   4.135   6.855   8.911 -1.4200 -0.2564 -2.5619
  178SLPC  H14Y20375   3.970   6.781   8.918  0.1556  0.6639 -1.8036
  178SLPC  C31520376   4.119   6.644   8.840  0.2798 -0.2093  0.6174
  178SLPC  H15X20377   4.214   6.598   8.872  0.6575  0.6924  0.8412
  178SLPC  H15Y20378   4.033   6.574   8.851 -1.2709  1.6263  0.9221
  178SLPC  C31620379   4.139   6.691   8.695 -0.4914 -0.4887  0.1945
  178SLPC  H16X20380   4.224   6.762   8.693  2.1048 -3.3799 -3.0079
  178SLPC  H16Y20381   4.046   6.736   8.653  0.6915  2.5959  0.5788
  178SLPC  C31720382   4.186   6.583   8.593 -0.1224 -0.6947  0.4398
  178SLPC  H17X20383   4.179   6.624   8.490  0.4514 -3.0379 -0.6061
  178SLPC  H17Y20384   4.119   6.495   8.603  0.2618 -0.7331  4.2514
  178SLPC  C31820385   4.331   6.525   8.621 -0.0988  0.5042 -0.2803
  178SLPC  H18X20386   4.416   6.591   8.594  0.6792 -0.6993 -0.8820
  178SLPC  H18Y20387   4.356   6.429   8.570  3.4260  1.0009  0.2393
  178SLPC  H18Z20388   4.340   6.506   8.730 -2.2089 -1.4456 -0.3735
  179SLPC     N20389   4.416   2.712  10.563  0.3041  0.5416 -0.9034
  179SLPC   C1320390   4.312   2.822  10.573 -0.6865  0.0180 -0.3766
  179SLPC  H13A20391   4.212   2.785  10.593 -0.4093 -1.5387 -1.7242
  179SLPC  H13B20392   4.327   2.883  10.661  0.0582  0.8641 -1.0761
  179SLPC  H13C20393   4.315   2.887  10.487  2.5319  0.7927  0.1828
  179SLPC   C1420394   4.412   2.644  10.702 -1.2587  0.2207 -0.6757
  179SLPC  H14A20395   4.313   2.643  10.744 -0.4115 -0.5156  1.4203
  179SLPC  H14B20396   4.444   2.541  10.695  0.1214  0.5440  0.4461
  179SLPC  H14C20397   4.489   2.678  10.769 -1.1143  0.4487 -0.9565
  179SLPC   C1520398   4.552   2.764  10.548  0.4553  0.0003  0.6780
  179SLPC  H15A20399   4.578   2.848  10.611  1.7828  0.5185 -0.5191
  179SLPC  H15B20400   4.628   2.688  10.556  0.2955 -0.3469 -0.8098
  179SLPC  H15C20401   4.558   2.811  10.451 -2.5321  3.7253  2.0455
  179SLPC   C1220402   4.386   2.609  10.453  0.3730 -0.1999 -0.4262
  179SLPC  H12A20403   4.370   2.665  10.362 -0.2094  2.2799  1.0956
  179SLPC  H12B20404   4.286   2.571  10.470  0.2933 -1.9530 -3.9686
  179SLPC   C1120405   4.488   2.486  10.429  0.1062 -0.0066  0.1672
  179SLPC  H11A20406   4.586   2.537  10.417 -0.9317  1.8390 -0.7916
  179SLPC  H11B20407   4.460   2.437  10.334  1.9691 -1.6257  0.3874
  179SLPC     P20408   4.378   2.295  10.556 -0.0302 -0.5345 -0.0111
  179SLPC   O1320409   4.387   2.233  10.691  0.6420 -1.1507 -0.5968
  179SLPC   O1420410   4.246   2.357  10.522 -0.2605 -0.1940 -0.1807
  179SLPC   O1220411   4.489   2.393  10.540 -0.7307 -0.3325 -0.0121
  179SLPC   O1120412   4.427   2.183  10.450  0.3689 -0.6241 -0.4652
  179SLPC    C120413   4.322   2.110  10.375  0.0415 -0.0639 -0.2327
  179SLPC    HA20414   4.359   2.005  10.366 -0.0604 -0.2950  1.6854
  179SLPC    HB20415   4.231   2.095  10.436  0.7263  0.2045  0.8962
  179SLPC    C220416   4.295   2.169  10.238  0.2184 -0.0600 -0.6216
  179SLPC    HS20417   4.236   2.093  10.182  0.0399 -0.6266  0.3050
  179SLPC   O2120418   4.406   2.220  10.170  0.6099 -0.1305  0.1306
  179SLPC   C2120419   4.488   2.125  10.108  0.1428  0.4547  0.0551
  179SLPC   O2220420   4.467   2.005  10.116 -0.0537  0.0288  0.1465
  179SLPC   C2220421   4.600   2.195  10.046 -0.0822  0.0111 -0.2528
  179SLPC   H2R20422   4.628   2.298  10.074  2.8067 -0.9501  0.7041
  179SLPC   H2S20423   4.692   2.138  10.073 -0.6947 -1.3748 -0.9824
  179SLPC    C320424   4.197   2.289  10.238  0.0333 -0.0615 -0.1144
  179SLPC    HX20425   4.247   2.386  10.254  1.5357 -0.6565 -0.9819
  179SLPC    HY20426   4.128   2.267  10.323 -0.9187  1.3417 -0.4951
  179SLPC   O3120427   4.118   2.297  10.111 -0.3750 -0.1937  0.3376
  179SLPC   C3120428   4.029   2.394  10.121 -0.4440 -0.5503  0.2533
  179SLPC   O3220429   4.021   2.470  10.216  0.5169  0.6598  0.4899
  179SLPC   C3220430   3.925   2.365  10.016  0.9927 -0.5734 -0.0933
  179SLPC   H2X20431   3.856   2.452  10.011  0.2569 -1.1083  0.6218
  179SLPC   H2Y20432   3.864   2.283  10.058 -0.4672  1.3201  1.6947
  179SLPC   C2320433   4.603   2.183   9.894  0.9829 -0.6856  0.3765
  179SLPC   H3R20434   4.505   2.218   9.856 -0.4448 -1.6420  2.9304
  179SLPC   H3S20435   4.620   2.080   9.857  1.1128 -0.2122 -0.9281
  179SLPC   C2420436   4.703   2.275   9.831  0.0330  0.3321 -0.1768
  179SLPC   H4R20437   4.808   2.263   9.865  0.2134  1.2242 -0.3975
  179SLPC   H4S20438   4.673   2.376   9.867 -2.8624 -0.9930  1.4936
  179SLPC   C2520439   4.686   2.278   9.674  0.3145 -0.0211  0.5620
  179SLPC   H5R20440   4.756   2.358   9.641  1.0351 -1.8733 -2.8287
  179SLPC   H5S20441   4.583   2.304   9.642  0.7373 -0.0308 -0.8578
  179SLPC   C2620442   4.729   2.144   9.605  0.0191  0.4066  0.2895
  179SLPC   H6R20443   4.647   2.074   9.630  0.2023 -0.3050 -1.0213
  179SLPC   H6S20444   4.824   2.102   9.645  2.3860  3.4785 -1.6385
  179SLPC   C2720445   4.743   2.170   9.457  0.2088 -0.2702 -0.6338
  179SLPC   H7R20446   4.808   2.091   9.412 -0.7987 -1.5410  0.0973
  179SLPC   H7S20447   4.807   2.261   9.452 -0.8965  0.4936 -1.3988
  179SLPC   C2820448   4.617   2.160   9.375  0.1077 -0.7017  0.6459
  179SLPC   H8R20449   4.526   2.181   9.435 -0.2594 -2.7640  0.8798
  179SLPC   H8S20450   4.604   2.057   9.335 -1.1795 -0.0184 -0.8059
  179SLPC   C2920451   4.627   2.259   9.260 -0.0523  0.2036  0.1270
  179SLPC   H9R20452   4.596   2.364   9.269  1.9392  1.0002 -1.5309
  179SLPC  C21020453   4.689   2.226   9.149  0.1081 -0.1314 -0.3751
  179SLPC  H10R20454   4.718   2.298   9.070 -1.4703  0.7294 -0.2105
  179SLPC  C21120455   4.736   2.086   9.115  0.3068 -0.5220  0.1638
  179SLPC  H11R20456   4.734   2.014   9.199 -0.7303 -0.2594  0.3786
  179SLPC  H11S20457   4.844   2.091   9.092 -0.0773  0.7627 -1.5935
  179SLPC  C21220458   4.666   2.024   8.997 -0.6351  0.0428  0.3800
  179SLPC  H12R20459   4.588   1.953   9.029 -0.0088 -0.5027  0.7075
  179SLPC  C21320460   4.678   2.042   8.863 -0.1515 -0.0992 -0.6613
  179SLPC  H13R20461   4.625   1.963   8.807 -0.3950 -1.6901  1.6562
  179SLPC  C21420462   4.773   2.135   8.807 -0.1304  0.4141  0.2655
  179SLPC  H14R20463   4.818   2.086   8.718 -0.3612 -0.2122  0.4875
  179SLPC  H14S20464   4.848   2.164   8.884 -0.9806  1.4077  0.7500
  179SLPC  C21520465   4.711   2.269   8.765 -0.2943  0.1814  0.8438
  179SLPC  H15R20466   4.778   2.319   8.692 -1.1572 -1.8580 -1.4964
  179SLPC  H15S20467   4.704   2.336   8.854 -1.7706  2.8056 -1.1002
  179SLPC  C21620468   4.572   2.251   8.693 -0.8083  0.0130 -0.6479
  179SLPC  H16R20469   4.523   2.350   8.690 -2.0056 -0.4796  1.2135
  179SLPC  H16S20470   4.509   2.184   8.754  0.8078  0.3267  1.4739
  179SLPC  C21720471   4.570   2.175   8.561 -0.7667 -0.1343  0.0943
  179SLPC  H17R20472   4.463   2.181   8.531 -0.7462 -0.4993 -0.0485
  179SLPC  H17S20473   4.607   2.074   8.589  0.5114  0.2056 -0.3165
  179SLPC  C21820474   4.661   2.237   8.453  0.5968  1.0299 -0.1714
  179SLPC  H18R20475   4.768   2.236   8.481  0.9998 -2.7347 -1.2902
  179SLPC  H18S20476   4.626   2.340   8.430 -0.7747  0.4063 -1.0672
  179SLPC  H18T20477   4.658   2.180   8.358 -4.2261  1.1780 -0.3753
  179SLPC   C3320478   3.971   2.341   9.872  0.1474  0.0342  0.5789
  179SLPC   H3X20479   4.054   2.269   9.859 -1.0638 -1.5140  1.0258
  179SLPC   H3Y20480   4.014   2.439   9.845  0.1043 -0.5851 -2.0719
  179SLPC   C3420481   3.859   2.329   9.758  0.2614  0.5106  0.0781
  179SLPC   H4X20482   3.818   2.430   9.734 -0.0508  0.9318  2.1696
  179SLPC   H4Y20483   3.777   2.266   9.798  1.0427 -1.5776 -1.4510
  179SLPC   C3520484   3.898   2.253   9.623  0.0393 -1.0936 -0.0884
  179SLPC   H5X20485   3.936   2.150   9.638 -2.9925 -2.2221  0.5556
  179SLPC   H5Y20486   3.987   2.307   9.584  1.4872 -2.5702  1.0431
  179SLPC   C3620487   3.782   2.252   9.528 -0.1107  0.5188  0.7920
  179SLPC   H6X20488   3.731   2.349   9.512 -1.8203 -0.2916  1.1196
  179SLPC   H6Y20489   3.715   2.173   9.568  0.1514 -1.3185 -2.1211
  179SLPC   C3720490   3.821   2.198   9.387  0.4310  0.1326 -0.2460
  179SLPC   H7X20491   3.880   2.104   9.395 -0.8888 -0.6939  0.0794
  179SLPC   H7Y20492   3.890   2.267   9.335  1.9892 -0.3932  1.0302
  179SLPC   C3820493   3.702   2.168   9.299  0.2227  0.0178 -0.8029
  179SLPC   H8X20494   3.642   2.259   9.282  1.4304  1.1813  0.8347
  179SLPC   H8Y20495   3.633   2.096   9.349 -0.6243  1.2389 -0.1705
  179SLPC   C3920496   3.751   2.104   9.173 -0.5141 -0.2299  0.3460
  179SLPC   H9X20497   3.777   1.997   9.187  0.7156 -0.3519 -2.1900
  179SLPC   H9Y20498   3.848   2.152   9.147 -0.6800 -0.5040 -0.8500
  179SLPC  C31020499   3.653   2.124   9.052 -0.0448  0.4418  0.0003
  179SLPC  H10X20500   3.607   2.224   9.064  0.2985  0.9866 -2.7385
  179SLPC  H10Y20501   3.566   2.060   9.078 -1.2882  1.8642 -0.5201
  179SLPC  C31120502   3.701   2.103   8.911  0.2276 -0.2166 -0.6708
  179SLPC  H11X20503   3.770   2.016   8.896  3.0161  1.6506  0.3742
  179SLPC  H11Y20504   3.765   2.192   8.889 -3.1121  2.3880 -0.6141
  179SLPC  C31220505   3.584   2.115   8.816 -0.1868 -0.0924  0.2693
  179SLPC  H12X20506   3.552   2.221   8.806  1.0219  0.3298  0.7435
  179SLPC  H12Y20507   3.491   2.066   8.852  0.2432 -0.4267  0.9438
  179SLPC  C31320508   3.611   2.055   8.684 -0.3058 -0.4222  0.2383
  179SLPC  H13X20509   3.535   2.078   8.605  0.3196 -0.9705 -0.5399
  179SLPC  H13Y20510   3.640   1.948   8.688  2.8877  0.2044 -1.7698
  179SLPC  C31420511   3.739   2.123   8.619 -0.4312 -0.6377 -0.6953
  179SLPC  H14X20512   3.832   2.084   8.667 -0.0968 -0.7355 -1.4058
  179SLPC  H14Y20513   3.729   2.231   8.641 -1.2401 -0.4935 -1.6928
  179SLPC  C31520514   3.752   2.101   8.464 -0.3995 -0.6419 -0.3115
  179SLPC  H15X20515   3.658   2.127   8.412  0.5024  2.5037 -0.6040
  179SLPC  H15Y20516   3.760   1.990   8.457 -0.7745 -0.5856 -2.4115
  179SLPC  C31620517   3.868   2.175   8.396  0.6274  0.2620  0.9301
  179SLPC  H16X20518   3.970   2.147   8.432  0.8710 -2.0403 -1.2589
  179SLPC  H16Y20519   3.853   2.283   8.416  0.2738  0.3145  0.3811
  179SLPC  C31720520   3.871   2.155   8.242  0.2365  0.4445  0.1529
  179SLPC  H17X20521   3.803   2.216   8.179  2.1597  1.0419 -1.4599
  179SLPC  H17Y20522   3.823   2.055   8.236 -2.4387  1.6772 -0.7392
  179SLPC  C31820523   4.014   2.134   8.175  0.2688 -0.1389 -0.1590
  179SLPC  H18X20524   4.068   2.052   8.226  0.5237  0.5072  0.6196
  179SLPC  H18Y20525   4.072   2.228   8.185 -1.6734  1.1652 -0.5555
  179SLPC  H18Z20526   4.010   2.113   8.066  2.1878 -2.0614  0.0696
  180SLPC     N20527   6.534   0.035  11.040 -0.7411  0.0402  0.3183
  180SLPC   C1320528   6.616   0.035  10.914  0.0365  0.2517  0.6394
  180SLPC  H13A20529   6.701  -0.033  10.917 -1.5625 -1.8474  0.9387
  180SLPC  H13B20530   6.555   0.017  10.827  0.7370  1.5078 -0.1479
  180SLPC  H13C20531   6.659   0.133  10.903  1.5745 -0.4827 -0.2992
  180SLPC   C1420532   6.624   0.025  11.158  0.2343 -0.7997 -0.4891
  180SLPC  H14A20533   6.674   0.120  11.173  0.1224 -1.0318  1.6351
  180SLPC  H14B20534   6.569  -0.014  11.242 -1.0054  2.8024  0.5703
  180SLPC  H14C20535   6.700  -0.049  11.136  2.7259  0.8982  1.6865
  180SLPC   C1520536   6.448  -0.090  11.041 -0.0342  0.3348  0.0287
  180SLPC  H15A20537   6.392  -0.102  10.949 -0.7083  1.5662  0.2561
  180SLPC  H15B20538   6.507  -0.178  11.059  0.1580  0.8895  2.4364
  180SLPC  H15C20539   6.371  -0.069  11.114 -1.1074  0.1413 -1.0094
  180SLPC   C1220540   6.447   0.154  11.038  0.2892 -0.3319 -0.5890
  180SLPC  H12A20541   6.506   0.244  11.038  0.7973 -0.6356  0.7296
  180SLPC  H12B20542   6.394   0.172  11.131  1.5443  1.0305 -0.0890
  180SLPC   C1120543   6.348   0.166  10.923 -0.2196 -0.3466  0.0134
  180SLPC  H11A20544   6.277   0.249  10.944 -0.9550 -0.5366 -1.5828
  180SLPC  H11B20545   6.275   0.083  10.919 -1.3419  0.4874  1.8869
  180SLPC     P20546   6.459   0.353  10.780 -0.1346  0.0490  0.3421
  180SLPC   O1320547   6.537   0.396  10.892  0.0546 -0.0727 -0.4095
  180SLPC   O1420548   6.525   0.357  10.650  0.0023  0.1871  0.1994
  180SLPC   O1220549   6.414   0.198  10.800 -0.0130 -0.5500  0.6325
  180SLPC   O1120550   6.330   0.435  10.779  0.5850 -0.7934  0.2190
  180SLPC    C120551   6.203   0.405  10.727 -0.4771  0.3949 -0.7284
  180SLPC    HA20552   6.151   0.333  10.795 -1.1870 -0.3482 -2.0286
  180SLPC    HB20553   6.150   0.502  10.725  0.1203  0.8065  1.1852
  180SLPC    C220554   6.205   0.358  10.580 -0.4384 -0.1965 -0.1951
  180SLPC    HS20555   6.254   0.258  10.575 -2.6086 -1.2764 -2.4448
  180SLPC   O2120556   6.263   0.454  10.504  0.1997 -0.2441  0.4775
  180SLPC   C2120557   6.323   0.419  10.390 -0.6123 -0.1204  0.0967
  180SLPC   O2220558   6.343   0.305  10.354  0.0742 -0.4326  0.2086
  180SLPC   C2220559   6.354   0.543  10.315 -1.1637  0.5833 -0.1652
  180SLPC   H2R20560   6.410   0.611  10.382  1.1920 -1.9007  0.5691
  180SLPC   H2S20561   6.421   0.530  10.227 -0.6708  1.0377  0.1343
  180SLPC    C320562   6.061   0.330  10.534  0.0146  0.3707 -0.1421
  180SLPC    HX20563   6.006   0.425  10.518 -2.0255 -0.8573 -0.7658
  180SLPC    HY20564   6.003   0.273  10.609  1.4007 -0.2213  0.5062
  180SLPC   O3120565   6.054   0.260  10.403 -0.4105  0.2634  0.1874
  180SLPC   C3120566   6.065   0.123  10.408 -0.3804  0.6650 -0.2793
  180SLPC   O3220567   6.086   0.061  10.511  0.3154  0.0934  0.4078
  180SLPC   C3220568   6.070   0.061  10.269  0.6863 -0.5822  0.5197
  180SLPC   H2X20569   5.968   0.018  10.256 -0.7673  2.4340  1.0047
  180SLPC   H2Y20570   6.149  -0.017  10.268  1.0987 -0.1697 -0.1444
  180SLPC   C2320571   6.234   0.617  10.251  0.4307  0.4565  0.0488
  180SLPC   H3R20572   6.257   0.723  10.230  2.3914  0.2890  1.1371
  180SLPC   H3S20573   6.151   0.608  10.325  0.2218 -0.6326 -0.2949
  180SLPC   C2420574   6.201   0.546  10.115 -0.3677 -0.8034 -0.0482
  180SLPC   H4R20575   6.104   0.582  10.076  0.8149  2.1455 -0.5402
  180SLPC   H4S20576   6.195   0.435  10.118  0.6596 -0.8791 -0.3647
  180SLPC   C2520577   6.303   0.583  10.006 -0.3732  0.8752 -0.0835
  180SLPC   H5R20578   6.405   0.539  10.013 -1.2444 -1.5709 -1.4972
  180SLPC   H5S20579   6.315   0.693  10.014  0.4461  1.2170 -3.8231
  180SLPC   C2620580   6.261   0.559   9.863 -0.1565 -0.3036 -0.1556
  180SLPC   H6R20581   6.157   0.589   9.841 -1.1236 -1.3407  2.5005
  180SLPC   H6S20582   6.277   0.451   9.840 -1.4042 -0.2222 -1.5164
  180SLPC   C2720583   6.346   0.640   9.764 -0.7993 -0.4889 -0.2146
  180SLPC   H7R20584   6.454   0.622   9.783 -1.0889 -1.7067  0.4241
  180SLPC   H7S20585   6.333   0.749   9.775  1.5517 -0.0958 -0.7501
  180SLPC   C2820586   6.329   0.598   9.619 -0.7628 -0.6211  0.0496
  180SLPC   H8R20587   6.222   0.613   9.593 -1.1409 -1.4672  1.0333
  180SLPC   H8S20588   6.354   0.490   9.608  3.4163  0.2246 -0.5329
  180SLPC   C2920589   6.426   0.663   9.521  0.0042 -0.3354  0.0150
  180SLPC   H9R20590   6.525   0.691   9.559  0.8558 -0.8501 -1.7453
  180SLPC  C21020591   6.399   0.669   9.389  0.5055  0.8326  0.0058
  180SLPC  H10R20592   6.470   0.713   9.318  1.3528  0.0701  0.3597
  180SLPC  C21120593   6.276   0.606   9.319 -0.1150 -0.5710 -0.2361
  180SLPC  H11R20594   6.219   0.538   9.385  0.4511 -0.9122 -0.0914
  180SLPC  H11S20595   6.310   0.562   9.223  0.8967 -0.5957  0.1212
  180SLPC  C21220596   6.173   0.718   9.297  0.7853  0.4999  0.1727
  180SLPC  H12R20597   6.148   0.796   9.371 -3.2883 -0.5023  0.0778
  180SLPC  C21320598   6.108   0.726   9.186  0.3378  0.1122  0.3811
  180SLPC  H13R20599   6.027   0.797   9.166 -1.5169 -1.6702  1.2114
  180SLPC  C21420600   6.124   0.635   9.071 -0.3624  0.8042  0.0237
  180SLPC  H14R20601   6.140   0.532   9.110  1.5052  1.5081  1.2816
  180SLPC  H14S20602   6.222   0.656   9.023  0.9697  0.2202  2.3229
  180SLPC  C21520603   6.010   0.640   8.961  0.3750 -0.4806 -0.4044
  180SLPC  H15R20604   5.920   0.626   9.024  0.5895  1.6081  0.4601
  180SLPC  H15S20605   6.024   0.556   8.890  3.4819  0.2124 -0.7522
  180SLPC  C21620606   5.999   0.781   8.901 -0.1020 -1.4655 -0.3434
  180SLPC  H16R20607   5.999   0.874   8.962 -1.3453 -1.6151 -0.0927
  180SLPC  H16S20608   5.900   0.782   8.850 -1.2258 -0.9874  1.7085
  180SLPC  C21720609   6.121   0.807   8.809  0.1452 -0.4048  0.6288
  180SLPC  H17R20610   6.156   0.712   8.765  0.5664 -0.1075  0.3154
  180SLPC  H17S20611   6.210   0.854   8.856  1.2301 -1.5133 -0.2521
  180SLPC  C21820612   6.082   0.890   8.677 -0.1232 -0.2158 -0.1096
  180SLPC  H18R20613   6.176   0.908   8.621  0.1987  1.1554  0.8222
  180SLPC  H18S20614   6.044   0.989   8.709 -1.6435 -1.0246  0.6984
  180SLPC  H18T20615   5.998   0.847   8.619 -1.2782 -0.0941  1.3965
  180SLPC   C3320616   6.090   0.166  10.161 -0.9255  0.1722 -0.0028
  180SLPC   H3X20617   6.191   0.210  10.179 -1.0950  0.3730  0.4478
  180SLPC   H3Y20618   6.013   0.245  10.161 -0.1541  0.9577  1.1768
  180SLPC   C3420619   6.083   0.094  10.026  0.3627 -0.6616 -0.3585
  180SLPC   H4X20620   5.979   0.059  10.007  0.1943 -1.6509  1.9728
  180SLPC   H4Y20621   6.138  -0.003  10.032  0.4361 -0.6965 -1.4656
  180SLPC   C3520622   6.143   0.175   9.917  0.0694 -0.1405 -0.0622
  180SLPC   H5X20623   6.254   0.172   9.920  0.0657 -0.0449  0.1101
  180SLPC   H5Y20624   6.118   0.283   9.920  1.6704  0.3105 -1.4698
  180SLPC   C3620625   6.098   0.126   9.776 -0.3212 -0.4557 -0.3168
  180SLPC   H6X20626   6.001   0.178   9.760 -0.9120 -0.7774  1.8408
  180SLPC   H6Y20627   6.088   0.016   9.788  2.0944 -0.6088  0.8189
  180SLPC   C3720628   6.198   0.177   9.672  0.0243  0.6868  0.4250
  180SLPC   H7X20629   6.303   0.144   9.691  0.4574  1.6368 -0.2535
  180SLPC   H7Y20630   6.195   0.288   9.668 -0.0279  0.7100  0.9539
  180SLPC   C3820631   6.160   0.125   9.531 -0.3959  0.4076  0.0368
  180SLPC   H8X20632   6.052   0.105   9.518 -0.7840  2.1820  0.2308
  180SLPC   H8Y20633   6.200   0.022   9.515 -1.3644 -0.1543  1.1091
  180SLPC   C3920634   6.195   0.226   9.424  0.3656  0.6909  0.4485
  180SLPC   H9X20635   6.296   0.272   9.425  1.0859 -0.8227  0.3317
  180SLPC   H9Y20636   6.113   0.300   9.436 -0.2910 -0.0331  0.4905
  180SLPC  C31020637   6.184   0.172   9.278  0.3840 -0.3378 -0.4663
  180SLPC  H10X20638   6.099   0.101   9.272 -0.4619  0.7344 -1.8819
  180SLPC  H10Y20639   6.276   0.115   9.253  1.3753  1.0830 -0.2210
  180SLPC  C31120640   6.172   0.287   9.174  0.4011  0.7290  0.0140
  180SLPC  H11X20641   6.265   0.347   9.182  1.6883 -0.9715 -1.3329
  180SLPC  H11Y20642   6.088   0.352   9.205 -1.1123 -2.3541  3.0500
  180SLPC  C31220643   6.138   0.236   9.032 -0.8516 -0.3464  0.7469
  180SLPC  H12X20644   6.135   0.320   8.960  2.4547 -1.2010 -0.5527
  180SLPC  H12Y20645   6.035   0.192   9.032  0.1456 -2.8720 -0.6621
  180SLPC  C31320646   6.232   0.130   8.976 -0.0357  0.5188  0.6586
  180SLPC  H13X20647   6.242   0.038   9.037 -0.1052  0.6519  0.8683
  180SLPC  H13Y20648   6.328   0.186   8.977 -0.5336  1.3744  0.9231
  180SLPC  C31420649   6.206   0.091   8.823 -0.5176 -0.6147  0.5881
  180SLPC  H14X20650   6.287   0.020   8.795 -0.6201 -1.0931  1.4746
  180SLPC  H14Y20651   6.194   0.180   8.757  0.9227 -0.2925  0.7293
  180SLPC  C31520652   6.072   0.013   8.809 -0.4948 -1.3264 -0.2161
  180SLPC  H15X20653   5.986   0.080   8.831 -0.2096  0.3645 -3.4812
  180SLPC  H15Y20654   6.086  -0.059   8.892  1.3377 -1.3925 -0.5359
  180SLPC  C31620655   6.048  -0.052   8.671 -0.1942  0.3044 -0.3093
  180SLPC  H16X20656   6.086   0.016   8.592  1.5353  0.2435  0.4285
  180SLPC  H16Y20657   5.943  -0.073   8.644  0.2507 -1.3757 -0.8189
  180SLPC  C31720658   6.110  -0.191   8.664 -0.1125  0.7164 -0.0768
  180SLPC  H17X20659   6.056  -0.268   8.723  0.1693 -1.0952 -2.0355
  180SLPC  H17Y20660   6.213  -0.192   8.705  0.0099 -0.4391 -0.3654
  180SLPC  C31820661   6.124  -0.243   8.522  1.0316 -0.0437 -0.3627
  180SLPC  H18X20662   6.165  -0.166   8.454 -1.2639  1.9925  0.4221
  180SLPC  H18Y20663   6.025  -0.285   8.493 -1.0943  0.8212  4.6009
  180SLPC  H18Z20664   6.199  -0.326   8.522  0.2789 -0.7583 -1.4851
  181SLPC     N20665   3.395   4.201  10.914  0.0463  0.0701 -0.1567
  181SLPC   C1320666   3.435   4.266  11.043 -0.1306  0.3094  0.6575
  181SLPC  H13A20667   3.356   4.329  11.082  0.8200  0.4724  2.3913
  181SLPC  H13B20668   3.457   4.196  11.121  0.0970 -1.7059 -1.1293
  181SLPC  H13C20669   3.519   4.333  11.032 -0.9872  1.3445  0.1882
  181SLPC   C1420670   3.350   4.313  10.820 -0.6673 -0.9432  0.2635
  181SLPC  H14A20671   3.282   4.372  10.880 -0.9368 -2.9260  2.0468
  181SLPC  H14B20672   3.439   4.370  10.800  1.3719 -3.4233  1.6516
  181SLPC  H14C20673   3.301   4.268  10.735 -1.6155 -1.7286  1.1994
  181SLPC   C1520674   3.278   4.114  10.946  0.5783  0.0602  1.0951
  181SLPC  H15A20675   3.262   4.050  10.860 -1.9644  0.2893  1.3222
  181SLPC  H15B20676   3.300   4.046  11.027  2.7236 -0.0906  0.4533
  181SLPC  H15C20677   3.186   4.164  10.974  0.2054 -1.3720  2.6151
  181SLPC   C1220678   3.511   4.117  10.864  0.4426  0.5810  0.2425
  181SLPC  H12A20679   3.545   4.046  10.939 -2.0477 -1.0481 -0.0224
  181SLPC  H12B20680   3.594   4.184  10.851  0.0866  0.8197 -0.8796
  181SLPC   C1120681   3.483   4.039  10.726 -0.2254 -0.3384  0.4738
  181SLPC  H11A20682   3.583   4.007  10.690 -0.0505  1.2110 -0.5217
  181SLPC  H11B20683   3.439   4.107  10.650  1.6166  1.4556  0.9094
  181SLPC     P20684   3.436   3.799  10.822  0.4600 -0.0513  0.3089
  181SLPC   O1320685   3.573   3.816  10.872  0.1411  0.1183  0.3541
  181SLPC   O1420686   3.334   3.744  10.909  0.7750  0.3418 -0.2787
  181SLPC   O1220687   3.393   3.929  10.755 -0.7655 -0.2064  0.2655
  181SLPC   O1120688   3.442   3.704  10.690  0.0778 -0.4966 -0.3147
  181SLPC    C120689   3.566   3.704  10.616  0.5085  0.5810  0.3759
  181SLPC    HA20690   3.610   3.806  10.606 -0.2054  0.7489 -1.5430
  181SLPC    HB20691   3.643   3.648  10.673  1.7828  0.1481 -1.6841
  181SLPC    C220692   3.559   3.647  10.467 -0.4281  0.4638 -0.1606
  181SLPC    HS20693   3.655   3.673  10.417  1.2965 -1.9913  1.6465
  181SLPC   O2120694   3.446   3.685  10.392  0.1503 -0.2876 -0.0260
  181SLPC   C2120695   3.434   3.811  10.364 -0.1906 -0.0894 -0.2590
  181SLPC   O2220696   3.518   3.898  10.389 -0.4501  0.0136 -0.2908
  181SLPC   C2220697   3.302   3.830  10.279  0.1027  0.3459  1.0280
  181SLPC   H2R20698   3.239   3.739  10.282  1.3428 -0.7012 -1.9486
  181SLPC   H2S20699   3.238   3.911  10.321 -1.7010  1.0221 -2.6480
  181SLPC    C320700   3.565   3.490  10.460  0.2433 -0.4018 -0.5075
  181SLPC    HX20701   3.464   3.454  10.487  0.4957 -0.9142 -0.2389
  181SLPC    HY20702   3.640   3.467  10.539  0.5019  1.6981 -0.0668
  181SLPC   O3120703   3.619   3.444  10.331 -0.0453  0.1126  0.0380
  181SLPC   C3120704   3.612   3.311  10.340  0.8318 -0.5586  0.1852
  181SLPC   O3220705   3.559   3.243  10.427 -0.5159 -0.3127 -0.0420
  181SLPC   C3220706   3.675   3.263  10.212 -0.6069  0.1164 -0.2457
  181SLPC   H2X20707   3.778   3.226  10.231 -0.6217 -0.1032 -0.5740
  181SLPC   H2Y20708   3.692   3.343  10.137  1.8970 -0.5102 -0.4200
  181SLPC   C2320709   3.325   3.867  10.129  0.4104 -0.4525 -0.0819
  181SLPC   H3R20710   3.413   3.934  10.125  0.6308 -0.7940 -2.4195
  181SLPC   H3S20711   3.238   3.927  10.093  0.4027  1.3938  2.7405
  181SLPC   C2420712   3.360   3.758  10.032 -0.4318  0.3650  0.0358
  181SLPC   H4R20713   3.268   3.696  10.027 -0.9634  1.1133  0.3328
  181SLPC   H4S20714   3.449   3.696  10.056 -0.7694 -1.3467 -2.6977
  181SLPC   C2520715   3.386   3.816   9.889  0.1826 -0.0238 -0.0437
  181SLPC   H5R20716   3.477   3.879   9.891 -0.0756  0.3562  1.8683
  181SLPC   H5S20717   3.289   3.869   9.882 -0.7901 -1.5139  1.3648
  181SLPC   C2620718   3.408   3.701   9.779  0.4845 -0.1089  0.1574
  181SLPC   H6R20719   3.316   3.638   9.783 -0.2079  0.5672 -2.6160
  181SLPC   H6S20720   3.498   3.637   9.787  1.0758  0.3336 -2.1740
  181SLPC   C2720721   3.414   3.763   9.636  0.1618  0.1202 -0.3383
  181SLPC   H7R20722   3.487   3.846   9.646 -1.3087  1.4165  0.0549
  181SLPC   H7S20723   3.316   3.804   9.606  0.0355 -0.3096 -0.5237
  181SLPC   C2820724   3.450   3.651   9.541 -0.5217  0.0620  0.4707
  181SLPC   H8R20725   3.364   3.583   9.521  0.3159 -0.7793 -0.4494
  181SLPC   H8S20726   3.523   3.583   9.590 -0.0069  0.5595  0.4026
  181SLPC   C2920727   3.514   3.697   9.406  0.7347 -0.0179  0.0862
  181SLPC   H9R20728   3.623   3.708   9.407  0.6177  1.3458  1.2463
  181SLPC  C21020729   3.449   3.707   9.296  0.0502 -0.0745 -0.3866
  181SLPC  H10R20730   3.503   3.742   9.206  1.9266  2.2657  1.5046
  181SLPC  C21120731   3.302   3.684   9.288  0.9904 -0.6110 -0.2140
  181SLPC  H11R20732   3.267   3.763   9.219 -0.1578  1.0182  2.0955
  181SLPC  H11S20733   3.244   3.717   9.376  1.6078 -0.5814  0.1898
  181SLPC  C21220734   3.261   3.545   9.250 -0.6107 -0.2916 -0.6723
  181SLPC  H12R20735   3.311   3.465   9.307 -3.4843 -1.1329  0.8519
  181SLPC  C21320736   3.189   3.508   9.147  0.1788  0.4153  0.0391
  181SLPC  H13R20737   3.173   3.400   9.130  0.9212  0.4370 -0.8569
  181SLPC  C21420738   3.117   3.600   9.048 -0.1642 -0.0579 -0.1433
  181SLPC  H14R20739   3.140   3.573   8.942  0.9067 -0.7005  0.2343
  181SLPC  H14S20740   3.163   3.700   9.062  0.4301 -0.3789  0.2542
  181SLPC  C21520741   2.966   3.621   9.071  0.0361 -0.2653  0.0399
  181SLPC  H15R20742   2.972   3.658   9.175  4.2320  1.2208 -0.5385
  181SLPC  H15S20743   2.901   3.532   9.056 -0.4775  0.0690  0.2710
  181SLPC  C21620744   2.897   3.727   8.979 -0.0362 -0.0254 -0.5312
  181SLPC  H16R20745   2.941   3.829   8.987  1.6311 -0.7882  0.9752
  181SLPC  H16S20746   2.793   3.733   9.017 -0.7148 -2.6485 -1.6945
  181SLPC  C21720747   2.861   3.676   8.837  0.0335 -0.2524 -0.6107
  181SLPC  H17R20748   2.955   3.640   8.792  0.4524  1.5957 -1.2861
  181SLPC  H17S20749   2.838   3.769   8.780 -0.1968 -1.3528 -2.3874
  181SLPC  C21820750   2.760   3.564   8.832  0.1170 -1.1478  0.3354
  181SLPC  H18R20751   2.773   3.486   8.910  1.0427 -0.7946  0.5483
  181SLPC  H18S20752   2.779   3.509   8.737  2.7719 -0.3535  0.3178
  181SLPC  H18T20753   2.655   3.598   8.822  0.7233  0.7711  0.1669
  181SLPC   C3320754   3.595   3.149  10.145 -1.0146 -0.4710 -0.1229
  181SLPC   H3X20755   3.561   3.077  10.222 -0.0434  1.0991  1.8580
  181SLPC   H3Y20756   3.654   3.084  10.077 -0.5736 -0.0589 -0.1472
  181SLPC   C3420757   3.463   3.185  10.067 -0.1614 -0.0016  0.3590
  181SLPC   H4X20758   3.398   3.242  10.136 -0.9844  1.6976 -1.7211
  181SLPC   H4Y20759   3.411   3.087  10.054  1.9844 -1.4639  2.0235
  181SLPC   C3520760   3.502   3.239   9.927  0.4106 -0.5003 -0.5927
  181SLPC   H5X20761   3.565   3.164   9.873  0.6134 -0.5939 -0.2280
  181SLPC   H5Y20762   3.571   3.326   9.937 -1.3610  1.1330 -1.9259
  181SLPC   C3620763   3.382   3.276   9.835  0.1220  0.2894 -0.3478
  181SLPC   H6X20764   3.332   3.354   9.897 -1.6346 -0.6285 -0.5544
  181SLPC   H6Y20765   3.316   3.188   9.820  0.1834 -0.3342  2.5047
  181SLPC   C3720766   3.417   3.347   9.704  0.3148  0.3451  0.1271
  181SLPC   H7X20767   3.509   3.407   9.723  1.1967 -1.1201  0.6151
  181SLPC   H7Y20768   3.331   3.410   9.673 -2.5247 -4.0500 -2.0227
  181SLPC   C3820769   3.445   3.243   9.596 -0.3518  0.0472  0.7260
  181SLPC   H8X20770   3.352   3.198   9.555  0.2308  1.1899 -2.0624
  181SLPC   H8Y20771   3.492   3.160   9.654 -0.1871 -0.6660 -0.3983
  181SLPC   C3920772   3.536   3.281   9.480  0.1559  0.1213 -0.4183
  181SLPC   H9X20773   3.636   3.272   9.526 -1.1350 -1.1463  2.3742
  181SLPC   H9Y20774   3.519   3.386   9.448  1.3328 -0.4766 -3.3079
  181SLPC  C31020775   3.534   3.192   9.362  0.7837  0.2439 -0.2138
  181SLPC  H10X20776   3.532   3.084   9.389 -0.6110 -0.1889 -1.8679
  181SLPC  H10Y20777   3.632   3.210   9.313  0.9909  3.1496  1.0639
  181SLPC  C31120778   3.419   3.236   9.267  0.4506  0.8336  0.3132
  181SLPC  H11X20779   3.442   3.334   9.219  0.3934  1.0720  0.7649
  181SLPC  H11Y20780   3.327   3.256   9.326  0.8100  0.8681  0.8687
  181SLPC  C31220781   3.382   3.131   9.159  0.0765  0.5867  0.2185
  181SLPC  H12X20782   3.296   3.160   9.094 -2.0071 -1.7451  1.7300
  181SLPC  H12Y20783   3.339   3.051   9.224  0.9815  0.0599  0.1806
  181SLPC  C31320784   3.502   3.086   9.070  1.0485 -0.2235  0.1466
  181SLPC  H13X20785   3.582   3.033   9.126  0.0651 -1.7093  0.1877
  181SLPC  H13Y20786   3.550   3.181   9.038 -0.6949  0.2003 -1.3582
  181SLPC  C31420787   3.468   3.008   8.941  0.1821  0.0695  0.2452
  181SLPC  H14X20788   3.440   2.903   8.963 -2.3280  0.8904  1.4490
  181SLPC  H14Y20789   3.558   3.014   8.876 -1.0003  0.6990 -1.3983
  181SLPC  C31520790   3.372   3.078   8.846  0.3536  0.4019  0.1289
  181SLPC  H15X20791   3.417   3.176   8.820  1.5757 -0.3468 -0.6382
  181SLPC  H15Y20792   3.272   3.076   8.895  0.6366 -0.9201  0.7107
  181SLPC  C31620793   3.355   3.010   8.703  0.0957 -0.2212 -0.0016
  181SLPC  H16X20794   3.308   2.910   8.721  0.8610 -0.6779 -0.5000
  181SLPC  H16Y20795   3.456   2.994   8.660  0.4884  2.7926 -0.3806
  181SLPC  C31720796   3.281   3.088   8.588 -0.2971  0.2491  0.2846
  181SLPC  H17X20797   3.267   3.025   8.497  0.5062 -3.0413  2.2835
  181SLPC  H17Y20798   3.350   3.171   8.560 -0.4422  0.3760  0.3000
  181SLPC  C31820799   3.144   3.148   8.631  0.2144  0.1460  0.1467
  181SLPC  H18X20800   3.112   3.216   8.549  2.0185  0.0826 -0.6567
  181SLPC  H18Y20801   3.150   3.220   8.715  1.5529  0.3870 -0.1333
  181SLPC  H18Z20802   3.065   3.073   8.653 -0.6484  1.1412  0.5151
  182SLPC     N20803   5.642   5.644  10.757  0.5192  0.1543  0.5178
  182SLPC   C1320804   5.516   5.590  10.702  0.4393 -0.3247  0.8247
  182SLPC  H13A20805   5.440   5.665  10.688 -0.0575 -0.9242  0.1984
  182SLPC  H13B20806   5.536   5.551  10.603  0.6471 -0.5633  0.9584
  182SLPC  H13C20807   5.487   5.502  10.758  0.6853 -2.3037 -1.9476
  182SLPC   C1420808   5.748   5.540  10.752 -0.3022  0.0600 -0.0027
  182SLPC  H14A20809   5.842   5.589  10.771 -0.6723  0.6998  0.2167
  182SLPC  H14B20810   5.723   5.464  10.824 -2.2455 -0.5473 -1.2396
  182SLPC  H14C20811   5.748   5.498  10.653 -1.0775 -1.6324  0.6889
  182SLPC   C1520812   5.611   5.674  10.901 -0.4120 -0.7146 -0.3110
  182SLPC  H15A20813   5.538   5.753  10.904  0.6890  0.5400 -2.9858
  182SLPC  H15B20814   5.572   5.590  10.956 -2.7197  0.8177  0.5460
  182SLPC  H15C20815   5.695   5.719  10.952 -0.4781  0.2881 -1.0530
  182SLPC   C1220816   5.685   5.762  10.668  0.6851  0.0220  0.1993
  182SLPC  H12A20817   5.629   5.854  10.678  0.2793 -0.0969 -0.8187
  182SLPC  H12B20818   5.669   5.734  10.565 -1.1648  0.7807  0.2473
  182SLPC   C1120819   5.833   5.815  10.677 -0.3391  1.0544  0.4417
  182SLPC  H11A20820   5.857   5.898  10.607  0.1703  1.0134  0.5588
  182SLPC  H11B20821   5.899   5.732  10.644 -1.9751  0.0068 -0.2851
  182SLPC     P20822   5.979   5.808  10.892  0.0291 -0.4030 -0.3814
  182SLPC   O1320823   6.012   5.911  11.000 -0.0312 -0.1642  0.6711
  182SLPC   O1420824   5.948   5.674  10.942  0.9486  0.2979  0.5651
  182SLPC   O1220825   5.855   5.859  10.810 -0.0075 -0.3844 -0.0192
  182SLPC   O1120826   6.094   5.796  10.786  0.0211  0.0825 -0.1929
  182SLPC    C120827   6.184   5.896  10.752 -0.8709  0.3451  0.1220
  182SLPC    HA20828   6.194   5.970  10.834 -0.0489  2.1669 -1.5519
  182SLPC    HB20829   6.284   5.851  10.732 -0.1424  3.0257 -3.3692
  182SLPC    C220830   6.145   5.959  10.615  0.2078  0.1878  0.0388
  182SLPC    HS20831   6.035   5.974  10.611 -0.2303 -2.7303 -1.8270
  182SLPC   O2120832   6.179   5.861  10.518  0.4477  0.2288  0.3796
  182SLPC   C2120833   6.097   5.853  10.412  0.5802  0.0610 -0.2432
  182SLPC   O2220834   5.994   5.921  10.394 -0.6238 -0.1406 -0.3943
  182SLPC   C2220835   6.145   5.733  10.324 -0.1200  0.1512  0.0020
  182SLPC   H2R20836   6.254   5.726  10.341 -0.1426  1.7582  1.0349
  182SLPC   H2S20837   6.098   5.643  10.370 -0.9647  0.6967  0.2340
  182SLPC    C320838   6.223   6.089  10.586  0.0023  1.3908  0.0273
  182SLPC    HX20839   6.329   6.053  10.591 -1.1341 -2.5865 -0.8710
  182SLPC    HY20840   6.196   6.160  10.667 -0.7072  0.3532  0.7298
  182SLPC   O3120841   6.212   6.147  10.458  0.0506  0.0037  0.4613
  182SLPC   C3120842   6.103   6.221  10.438  0.6808  0.3185  0.2230
  182SLPC   O3220843   6.014   6.244  10.521 -0.1663 -0.3165  0.1980
  182SLPC   C3220844   6.093   6.264  10.287  0.4331  0.1281  0.5973
  182SLPC   H2X20845   6.123   6.177  10.225  2.3300  1.4848 -0.4908
  182SLPC   H2Y20846   6.164   6.348  10.276  0.8954 -0.3311 -0.0531
  182SLPC   C2320847   6.104   5.743  10.174  0.4477  0.1285  0.6475
  182SLPC   H3R20848   6.000   5.782  10.164 -0.4038 -1.8745  1.1261
  182SLPC   H3S20849   6.116   5.640  10.134 -0.1275  0.6376 -0.9200
  182SLPC   C2420850   6.201   5.836  10.104 -0.8133  0.1593  0.1854
  182SLPC   H4R20851   6.305   5.805  10.131 -0.3615  1.1274 -0.3781
  182SLPC   H4S20852   6.187   5.937  10.146 -1.1988  0.2850 -0.2401
  182SLPC   C2520853   6.188   5.840   9.953 -0.1936  0.1221  0.2514
  182SLPC   H5R20854   6.080   5.856   9.933 -0.1330 -0.3181 -0.4678
  182SLPC   H5S20855   6.215   5.743   9.907  0.6853  0.8189 -0.7783
  182SLPC   C2620856   6.281   5.933   9.871  0.1776  0.5185 -0.3450
  182SLPC   H6R20857   6.386   5.937   9.907  1.0942  1.7649 -2.9147
  182SLPC   H6S20858   6.249   6.038   9.887 -0.2420  0.2720  0.5388
  182SLPC   C2720859   6.285   5.910   9.720 -0.7181 -0.2827  0.0525
  182SLPC   H7R20860   6.178   5.914   9.688 -1.0111  1.5740  1.1428
  182SLPC   H7S20861   6.335   5.814   9.695 -1.4637 -0.6714  0.0124
  182SLPC   C2820862   6.362   6.019   9.655 -0.1569 -0.0468 -0.3026
  182SLPC   H8R20863   6.451   5.980   9.601  1.4159  1.2271  1.2585
  182SLPC   H8S20864   6.412   6.077   9.736  0.7569 -0.1649 -0.7744
  182SLPC   C2920865   6.276   6.114   9.570  0.4013  0.8048 -0.2110
  182SLPC   H9R20866   6.233   6.197   9.629  1.5407  2.1060 -1.1768
  182SLPC  C21020867   6.249   6.109   9.441 -0.8610  0.0133 -0.3357
  182SLPC  H10R20868   6.173   6.180   9.404 -0.8752 -0.1173 -0.5593
  182SLPC  C21120869   6.311   6.016   9.341  0.0803 -0.2103  0.2649
  182SLPC  H11R20870   6.410   5.988   9.381 -0.1969  0.3572  1.3952
  182SLPC  H11S20871   6.314   6.071   9.244 -1.1007  1.4713  1.1211
  182SLPC  C21220872   6.245   5.882   9.326 -0.5182  0.5803  1.0434
  182SLPC  H12R20873   6.270   5.806   9.401  1.0842 -1.1789 -1.1540
  182SLPC  C21320874   6.137   5.857   9.242  0.4668  0.0988  0.9077
  182SLPC  H13R20875   6.086   5.760   9.251 -0.4030  0.6044  1.6734
  182SLPC  C21420876   6.071   5.954   9.150 -0.1889 -0.8582 -0.5591
  182SLPC  H14R20877   6.133   6.046   9.160  0.8790 -1.7647  1.6927
  182SLPC  H14S20878   5.969   5.972   9.190  0.5232 -1.2238  1.5248
  182SLPC  C21520879   6.070   5.916   8.999 -0.7785  0.3230  0.1525
  182SLPC  H15R20880   6.027   5.815   8.978  0.1922 -0.0938  0.1269
  182SLPC  H15S20881   6.174   5.926   8.962 -1.7864 -0.2937 -3.1939
  182SLPC  C21620882   5.982   6.012   8.922  0.1675 -0.5154  0.5402
  182SLPC  H16R20883   6.031   6.109   8.900 -0.8793 -0.2577 -0.8275
  182SLPC  H16S20884   5.893   6.028   8.987 -1.4498 -0.6482 -1.5239
  182SLPC  C21720885   5.934   5.962   8.776  0.0170 -0.0936 -0.6005
  182SLPC  H17R20886   5.838   6.014   8.759 -2.6763 -4.0419  1.1014
  182SLPC  H17S20887   5.902   5.856   8.775  2.4138 -0.8780 -1.1655
  182SLPC  C21820888   6.046   5.997   8.676  0.2818  0.5775 -0.3083
  182SLPC  H18R20889   6.070   6.104   8.659 -0.5426  1.1066  1.5850
  182SLPC  H18S20890   6.025   5.954   8.576 -0.5506  2.0039 -0.7789
  182SLPC  H18T20891   6.139   5.943   8.705  0.9150  0.1589 -2.8699
  182SLPC   C3320892   5.948   6.313  10.248  0.0153 -0.4376 -0.7388
  182SLPC   H3X20893   5.955   6.383  10.162 -2.3338  0.7863 -0.0108
  182SLPC   H3Y20894   5.905   6.384  10.322  0.4933 -1.5475  0.6417
  182SLPC   C3420895   5.846   6.210  10.217 -0.3740 -0.8509 -0.0482
  182SLPC   H4X20896   5.749   6.260  10.192  0.5774  0.8187 -0.5942
  182SLPC   H4Y20897   5.840   6.148  10.309  0.0235  0.2867  0.7658
  182SLPC   C3520898   5.880   6.128  10.086  0.3772  0.0055 -0.3622
  182SLPC   H5X20899   5.793   6.058  10.079  1.3850 -1.5349  1.5630
  182SLPC   H5Y20900   5.962   6.055  10.101  1.5962  1.6052  1.1117
  182SLPC   C3620901   5.896   6.214   9.961  0.6998  0.1066  0.1694
  182SLPC   H6X20902   5.978   6.288   9.970 -0.8528  2.0262 -0.7685
  182SLPC   H6Y20903   5.804   6.273   9.940  0.8927  0.4029  0.1435
  182SLPC   C3720904   5.918   6.117   9.837 -0.0215  0.2359  0.2121
  182SLPC   H7X20905   5.838   6.040   9.827  1.2052 -1.1136  0.3649
  182SLPC   H7Y20906   6.012   6.060   9.854 -0.6936 -0.6269  1.1428
  182SLPC   C3820907   5.953   6.181   9.697 -0.3753  0.3889  1.0665
  182SLPC   H8X20908   6.011   6.097   9.653  2.0296  1.1425  2.6017
  182SLPC   H8Y20909   6.026   6.265   9.701  0.1757  0.1284 -1.5595
  182SLPC   C3920910   5.840   6.216   9.610 -0.0526  0.0948  0.0473
  182SLPC   H9X20911   5.807   6.316   9.645  0.5470 -0.1247  1.2959
  182SLPC   H9Y20912   5.755   6.148   9.631  1.6782 -2.1200  0.2538
  182SLPC  C31020913   5.877   6.228   9.459 -0.1161  0.5186  0.5574
  182SLPC  H10X20914   5.901   6.123   9.430  2.0185  0.7502  1.3069
  182SLPC  H10Y20915   5.968   6.292   9.460  0.3717 -0.1635  0.2907
  182SLPC  C31120916   5.765   6.282   9.368 -0.6211 -0.0006  0.1330
  182SLPC  H11X20917   5.743   6.386   9.400  1.5052  0.1381  1.3832
  182SLPC  H11Y20918   5.663   6.239   9.369  0.1660 -1.9823 -0.9976
  182SLPC  C31220919   5.793   6.272   9.217  0.4612  0.9892  0.6012
  182SLPC  H12X20920   5.792   6.164   9.191 -2.0673  0.9625  0.5489
  182SLPC  H12Y20921   5.899   6.295   9.192  1.8378 -3.5204  1.4427
  182SLPC  C31320922   5.700   6.350   9.127  0.1417 -0.0564 -0.0797
  182SLPC  H13X20923   5.732   6.456   9.135  0.9250 -0.2841 -0.1702
  182SLPC  H13Y20924   5.596   6.355   9.166  0.5709 -3.0154  1.7192
  182SLPC  C31420925   5.692   6.290   8.986  0.0858  0.6892  0.7353
  182SLPC  H14X20926   5.655   6.188   9.006  2.6337 -0.2468  1.0489
  182SLPC  H14Y20927   5.796   6.274   8.949 -1.1386 -3.1169 -1.6085
  182SLPC  C31520928   5.618   6.385   8.883 -0.6377 -0.6044  0.0841
  182SLPC  H15X20929   5.527   6.423   8.935 -0.1651  1.7604 -0.6951
  182SLPC  H15Y20930   5.588   6.339   8.787 -0.4319  0.9250 -0.7452
  182SLPC  C31620931   5.713   6.500   8.847 -0.2544  0.3988  0.8184
  182SLPC  H16X20932   5.791   6.463   8.777 -2.7751  0.9426 -2.5672
  182SLPC  H16Y20933   5.759   6.532   8.943  1.1952 -3.2410  1.4668
  182SLPC  C31720934   5.630   6.616   8.786 -0.0729  1.1448  0.2370
  182SLPC  H17X20935   5.697   6.702   8.768  3.0247 -1.0053  0.7413
  182SLPC  H17Y20936   5.550   6.641   8.860 -0.5133 -0.6739  0.4373
  182SLPC  C31820937   5.554   6.580   8.660 -0.1832 -0.3668 -0.4496
  182SLPC  H18X20938   5.624   6.528   8.591 -0.2230 -0.7479 -0.2064
  182SLPC  H18Y20939   5.510   6.667   8.608 -2.5603 -1.5701 -0.6041
  182SLPC  H18Z20940   5.468   6.510   8.671 -0.8011  0.2171 -1.4386
  183SLPC     N20941   3.079   4.999  10.829  0.1042 -0.3791 -0.2038
  183SLPC   C1320942   2.956   4.977  10.916  0.1854  0.3193 -0.1199
  183SLPC  H13A20943   2.877   4.942  10.851  0.4486 -0.4949 -0.0164
  183SLPC  H13B20944   2.973   4.912  11.001  0.0230 -1.2688 -1.2642
  183SLPC  H13C20945   2.920   5.075  10.942 -0.2570 -0.6260  3.3735
  183SLPC   C1420946   3.130   4.872  10.780  0.6305 -0.3221 -0.1663
  183SLPC  H14A20947   3.217   4.873  10.716 -1.0461 -0.0975 -2.5716
  183SLPC  H14B20948   3.149   4.796  10.855  2.8446  1.5794  1.3200
  183SLPC  H14C20949   3.055   4.827  10.716  0.1801 -0.5150  0.4822
  183SLPC   C1520950   3.185   5.068  10.913  0.3662  0.2617 -0.1754
  183SLPC  H15A20951   3.237   5.006  10.985  0.2355 -0.3961 -0.6338
  183SLPC  H15B20952   3.267   5.105  10.852  1.3953  2.1964  2.2224
  183SLPC  H15C20953   3.141   5.155  10.959  0.9686 -0.2737  1.4585
  183SLPC   C1220954   3.045   5.104  10.719  0.2775  0.7706  0.4170
  183SLPC  H12A20955   3.137   5.131  10.670  0.6272 -0.1532  0.5493
  183SLPC  H12B20956   2.998   5.188  10.770  0.6125  0.2298  1.6645
  183SLPC   C1120957   2.939   5.068  10.608  0.3494  0.6249 -0.1798
  183SLPC  H11A20958   2.964   4.972  10.558 -3.0366 -1.1436  1.2352
  183SLPC  H11B20959   2.927   5.144  10.528 -1.0320  0.5200 -0.0836
  183SLPC     P20960   2.708   5.161  10.705  0.0269 -0.1274  0.6561
  183SLPC   O1320961   2.581   5.088  10.735  0.3762 -0.4234  0.2530
  183SLPC   O1420962   2.761   5.247  10.810 -0.0158  0.0617  0.2492
  183SLPC   O1220963   2.814   5.049  10.674  0.8680 -0.3495  0.7125
  183SLPC   O1120964   2.697   5.243  10.570 -0.1499  0.0259  0.3338
  183SLPC    C120965   2.740   5.383  10.572  0.2524  0.4091 -0.1101
  183SLPC    HA20966   2.693   5.452  10.645  0.8440 -0.5011  1.1512
  183SLPC    HB20967   2.849   5.390  10.590  0.2628 -1.6148  0.8441
  183SLPC    C220968   2.726   5.448  10.434  0.0496 -0.0635  0.3753
  183SLPC    HS20969   2.801   5.529  10.431  2.1628 -1.8834  1.3442
  183SLPC   O2120970   2.590   5.495  10.412 -0.4502 -0.6818  0.0348
  183SLPC   C2120971   2.578   5.596  10.331 -0.2191 -0.1943 -0.6476
  183SLPC   O2220972   2.656   5.656  10.267 -0.2484  0.1317  0.2527
  183SLPC   C2220973   2.431   5.631  10.322  0.9587 -0.9675  0.2429
  183SLPC   H2R20974   2.400   5.638  10.428 -0.4224  0.0819 -0.1887
  183SLPC   H2S20975   2.434   5.737  10.287  0.7191 -1.2409 -0.6421
  183SLPC    C320976   2.751   5.341  10.322  0.3182 -0.3944  0.5986
  183SLPC    HX20977   2.662   5.277  10.335 -2.0045  2.3672 -0.6398
  183SLPC    HY20978   2.853   5.300  10.339 -0.3059 -1.7767  1.1727
  183SLPC   O3120979   2.743   5.400  10.186 -0.6587 -0.1634  0.1379
  183SLPC   C3120980   2.855   5.466  10.147  0.4131 -0.0267 -0.0016
  183SLPC   O3220981   2.954   5.494  10.214 -0.4481  0.6170  0.0396
  183SLPC   C3220982   2.837   5.503  10.002 -0.2685  0.2585 -0.8676
  183SLPC   H2X20983   2.776   5.594   9.989 -0.1714  0.4821  0.1351
  183SLPC   H2Y20984   2.787   5.414   9.957 -0.1631  0.9800 -2.4658
  183SLPC   C2320985   2.348   5.544  10.229 -0.0121  0.4366  0.3339
  183SLPC   H3R20986   2.243   5.575  10.244 -0.4542 -0.7466 -0.1976
  183SLPC   H3S20987   2.347   5.439  10.263 -1.4441  0.3891  0.1899
  183SLPC   C2420988   2.390   5.557  10.081 -0.4487 -0.3246 -0.4298
  183SLPC   H4R20989   2.344   5.482  10.014  1.9053 -1.6099 -0.6985
  183SLPC   H4S20990   2.496   5.530  10.093 -0.6394 -0.5090  1.0388
  183SLPC   C2520991   2.356   5.700  10.019  0.0650  0.5703  0.0480
  183SLPC   H5R20992   2.446   5.738   9.968  0.8830 -1.5171 -0.1570
  183SLPC   H5S20993   2.336   5.773  10.101  0.0383  0.1870  0.3911
  183SLPC   C2620994   2.231   5.700   9.927 -0.2111 -0.2847  0.8881
  183SLPC   H6R20995   2.210   5.809   9.917 -1.6819 -0.6854 -0.7692
  183SLPC   H6S20996   2.141   5.663   9.980 -0.2747  1.8708  2.4270
  183SLPC   C2720997   2.265   5.635   9.797  0.2228  0.2349 -0.4826
  183SLPC   H7R20998   2.279   5.528   9.822  0.5647  0.5882  0.9431
  183SLPC   H7S20999   2.363   5.677   9.764  0.6223 -0.2048  0.1398
  183SLPC   C2821000   2.160   5.654   9.685 -0.4956 -0.9597 -0.1320
  183SLPC   H8R21001   2.061   5.607   9.707 -1.5501  0.2906 -1.9478
  183SLPC   H8S21002   2.192   5.606   9.590 -1.3293  1.3993 -1.6961
  183SLPC   C2921003   2.147   5.804   9.660  0.2710  1.0087  0.1036
  183SLPC   H9R21004   2.176   5.865   9.746 -1.4744  3.0142 -0.6443
  183SLPC  C21021005   2.091   5.866   9.554 -1.3430 -0.0523 -0.1520
  183SLPC  H10R21006   2.127   5.968   9.535  2.0499 -1.2577 -0.9155
  183SLPC  C21121007   2.031   5.785   9.441 -0.2391 -0.4887 -0.3976
  183SLPC  H11R21008   1.936   5.832   9.406 -0.6792 -2.1958 -1.6220
  183SLPC  H11S21009   1.997   5.687   9.480  0.5905 -0.4774  0.3903
  183SLPC  C21221010   2.127   5.764   9.326  0.0754 -0.0394  0.8022
  183SLPC  H12R21011   2.233   5.784   9.344  0.6143 -1.8345 -0.1777
  183SLPC  C21321012   2.086   5.703   9.209 -0.8076  0.3346 -0.0531
  183SLPC  H13R21013   2.157   5.684   9.127 -0.2115 -3.0425  1.0883
  183SLPC  C21421014   1.946   5.650   9.177  0.1317 -0.5928  0.3268
  183SLPC  H14R21015   1.894   5.612   9.267 -0.3867  1.9558  1.1950
  183SLPC  H14S21016   1.958   5.561   9.112 -0.8766  0.0335 -0.7504
  183SLPC  C21521017   1.856   5.757   9.116 -0.3853 -0.7768  0.1296
  183SLPC  H15R21018   1.908   5.778   9.020  1.6430 -2.8134  0.6870
  183SLPC  H15S21019   1.853   5.845   9.183 -0.3676 -0.5476 -0.1732
  183SLPC  C21621020   1.714   5.702   9.082  0.0689 -0.2657 -0.3532
  183SLPC  H16R21021   1.650   5.781   9.037 -1.0116 -1.1180 -0.3562
  183SLPC  H16S21022   1.677   5.669   9.182  2.8375 -1.2771  0.4305
  183SLPC  C21721023   1.717   5.589   8.981  0.0294 -0.3478  0.2867
  183SLPC  H17R21024   1.745   5.497   9.036 -1.9968  0.0816  2.1871
  183SLPC  H17S21025   1.796   5.607   8.906 -0.4025  1.3501  0.1887
  183SLPC  C21821026   1.585   5.569   8.901  0.5431  0.0403 -0.1674
  183SLPC  H18R21027   1.595   5.491   8.823 -1.7714 -2.2190  1.6238
  183SLPC  H18S21028   1.561   5.671   8.862  1.0152  1.0291  1.9798
  183SLPC  H18T21029   1.499   5.539   8.966  1.9376  0.5718  2.0524
  183SLPC   C3321030   2.971   5.513   9.935 -0.0346 -0.3627 -0.8503
  183SLPC   H3X21031   3.041   5.432   9.966  1.2207  0.9910  0.0098
  183SLPC   H3Y21032   3.027   5.607   9.956  3.5061 -2.0388 -2.0360
  183SLPC   C3421033   2.960   5.515   9.787  0.1883 -0.0760  0.4760
  183SLPC   H4X21034   2.907   5.604   9.748 -1.1728 -1.8137 -1.8834
  183SLPC   H4Y21035   2.893   5.430   9.761 -0.4589  0.4582  0.3615
  183SLPC   C3521036   3.095   5.496   9.716  0.5573 -0.3035  0.2474
  183SLPC   H5X21037   3.138   5.397   9.746  3.0563  0.3962 -0.7709
  183SLPC   H5Y21038   3.170   5.569   9.752 -0.7257  1.2260 -0.1170
  183SLPC   C3621039   3.092   5.502   9.562  0.3469 -0.1308  0.7113
  183SLPC   H6X21040   3.067   5.607   9.534  0.8266 -0.0950  0.3967
  183SLPC   H6Y21041   3.016   5.434   9.517 -0.3426  1.2914 -0.3491
  183SLPC   C3721042   3.232   5.459   9.505  0.0552  0.8003  0.7871
  183SLPC   H7X21043   3.255   5.365   9.560 -2.2230 -0.0530  0.3897
  183SLPC   H7Y21044   3.310   5.537   9.521 -0.0983  1.5962 -1.9197
  183SLPC   C3821045   3.227   5.431   9.354  0.0392 -0.3668 -0.9692
  183SLPC   H8X21046   3.328   5.444   9.309  0.4625  0.8789  0.2475
  183SLPC   H8Y21047   3.145   5.492   9.310 -0.0276 -0.5239 -1.0613
  183SLPC   C3921048   3.183   5.289   9.328  0.6850  0.1178  0.4123
  183SLPC   H9X21049   3.079   5.283   9.369  0.5417  1.9956  0.4267
  183SLPC   H9Y21050   3.245   5.217   9.384  1.5209 -0.5378 -1.3021
  183SLPC  C31021051   3.186   5.259   9.176 -0.8125 -0.8604 -0.0952
  183SLPC  H10X21052   3.289   5.267   9.134 -0.9714 -0.3196 -0.3955
  183SLPC  H10Y21053   3.129   5.342   9.128  0.7842  0.1406 -0.3335
  183SLPC  C31121054   3.135   5.116   9.145  0.8026  0.1781 -0.3177
  183SLPC  H11X21055   3.024   5.122   9.147  0.8086  0.6768 -1.0093
  183SLPC  H11Y21056   3.175   5.043   9.218  0.3448  0.5333  0.2920
  183SLPC  C31221057   3.160   5.063   8.999  0.2436 -0.6282 -0.1063
  183SLPC  H12X21058   3.125   4.958   8.996 -2.0775 -0.0302  2.2601
  183SLPC  H12Y21059   3.271   5.058   8.992  0.4451 -1.3992  2.4586
  183SLPC  C31321060   3.080   5.138   8.887  0.7000  0.0519  0.5065
  183SLPC  H13X21061   3.131   5.116   8.791 -1.5374 -1.9290 -0.3105
  183SLPC  H13Y21062   3.077   5.246   8.912  1.3337 -0.0308  0.9984
  183SLPC  C31421063   2.937   5.084   8.866  0.0611  0.4430  0.0671
  183SLPC  H14X21064   2.879   5.091   8.960 -1.8805  0.6268 -1.0872
  183SLPC  H14Y21065   2.946   4.980   8.828  2.7414  0.5433  0.2729
  183SLPC  C31521066   2.850   5.171   8.771  0.4968  0.0321 -0.0753
  183SLPC  H15X21067   2.839   5.269   8.823 -0.2611  0.2497 -0.6253
  183SLPC  H15Y21068   2.745   5.135   8.758  1.1088 -1.2011 -2.0543
  183SLPC  C31621069   2.910   5.211   8.636  0.0809 -0.3053  0.1604
  183SLPC  H16X21070   3.020   5.227   8.641 -0.2573  2.8342 -0.0480
  183SLPC  H16Y21071   2.868   5.310   8.607 -0.3055 -0.5044  0.0291
  183SLPC  C31721072   2.881   5.121   8.516  0.0608 -0.4651 -0.4756
  183SLPC  H17X21073   2.774   5.090   8.520  0.0082 -0.2701 -0.3814
  183SLPC  H17Y21074   2.938   5.025   8.521 -2.3402 -1.9708 -0.2876
  183SLPC  C31821075   2.893   5.185   8.379  0.3602 -0.6453 -0.1424
  183SLPC  H18X21076   3.000   5.182   8.350 -0.0353 -0.1678 -1.7150
  183SLPC  H18Y21077   2.858   5.290   8.390  0.8857 -0.6047  1.4693
  183SLPC  H18Z21078   2.834   5.126   8.306  3.5228 -0.8379 -2.7482
  184SLPC     N21079   4.670   1.991  10.767  0.2072 -0.1154  0.1500
  184SLPC   C1321080   4.636   2.039  10.909 -1.0200 -0.3954  0.9008
  184SLPC  H13A21081   4.593   2.138  10.919 -1.9604 -0.9512  2.9955
  184SLPC  H13B21082   4.568   1.973  10.961  0.4444 -2.1852  0.6285
  184SLPC  H13C21083   4.721   2.048  10.975 -0.9670  1.6860  0.6170
  184SLPC   C1421084   4.756   1.875  10.771  0.5789 -0.5576  0.7539
  184SLPC  H14A21085   4.842   1.902  10.829 -0.4334  3.7576  0.6038
  184SLPC  H14B21086   4.703   1.791  10.813 -0.7263 -2.2069 -3.6160
  184SLPC  H14C21087   4.787   1.854  10.669  0.0363 -1.2248  0.7181
  184SLPC   C1521088   4.755   2.099  10.712  0.0370  0.0742 -0.1414
  184SLPC  H15A21089   4.721   2.201  10.725  0.8907  0.5497 -1.4224
  184SLPC  H15B21090   4.849   2.096  10.765  0.5292  4.4231 -0.4044
  184SLPC  H15C21091   4.778   2.086  10.607 -0.8468  1.0302 -0.4742
  184SLPC   C1221092   4.543   1.970  10.689  0.1752 -0.0289  0.9162
  184SLPC  H12A21093   4.566   1.964  10.584 -0.1465  1.9141  0.6872
  184SLPC  H12B21094   4.485   2.061  10.698 -0.0645 -0.3081  2.4854
  184SLPC   C1121095   4.469   1.843  10.730  0.3939 -0.3715  0.7157
  184SLPC  H11A21096   4.396   1.867  10.810 -1.0614 -0.7579 -0.4496
  184SLPC  H11B21097   4.537   1.772  10.782 -0.4430 -0.5038  1.6601
  184SLPC     P21098   4.425   1.626  10.577  0.0222 -0.0010 -0.6096
  184SLPC   O1321099   4.459   1.549  10.698  0.9431  0.7715  0.1047
  184SLPC   O1421100   4.313   1.585  10.496  0.5907  0.4441 -0.0944
  184SLPC   O1221101   4.403   1.779  10.621  0.4353 -0.0313  0.2521
  184SLPC   O1121102   4.559   1.634  10.487  0.1034 -0.8279  0.3037
  184SLPC    C121103   4.540   1.680  10.351 -0.2202  0.2574  0.5195
  184SLPC    HA21104   4.452   1.748  10.349 -0.5244 -0.1247  0.7926
  184SLPC    HB21105   4.628   1.738  10.316 -0.2367  1.0848  1.7942
  184SLPC    C221106   4.512   1.569  10.248  0.4085 -0.1343  0.5796
  184SLPC    HS21107   4.457   1.485  10.297  1.9703 -2.3035 -1.1837
  184SLPC   O2121108   4.631   1.513  10.191 -0.0284  0.2760  0.3042
  184SLPC   C2121109   4.637   1.384  10.169  0.3376 -0.0966 -0.5045
  184SLPC   O2221110   4.558   1.304  10.210  0.0944 -0.6587  0.3282
  184SLPC   C2221111   4.763   1.359  10.085  0.4236  0.4954 -0.1746
  184SLPC   H2R21112   4.821   1.452  10.068 -2.0758  1.8927 -1.7049
  184SLPC   H2S21113   4.825   1.304  10.158 -1.9879  0.4453  1.9849
  184SLPC    C321114   4.417   1.631  10.133  0.1324  0.0965 -0.2819
  184SLPC    HX21115   4.469   1.715  10.083  0.1524  2.1124  2.8182
  184SLPC    HY21116   4.333   1.683  10.184  0.0713  0.7169 -1.0001
  184SLPC   O3121117   4.389   1.526  10.038  0.1511  0.5285  0.3209
  184SLPC   C3121118   4.280   1.458  10.061  0.2838  0.3557 -0.3809
  184SLPC   O3221119   4.196   1.474  10.148  0.4709  0.0894  0.1816
  184SLPC   C3221120   4.275   1.341   9.959  0.8536  0.5448  0.6643
  184SLPC   H2X21121   4.287   1.251  10.024 -0.3207 -0.4492 -0.4448
  184SLPC   H2Y21122   4.361   1.335   9.888  1.0662 -1.3800  1.0197
  184SLPC   C2321123   4.724   1.262   9.970 -0.1778 -0.5236  0.6528
  184SLPC   H3R21124   4.653   1.193  10.020 -1.2925 -0.0773 -0.2717
  184SLPC   H3S21125   4.802   1.198   9.925 -0.3991 -0.1405 -0.3057
  184SLPC   C2421126   4.662   1.350   9.856 -0.1326  0.3632 -0.1937
  184SLPC   H4R21127   4.726   1.437   9.834  0.8336 -0.8557 -2.5034
  184SLPC   H4S21128   4.565   1.393   9.891  0.3360  0.3524  1.1730
  184SLPC   C2521129   4.627   1.274   9.730 -0.1146 -0.7139 -0.4732
  184SLPC   H5R21130   4.553   1.343   9.683  0.1475  0.6078  1.0135
  184SLPC   H5S21131   4.579   1.176   9.752 -1.4317 -0.1288 -0.6425
  184SLPC   C2621132   4.734   1.255   9.625  0.0537 -0.3815  0.4260
  184SLPC   H6R21133   4.817   1.194   9.666 -0.5869  0.0163  2.4279
  184SLPC   H6S21134   4.767   1.358   9.598 -1.6471  0.3173  0.8491
  184SLPC   C2721135   4.673   1.180   9.510  0.2476 -0.3947 -0.2043
  184SLPC   H7R21136   4.614   1.094   9.548  2.0781 -0.9902  1.4295
  184SLPC   H7S21137   4.761   1.135   9.459  1.3385 -0.8248  1.9453
  184SLPC   C2821138   4.592   1.264   9.409 -0.5002  0.6900 -0.5709
  184SLPC   H8R21139   4.525   1.337   9.459 -1.5673 -0.9472  0.4592
  184SLPC   H8S21140   4.524   1.189   9.363  0.1973  0.5360 -1.3761
  184SLPC   C2921141   4.689   1.329   9.307  0.5628 -0.3994 -0.0050
  184SLPC   H9R21142   4.733   1.424   9.342  1.6398 -0.6835 -0.5275
  184SLPC  C21021143   4.712   1.297   9.181  0.5568 -0.3192  0.3071
  184SLPC  H10R21144   4.776   1.366   9.123 -0.2197  0.1169 -0.0433
  184SLPC  C21121145   4.639   1.176   9.111 -0.2032 -0.0628 -0.4472
  184SLPC  H11R21146   4.640   1.093   9.185  1.8986 -0.5493 -0.9632
  184SLPC  H11S21147   4.693   1.146   9.019  1.9384 -1.8669  1.2800
  184SLPC  C21221148   4.489   1.207   9.079 -0.0214  0.1625 -0.2035
  184SLPC  H12R21149   4.423   1.240   9.161 -1.0335 -0.7030 -0.6340
  184SLPC  C21321150   4.427   1.199   8.959 -0.3506  0.3235 -0.0256
  184SLPC  H13R21151   4.319   1.215   8.965 -0.6322 -1.4684  0.3214
  184SLPC  C21421152   4.475   1.152   8.832 -0.5463 -0.0478 -0.1543
  184SLPC  H14R21153   4.411   1.074   8.785 -0.4560  0.7751 -1.6971
  184SLPC  H14S21154   4.574   1.102   8.839 -0.9293 -0.9286 -0.8694
  184SLPC  C21521155   4.490   1.282   8.742  0.3115  0.1002 -0.0949
  184SLPC  H15R21156   4.544   1.368   8.786  0.3311 -0.0184  0.1133
  184SLPC  H15S21157   4.393   1.330   8.716  1.2388  1.2505 -1.6010
  184SLPC  C21621158   4.547   1.262   8.599  1.0097  0.3032  0.0636
  184SLPC  H16R21159   4.547   1.358   8.544  0.4389 -0.7576 -1.8560
  184SLPC  H16S21160   4.489   1.185   8.543 -1.1493  0.5525  1.8040
  184SLPC  C21721161   4.694   1.212   8.599 -0.2445 -0.2545  0.3760
  184SLPC  H17R21162   4.706   1.107   8.631 -0.5084 -0.8659 -1.4068
  184SLPC  H17S21163   4.745   1.270   8.679 -0.0786 -1.6132  1.2738
  184SLPC  C21821164   4.768   1.213   8.461  0.5708  0.0606  0.0208
  184SLPC  H18R21165   4.706   1.152   8.392 -1.2679 -0.0211  1.6608
  184SLPC  H18S21166   4.874   1.182   8.470  0.2345 -1.3232 -0.5651
  184SLPC  H18T21167   4.764   1.319   8.426 -0.5622  0.1821  0.4744
  184SLPC   C3321168   4.132   1.317   9.893  0.3719 -0.5205  0.1056
  184SLPC   H3X21169   4.046   1.338   9.961 -0.9031 -2.4265 -0.8215
  184SLPC   H3Y21170   4.131   1.212   9.858 -0.2852  0.0498 -1.6874
  184SLPC   C3421171   4.103   1.414   9.778 -0.0201 -0.0318  0.5193
  184SLPC   H4X21172   4.097   1.517   9.820 -2.4175  1.0360 -2.0692
  184SLPC   H4Y21173   4.001   1.386   9.743  0.2868 -0.2320 -0.2220
  184SLPC   C3521174   4.193   1.414   9.647 -0.2187  0.3871  0.4305
  184SLPC   H5X21175   4.301   1.420   9.674 -0.1484  2.2474 -0.1657
  184SLPC   H5Y21176   4.160   1.506   9.596  0.0013  0.7597  0.9496
  184SLPC   C3621177   4.161   1.291   9.555 -0.1238 -0.7333  0.0330
  184SLPC   H6X21178   4.050   1.282   9.560 -0.3288  1.2265 -0.2081
  184SLPC   H6Y21179   4.207   1.195   9.587  0.1940 -0.1209  1.5195
  184SLPC   C3721180   4.196   1.330   9.409  0.1233  0.5648  0.9001
  184SLPC   H7X21181   4.305   1.348   9.402  0.3938 -0.0627  2.8522
  184SLPC   H7Y21182   4.147   1.428   9.393 -3.2931 -1.3088 -1.4291
  184SLPC   C3821183   4.122   1.236   9.307 -0.0922  0.1954 -0.0093
  184SLPC   H8X21184   4.027   1.217   9.362 -0.7030  0.3439 -0.9824
  184SLPC   H8Y21185   4.184   1.144   9.298  0.4681  0.4831  0.8624
  184SLPC   C3921186   4.098   1.301   9.171  0.0761 -0.7258 -0.0072
  184SLPC   H9X21187   4.200   1.318   9.131 -0.6395  1.2022 -1.1299
  184SLPC   H9Y21188   4.039   1.393   9.191  0.5367 -0.1827 -1.0623
  184SLPC  C31021189   4.021   1.216   9.064  0.3371 -0.3626 -0.0290
  184SLPC  H10X21190   3.917   1.210   9.103  0.5660 -4.0022  0.3682
  184SLPC  H10Y21191   4.060   1.113   9.080  0.8637 -0.4010 -1.4890
  184SLPC  C31121192   4.028   1.271   8.921 -0.6782  0.2551  0.5914
  184SLPC  H11X21193   4.068   1.190   8.856 -0.9392 -0.3168  1.1343
  184SLPC  H11Y21194   4.098   1.357   8.910 -1.0354  0.4077 -0.6961
  184SLPC  C31221195   3.902   1.303   8.852 -0.9899  0.2078 -0.6543
  184SLPC  H12X21196   3.838   1.345   8.932 -1.1488  0.0401 -0.6937
  184SLPC  H12Y21197   3.849   1.213   8.813  0.7094 -1.6202  1.0125
  184SLPC  C31321198   3.929   1.398   8.736 -0.0866 -0.0033  0.0500
  184SLPC  H13X21199   3.998   1.338   8.672 -0.6818 -2.2807  1.3991
  184SLPC  H13Y21200   3.987   1.481   8.782 -0.0513  2.0333 -3.3516
  184SLPC  C31421201   3.809   1.463   8.669 -0.3602 -0.6010  0.1159
  184SLPC  H14X21202   3.837   1.507   8.571  1.0537  0.9079  1.1404
  184SLPC  H14Y21203   3.755   1.536   8.733 -2.1009 -1.3914 -0.3825
  184SLPC  C31521204   3.696   1.358   8.634 -0.4274  0.2823 -0.0469
  184SLPC  H15X21205   3.655   1.315   8.728 -2.0325  0.6152 -0.5585
  184SLPC  H15Y21206   3.747   1.272   8.586 -0.6998  0.6076 -0.9455
  184SLPC  C31621207   3.579   1.403   8.539  0.3024 -0.0306  0.6306
  184SLPC  H16X21208   3.534   1.316   8.487 -1.1166  0.6739  0.6428
  184SLPC  H16Y21209   3.610   1.469   8.455 -0.9122  2.1370  1.8079
  184SLPC  C31721210   3.470   1.477   8.611  0.6337 -0.0610  0.9251
  184SLPC  H17X21211   3.512   1.528   8.700  0.7131  1.3892  0.0996
  184SLPC  H17Y21212   3.407   1.399   8.658 -1.3558  0.3452 -0.9009
  184SLPC  C31821213   3.386   1.578   8.535 -0.0505  0.1225  0.4805
  184SLPC  H18X21214   3.442   1.674   8.532  3.6074 -1.5713  4.5336
  184SLPC  H18Y21215   3.285   1.594   8.578 -0.0908 -1.5783  1.0678
  184SLPC  H18Z21216   3.370   1.533   8.434 -1.4597 -2.3179  1.7086
  185SLPC     N21217   2.348   0.307   5.841 -0.0214  0.0379  0.5727
  185SLPC   C1321218   2.444   0.306   5.719  0.2459  0.7354 -0.2745
  185SLPC  H13A21219   2.533   0.253   5.750 -0.6704 -1.8178 -1.7173
  185SLPC  H13B21220   2.389   0.250   5.645 -0.3547  0.8936  0.0418
  185SLPC  H13C21221   2.473   0.403   5.683 -0.5219  1.1347  0.1521
  185SLPC   C1421222   2.216   0.354   5.773  0.1783 -0.2897  0.2062
  185SLPC  H14A21223   2.171   0.291   5.697  2.2520 -0.8392 -0.6276
  185SLPC  H14B21224   2.147   0.361   5.856  0.1537  4.9108  0.0382
  185SLPC  H14C21225   2.221   0.457   5.743 -0.3174 -0.2057  0.3990
  185SLPC   C1521226   2.390   0.411   5.935 -0.4037  0.5712  0.0289
  185SLPC  H15A21227   2.395   0.515   5.906  0.3896  0.4791 -0.1865
  185SLPC  H15B21228   2.332   0.410   6.026  0.3609  0.2429  0.5319
  185SLPC  H15C21229   2.492   0.392   5.967 -0.2653  0.7139 -0.3254
  185SLPC   C1221230   2.342   0.167   5.895  0.5320 -0.2539  0.5022
  185SLPC  H12A21231   2.429   0.143   5.955 -0.7034 -1.7119  1.8007
  185SLPC  H12B21232   2.335   0.090   5.820 -2.1233 -0.6841  1.0881
  185SLPC   C1121233   2.228   0.130   5.992  0.4754  0.0237 -0.0852
  185SLPC  H11A21234   2.241   0.025   6.023  0.7541 -0.1766 -0.8484
  185SLPC  H11B21235   2.129   0.143   5.943  0.6207  1.8232  0.0321
  185SLPC     P21236   2.318   0.201   6.240  0.2227  0.1298  0.2350
  185SLPC   O1321237   2.452   0.161   6.200  0.2091 -0.0317  0.2267
  185SLPC   O1421238   2.309   0.335   6.301 -0.3200 -0.0102 -0.0919
  185SLPC   O1221239   2.231   0.205   6.109  0.4806 -0.0184 -0.2475
  185SLPC   O1121240   2.250   0.089   6.330 -0.0776 -0.0157  0.0707
  185SLPC    C121241   2.114   0.098   6.372 -0.5816  0.1907 -0.2656
  185SLPC    HA21242   2.056   0.179   6.323 -1.5318 -0.3400 -0.0538
  185SLPC    HB21243   2.057   0.007   6.343 -1.3150  0.3306  0.6670
  185SLPC    C221244   2.115   0.102   6.530  0.6581 -0.1546  0.2025
  185SLPC    HS21245   2.013   0.114   6.572  0.6783 -1.2357  0.6148
  185SLPC   O2121246   2.191   0.214   6.573 -0.7476  0.2591 -0.0136
  185SLPC   C2121247   2.157   0.335   6.544  0.2532 -0.0178  0.1565
  185SLPC   O2221248   2.051   0.362   6.483 -0.3819 -0.5203 -0.1465
  185SLPC   C2221249   2.249   0.443   6.601  0.2016  0.6246  0.1207
  185SLPC   H2R21250   2.330   0.396   6.661  1.2357 -0.8319 -2.2777
  185SLPC   H2S21251   2.309   0.489   6.520 -0.2568  0.7319 -0.1625
  185SLPC    C321252   2.177  -0.025   6.590  0.6636  0.3689 -0.0083
  185SLPC    HX21253   2.286  -0.030   6.572  0.8217 -1.5736  1.1589
  185SLPC    HY21254   2.140  -0.116   6.539 -0.9225  1.5915 -1.1471
  185SLPC   O3121255   2.138  -0.028   6.726  0.4078  0.7376 -0.0637
  185SLPC   C3121256   2.243  -0.027   6.818  0.5344 -0.3880  0.7596
  185SLPC   O3221257   2.358  -0.006   6.798 -0.1912  0.1278  0.5238
  185SLPC   C3221258   2.184  -0.054   6.955  0.0808  0.2520  0.9480
  185SLPC   H2X21259   2.141  -0.156   6.950  0.8026 -0.0277  0.1595
  185SLPC   H2Y21260   2.100   0.017   6.969  0.8926  1.2346  0.9522
  185SLPC   C2321261   2.177   0.565   6.667  0.2707  0.3698 -0.3116
  185SLPC   H3R21262   2.088   0.578   6.603 -0.7578  1.4347  1.2775
  185SLPC   H3S21263   2.246   0.652   6.668  1.0136 -0.2068  0.8304
  185SLPC   C2421264   2.146   0.539   6.811  0.6268 -0.0819  0.1216
  185SLPC   H4R21265   2.100   0.631   6.853  1.3857 -0.7905  2.6219
  185SLPC   H4S21266   2.233   0.504   6.869  0.8077 -1.8514 -1.1316
  185SLPC   C2521267   2.042   0.431   6.840  0.0365  0.1715 -0.2694
  185SLPC   H5R21268   2.076   0.327   6.817  1.0081  0.5377 -0.5576
  185SLPC   H5S21269   1.950   0.445   6.779 -0.1833 -0.5471 -0.1101
  185SLPC   C2621270   2.008   0.432   6.987 -0.0278  0.1168  0.2221
  185SLPC   H6R21271   1.930   0.355   7.002 -0.7620  0.7265 -0.4287
  185SLPC   H6S21272   1.981   0.532   7.026  4.3135  0.8830  1.7966
  185SLPC   C2721273   2.128   0.388   7.079  0.3969  0.1032 -0.0563
  185SLPC   H7R21274   2.197   0.471   7.103  1.3436 -0.8900  0.7585
  185SLPC   H7S21275   2.194   0.320   7.021  0.5133 -0.4690  0.7146
  185SLPC   C2821276   2.078   0.311   7.208 -0.4507 -0.3068 -0.0440
  185SLPC   H8R21277   2.161   0.244   7.239 -0.3058 -0.1834 -0.1698
  185SLPC   H8S21278   2.000   0.236   7.181 -0.5345  0.0804 -0.8943
  185SLPC   C2921279   2.012   0.390   7.322  0.3558 -0.1819  0.3616
  185SLPC   H9R21280   1.955   0.482   7.298  1.4716  0.7574  1.1775
  185SLPC  C21021281   2.004   0.352   7.448 -0.6873 -0.4635 -0.0839
  185SLPC  H10R21282   1.950   0.412   7.523 -1.8085 -2.3327  0.6462
  185SLPC  C21121283   2.064   0.227   7.507  0.2141 -0.4543  0.4550
  185SLPC  H11R21284   2.104   0.167   7.422  0.9262  1.6976 -0.8076
  185SLPC  H11S21285   1.980   0.164   7.544 -0.1163  0.2820  0.9697
  185SLPC  C21221286   2.178   0.261   7.595 -0.2770 -0.2414 -0.2937
  185SLPC  H12R21287   2.272   0.240   7.543 -0.5421 -1.7949 -0.1871
  185SLPC  C21321288   2.181   0.299   7.724  0.4792 -0.4854 -0.3074
  185SLPC  H13R21289   2.274   0.305   7.782 -0.1870 -2.3516  1.0590
  185SLPC  C21421290   2.056   0.334   7.796 -0.3762  0.1918  1.2315
  185SLPC  H14R21291   1.977   0.258   7.775  0.0674  0.2241 -0.7912
  185SLPC  H14S21292   2.016   0.427   7.749 -1.2244 -0.3847  0.7805
  185SLPC  C21521293   2.078   0.320   7.946 -0.5250  0.0376  0.6261
  185SLPC  H15R21294   1.981   0.366   7.974 -0.4555  0.4213  0.2526
  185SLPC  H15S21295   2.160   0.390   7.975  0.4170 -0.1772 -1.3493
  185SLPC  C21621296   2.092   0.177   7.992  0.6355  0.9562  0.4787
  185SLPC  H16R21297   2.185   0.127   7.957  0.3285 -0.4088  1.5442
  185SLPC  H16S21298   2.015   0.115   7.941  1.6723 -1.6940  1.9534
  185SLPC  C21721299   2.064   0.148   8.143  0.1153 -0.0184 -0.1662
  185SLPC  H17R21300   2.074   0.037   8.138  0.1470 -0.0382  0.3145
  185SLPC  H17S21301   1.958   0.167   8.167 -0.9129 -2.6625 -2.0656
  185SLPC  C21821302   2.170   0.213   8.232 -0.3153  0.0967  0.4552
  185SLPC  H18R21303   2.183   0.323   8.228  2.2779 -0.1637 -0.9802
  185SLPC  H18S21304   2.266   0.163   8.204  0.0504  0.2119  1.4629
  185SLPC  H18T21305   2.136   0.194   8.336 -1.7369 -0.7906 -0.1451
  185SLPC   C3321306   2.302  -0.045   7.055 -0.0093 -0.6246 -0.2563
  185SLPC   H3X21307   2.334   0.061   7.052  0.2854 -0.7349 -1.7994
  185SLPC   H3Y21308   2.385  -0.111   7.020 -2.2956 -2.9123 -1.6847
  185SLPC   C3421309   2.251  -0.089   7.195 -0.6126 -0.6358  0.1292
  185SLPC   H4X21310   2.238  -0.200   7.192  1.5508 -0.9393  0.4135
  185SLPC   H4Y21311   2.152  -0.049   7.226 -1.3717 -2.0418 -0.3628
  185SLPC   C3521312   2.344  -0.041   7.317  0.4982 -0.0229 -0.5319
  185SLPC   H5X21313   2.357   0.070   7.314 -0.6326  0.0940 -1.6565
  185SLPC   H5Y21314   2.447  -0.076   7.294  0.7916 -1.3555  2.4100
  185SLPC   C3621315   2.304  -0.116   7.450 -0.0124  0.5721  0.2125
  185SLPC   H6X21316   2.360  -0.210   7.427 -1.0844  0.3319 -1.6894
  185SLPC   H6Y21317   2.198  -0.148   7.452  0.0841  0.2994  1.9772
  185SLPC   C3721318   2.355  -0.050   7.573  0.3631 -0.8407  0.1555
  185SLPC   H7X21319   2.282   0.030   7.597  1.0887 -0.0790 -0.1418
  185SLPC   H7Y21320   2.443   0.010   7.540 -0.5344  0.5106  0.1329
  185SLPC   C3821321   2.385  -0.141   7.686  0.5779  0.2104 -0.1669
  185SLPC   H8X21322   2.469  -0.207   7.656  0.0930 -0.7117  0.4492
  185SLPC   H8Y21323   2.301  -0.211   7.703 -0.2734  0.7046 -2.1041
  185SLPC   C3921324   2.430  -0.070   7.811 -0.0117 -0.2734  0.5152
  185SLPC   H9X21325   2.343  -0.015   7.852 -0.0610 -1.0761  1.5413
  185SLPC   H9Y21326   2.510   0.003   7.790  0.4867 -0.8166  0.5075
  185SLPC  C31021327   2.491  -0.167   7.918  1.5616  0.0451 -0.1419
  185SLPC  H10X21328   2.559  -0.245   7.877  4.4791  2.0824  0.5375
  185SLPC  H10Y21329   2.402  -0.229   7.947  0.6982  1.3962  0.1980
  185SLPC  C31121330   2.562  -0.103   8.039  0.3449 -0.3932 -0.3098
  185SLPC  H11X21331   2.496  -0.029   8.090  3.6527  1.3462  1.7528
  185SLPC  H11Y21332   2.647  -0.042   8.002  1.2442  0.9885  3.4945
  185SLPC  C31221333   2.611  -0.202   8.148 -0.3127  0.2661  0.4738
  185SLPC  H12X21334   2.684  -0.273   8.104 -0.3021 -0.1163  1.0928
  185SLPC  H12Y21335   2.524  -0.259   8.188 -0.8828  0.2169 -0.7820
  185SLPC  C31321336   2.687  -0.127   8.261 -0.1110 -0.1260 -0.0332
  185SLPC  H13X21337   2.608  -0.083   8.326 -0.4561 -1.4165  0.4432
  185SLPC  H13Y21338   2.749  -0.044   8.221  0.3310 -0.7997 -0.7776
  185SLPC  C31421339   2.798  -0.219   8.325 -0.1104 -0.1898 -0.5650
  185SLPC  H14X21340   2.862  -0.249   8.239 -1.8094 -2.1519 -1.2276
  185SLPC  H14Y21341   2.746  -0.310   8.361 -0.2825 -1.1262 -3.0032
  185SLPC  C31521342   2.865  -0.166   8.448  0.4488 -0.1176  0.7103
  185SLPC  H15X21343   2.919  -0.256   8.483 -0.4483 -1.7406 -1.7624
  185SLPC  H15Y21344   2.780  -0.141   8.515 -1.2137 -0.5987 -1.1168
  185SLPC  C31621345   2.953  -0.046   8.413 -0.2273 -0.0262 -0.1045
  185SLPC  H16X21346   2.872   0.026   8.389 -2.0075 -2.8647 -3.7478
  185SLPC  H16Y21347   3.024  -0.063   8.328  0.9619 -0.3849  0.9258
  185SLPC  C31721348   3.032   0.005   8.530 -0.1445  0.0788  0.2923
  185SLPC  H17X21349   2.967  -0.001   8.620  2.2196 -0.9060  2.0458
  185SLPC  H17Y21350   3.059   0.113   8.519  0.2352 -0.1247 -0.9087
  185SLPC  C31821351   3.179  -0.046   8.557 -0.5578 -0.4909  0.1252
  185SLPC  H18X21352   3.175  -0.151   8.593 -0.5710 -0.8092 -0.7795
  185SLPC  H18Y21353   3.229   0.019   8.632 -1.4254  0.0357  0.2624
  185SLPC  H18Z21354   3.247  -0.038   8.469  0.0181  0.3691  0.6296
  186SLPC     N21355   2.437   2.266   6.093 -0.5263  0.8144 -0.5082
  186SLPC   C1321356   2.414   2.411   6.067  0.8391  0.6069 -0.2423
  186SLPC  H13A21357   2.361   2.451   6.151  2.3417 -1.2481  1.6850
  186SLPC  H13B21358   2.504   2.469   6.051  1.2008  0.3221  0.6902
  186SLPC  H13C21359   2.359   2.431   5.976  1.6419  0.1533 -0.8435
  186SLPC   C1421360   2.510   2.209   5.974 -0.3813  0.2725  0.0358
  186SLPC  H14A21361   2.607   2.251   5.953 -0.7319  0.3189 -1.6806
  186SLPC  H14B21362   2.535   2.105   5.985 -0.3175  0.4309  1.5480
  186SLPC  H14C21363   2.444   2.222   5.889  1.2237  0.8346 -1.1591
  186SLPC   C1521364   2.313   2.184   6.108 -0.0094  0.1965  0.4451
  186SLPC  H15A21365   2.338   2.083   6.137 -1.6519  0.2934  2.4753
  186SLPC  H15B21366   2.254   2.227   6.188  0.4270  1.0819  0.3052
  186SLPC  H15C21367   2.245   2.172   6.026 -0.8903  0.1780  1.1616
  186SLPC   C1221368   2.526   2.251   6.213 -0.4635  0.1469 -0.5797
  186SLPC  H12A21369   2.473   2.293   6.297 -0.4468 -0.8232 -0.0663
  186SLPC  H12B21370   2.611   2.313   6.191 -0.1569  0.3302  0.9819
  186SLPC   C1121371   2.581   2.114   6.239  0.0423  0.4903  0.4668
  186SLPC  H11A21372   2.649   2.131   6.325  0.3730  3.5991 -0.2879
  186SLPC  H11B21373   2.632   2.076   6.148 -1.4455  1.4604 -0.8115
  186SLPC     P21374   2.481   1.873   6.217 -0.0017 -0.0512 -0.2453
  186SLPC   O1321375   2.386   1.788   6.288  0.0238 -0.1147  0.0603
  186SLPC   O1421376   2.452   1.886   6.073 -0.1636 -0.2586 -0.2195
  186SLPC   O1221377   2.482   2.019   6.279 -0.1851 -0.0014  0.1608
  186SLPC   O1121378   2.627   1.820   6.249 -0.2005 -0.0122  0.3921
  186SLPC    C121379   2.691   1.829   6.377 -0.1804 -0.5760 -0.3580
  186SLPC    HA21380   2.800   1.841   6.357 -0.4105  0.5351 -0.9941
  186SLPC    HB21381   2.650   1.911   6.439  0.5339  0.5995 -1.3804
  186SLPC    C221382   2.669   1.696   6.456  0.3712 -0.7480  0.3015
  186SLPC    HS21383   2.558   1.690   6.463  0.5008 -2.4808  1.5637
  186SLPC   O2121384   2.719   1.718   6.583  0.2711 -0.2012 -0.0047
  186SLPC   C2121385   2.656   1.648   6.678 -0.0924 -0.1609 -0.6962
  186SLPC   O2221386   2.556   1.582   6.669 -0.5193  0.4156  0.2212
  186SLPC   C2221387   2.745   1.656   6.799 -0.3498  0.0797 -0.7369
  186SLPC   H2R21388   2.852   1.653   6.769 -0.5104  2.8721 -1.8481
  186SLPC   H2S21389   2.728   1.754   6.850  1.5736  0.1679 -0.1739
  186SLPC    C321390   2.717   1.568   6.386 -0.1093 -0.2636  0.3023
  186SLPC    HX21391   2.672   1.578   6.285 -1.9699 -0.9965  1.0186
  186SLPC    HY21392   2.672   1.478   6.432  0.9683 -2.6607 -2.9131
  186SLPC   O3121393   2.862   1.564   6.373 -0.3756 -0.1616  0.1383
  186SLPC   C3121394   2.926   1.505   6.478 -0.0385  0.5257  0.0008
  186SLPC   O3221395   2.872   1.463   6.574 -0.5091 -0.1100 -0.5593
  186SLPC   C3221396   3.074   1.506   6.448  0.5615  1.0506 -0.0293
  186SLPC   H2X21397   3.091   1.494   6.339 -0.9187  0.0936 -0.1825
  186SLPC   H2Y21398   3.124   1.420   6.498  2.2742  1.2568 -1.2819
  186SLPC   C2321399   2.728   1.541   6.900  0.3304 -0.0870  0.1656
  186SLPC   H3R21400   2.732   1.443   6.849  0.4666  0.3919 -0.7677
  186SLPC   H3S21401   2.620   1.551   6.925  0.3735 -0.2416  0.4090
  186SLPC   C2421402   2.819   1.562   7.025 -0.2130  1.2781  0.1196
  186SLPC   H4R21403   2.861   1.664   7.035  1.4679  0.5746  0.5061
  186SLPC   H4S21404   2.903   1.491   7.013 -1.0446  0.4778 -1.3226
  186SLPC   C2521405   2.760   1.522   7.160  0.5688 -0.3293  0.2742
  186SLPC   H5R21406   2.761   1.411   7.159  0.1015 -0.3589  1.3094
  186SLPC   H5S21407   2.655   1.558   7.166  1.5049  3.1308 -1.4404
  186SLPC   C2621408   2.830   1.576   7.277 -0.0433 -0.5819 -1.0329
  186SLPC   H6R21409   2.838   1.687   7.274  0.4285 -0.5525  0.4705
  186SLPC   H6S21410   2.924   1.518   7.292 -1.1455 -2.5076 -1.3067
  186SLPC   C2721411   2.741   1.545   7.401 -0.2997 -1.0356  0.2842
  186SLPC   H7R21412   2.723   1.436   7.412  1.1557 -1.2951  0.3790
  186SLPC   H7S21413   2.641   1.587   7.381 -0.6268 -1.2242  1.4124
  186SLPC   C2821414   2.823   1.602   7.516  0.0166  0.3877 -0.8131
  186SLPC   H8R21415   2.834   1.711   7.499  1.0729  0.5649  0.8125
  186SLPC   H8S21416   2.922   1.557   7.535 -0.2630  1.0785  3.2726
  186SLPC   C2921417   2.733   1.573   7.633 -1.1261 -0.1936  0.2628
  186SLPC   H9R21418   2.624   1.581   7.622 -1.5726 -1.2993  3.0035
  186SLPC  C21021419   2.776   1.544   7.756 -0.0830 -0.6924 -0.7506
  186SLPC  H10R21420   2.689   1.533   7.822 -0.9449  0.3666 -1.6759
  186SLPC  C21121421   2.912   1.522   7.811  0.6920 -0.3999  0.4410
  186SLPC  H11R21422   2.947   1.607   7.875  1.7423 -1.6204  1.5511
  186SLPC  H11S21423   2.984   1.506   7.728  0.8215  0.0492  0.4638
  186SLPC  C21221424   2.932   1.400   7.897 -0.2720  0.3143  0.5380
  186SLPC  H12R21425   2.988   1.324   7.841 -0.4052 -0.0270  0.8634
  186SLPC  C21321426   2.885   1.372   8.026  0.7419  0.3220  0.0611
  186SLPC  H13R21427   2.910   1.273   8.067 -0.2039  0.4441  0.9407
  186SLPC  C21421428   2.802   1.463   8.115  0.2383  0.0165 -0.6002
  186SLPC  H14R21429   2.730   1.401   8.172  2.0892 -1.6701  0.0044
  186SLPC  H14S21430   2.748   1.542   8.057  0.0861 -0.5081 -1.1910
  186SLPC  C21521431   2.892   1.522   8.226  0.7553  0.0783 -0.1126
  186SLPC  H15R21432   2.983   1.572   8.185  0.1513  1.7740  0.5390
  186SLPC  H15S21433   2.934   1.438   8.286  0.9945 -1.2517 -2.0460
  186SLPC  C21621434   2.817   1.618   8.327 -0.2882 -0.4931 -0.0925
  186SLPC  H16R21435   2.766   1.702   8.274 -0.6387 -1.6754 -1.7135
  186SLPC  H16S21436   2.898   1.669   8.383 -0.5865  0.0644 -0.1618
  186SLPC  C21721437   2.721   1.541   8.413  0.6371 -0.5288 -0.0619
  186SLPC  H17R21438   2.775   1.448   8.444  1.8975 -0.9210 -3.0649
  186SLPC  H17S21439   2.640   1.498   8.350 -0.9449  1.1386  0.7631
  186SLPC  C21821440   2.662   1.608   8.528  0.4185 -0.3515 -0.2061
  186SLPC  H18R21441   2.738   1.663   8.587  2.5386 -1.8519 -1.3988
  186SLPC  H18S21442   2.609   1.537   8.596 -1.4159  1.8846  0.8286
  186SLPC  H18T21443   2.575   1.675   8.511 -1.6632 -0.9611  5.6817
  186SLPC   C3321444   3.154   1.640   6.482 -0.3537 -0.0473 -0.0175
  186SLPC   H3X21445   3.092   1.730   6.467 -0.7223 -0.5622 -1.7553
  186SLPC   H3Y21446   3.248   1.647   6.424 -0.7749  1.5496 -0.5495
  186SLPC   C3421447   3.195   1.638   6.630  0.4384  0.7734  0.4620
  186SLPC   H4X21448   3.286   1.575   6.634 -0.1475  0.0055  2.7701
  186SLPC   H4Y21449   3.120   1.583   6.690  1.1967  0.5465  1.2140
  186SLPC   C3521450   3.238   1.779   6.686  0.2639 -0.2709  0.2157
  186SLPC   H5X21451   3.141   1.815   6.724 -0.9572 -0.4156 -2.4846
  186SLPC   H5Y21452   3.261   1.847   6.601 -0.1012 -0.1737  0.1931
  186SLPC   C3621453   3.351   1.786   6.787  0.6748  0.5684 -0.1345
  186SLPC   H6X21454   3.393   1.888   6.774  1.2722  0.3448  0.0070
  186SLPC   H6Y21455   3.433   1.717   6.758  1.3609  0.6724  1.5030
  186SLPC   C3721456   3.292   1.766   6.929  0.3542 -0.5834  0.9177
  186SLPC   H7X21457   3.198   1.817   6.956 -1.1540 -3.0826  0.7128
  186SLPC   H7Y21458   3.370   1.785   7.007  0.2676  2.3532  0.3860
  186SLPC   C3821459   3.241   1.623   6.951  0.1616  0.1015  0.2917
  186SLPC   H8X21460   3.314   1.547   6.917 -0.5385 -0.7350  0.6197
  186SLPC   H8Y21461   3.153   1.615   6.883  0.3251  1.8466 -0.1869
  186SLPC   C3921462   3.185   1.595   7.092 -0.2354  0.0584  0.1388
  186SLPC   H9X21463   3.137   1.495   7.097  0.3525 -0.2156  0.4123
  186SLPC   H9Y21464   3.107   1.668   7.121  1.1909  1.2525  1.1271
  186SLPC  C31021465   3.291   1.586   7.207 -0.5862 -0.0732  0.0883
  186SLPC  H10X21466   3.356   1.677   7.207 -2.2423  1.1682 -0.8243
  186SLPC  H10Y21467   3.370   1.510   7.192 -0.0392  0.3195  0.8746
  186SLPC  C31121468   3.232   1.554   7.342  1.0441  0.3007 -0.2617
  186SLPC  H11X21469   3.167   1.464   7.330  0.2298  0.6923  1.0816
  186SLPC  H11Y21470   3.168   1.633   7.387 -0.7340 -1.2966  0.1460
  186SLPC  C31221471   3.331   1.514   7.457 -0.0727  0.2914  0.0569
  186SLPC  H12X21472   3.404   1.597   7.469 -1.4647  1.4211  1.1538
  186SLPC  H12Y21473   3.389   1.422   7.438 -1.2002 -0.3499 -0.3251
  186SLPC  C31321474   3.254   1.483   7.587 -0.7941  0.2048  0.3438
  186SLPC  H13X21475   3.209   1.381   7.583 -0.6701  0.0357  2.4579
  186SLPC  H13Y21476   3.173   1.553   7.614 -1.2225  0.2178 -0.8875
  186SLPC  C31421477   3.363   1.469   7.697  0.0527 -0.2524 -0.5488
  186SLPC  H14X21478   3.413   1.568   7.703 -0.2940 -0.0370 -1.0989
  186SLPC  H14Y21479   3.445   1.404   7.659  0.4745  1.2943 -2.4325
  186SLPC  C31521480   3.310   1.420   7.828 -1.2623  0.3905  0.4855
  186SLPC  H15X21481   3.265   1.318   7.828  1.7461 -1.0535  1.4582
  186SLPC  H15Y21482   3.253   1.503   7.876  2.5109  2.0107  2.6211
  186SLPC  C31621483   3.431   1.412   7.929  1.2464  0.2771  0.2408
  186SLPC  H16X21484   3.489   1.505   7.917  1.8551 -0.0056  0.9014
  186SLPC  H16Y21485   3.500   1.329   7.901  0.4565 -0.6480  0.9681
  186SLPC  C31721486   3.380   1.392   8.075 -0.1003  0.8417  0.3537
  186SLPC  H17X21487   3.303   1.312   8.084  2.0504 -1.3590  0.3970
  186SLPC  H17Y21488   3.329   1.488   8.095 -3.7441 -0.8636  0.0677
  186SLPC  C31821489   3.491   1.374   8.180 -0.8641 -0.2826  0.1551
  186SLPC  H18X21490   3.529   1.473   8.213 -1.6668 -0.0345  0.3529
  186SLPC  H18Y21491   3.573   1.305   8.151 -0.1005 -0.1309  1.8421
  186SLPC  H18Z21492   3.449   1.338   8.277  0.8331  0.7963  1.3572
  187SLPC     N21493   5.349   5.467   6.254 -0.5026  0.5057  0.3041
  187SLPC   C1321494   5.455   5.549   6.174  0.4252  0.0344  0.0833
  187SLPC  H13A21495   5.485   5.486   6.091  0.0063 -1.8680  1.3002
  187SLPC  H13B21496   5.417   5.644   6.140 -0.9604 -0.5784 -0.1317
  187SLPC  H13C21497   5.541   5.577   6.233 -1.5618  0.7511  2.8427
  187SLPC   C1421498   5.406   5.369   6.348 -0.0134 -0.0757 -0.2618
  187SLPC  H14A21499   5.478   5.420   6.411  0.9749 -0.9143 -0.6839
  187SLPC  H14B21500   5.327   5.333   6.411 -0.0630 -1.4953 -1.0938
  187SLPC  H14C21501   5.448   5.284   6.296 -1.3632 -1.3100  0.6035
  187SLPC   C1521502   5.255   5.404   6.158  0.0143 -0.5035  0.2626
  187SLPC  H15A21503   5.312   5.347   6.086 -1.7605 -3.1468  0.8177
  187SLPC  H15B21504   5.187   5.340   6.212 -0.1776 -0.7714 -0.2956
  187SLPC  H15C21505   5.195   5.475   6.103 -1.9198 -0.6119  2.1029
  187SLPC   C1221506   5.272   5.565   6.336  0.2623 -0.4308 -0.8200
  187SLPC  H12A21507   5.222   5.633   6.268 -0.7136  0.2781  0.5672
  187SLPC  H12B21508   5.339   5.609   6.408 -0.1079 -2.0626  0.5759
  187SLPC   C1121509   5.165   5.511   6.430  0.4018  0.2993  0.5113
  187SLPC  H11A21510   5.197   5.426   6.494 -1.9744 -1.8777 -1.0224
  187SLPC  H11B21511   5.086   5.468   6.364  0.1524 -0.6262  1.3850
  187SLPC     P21512   5.179   5.675   6.627 -0.4057  0.0749 -0.1898
  187SLPC   O1321513   5.324   5.686   6.596 -0.0444 -0.0286  0.0369
  187SLPC   O1421514   5.107   5.800   6.663  0.4592 -0.6157 -0.3233
  187SLPC   O1221515   5.104   5.624   6.499 -0.0206 -0.5023 -1.0772
  187SLPC   O1121516   5.155   5.563   6.728  0.4582  0.5967 -0.9295
  187SLPC    C121517   5.017   5.536   6.755  0.6850 -0.0778  0.6218
  187SLPC    HA21518   4.953   5.624   6.776  1.8047  1.4114 -1.7464
  187SLPC    HB21519   4.967   5.478   6.674  2.7957 -0.0435 -0.7962
  187SLPC    C221520   5.001   5.449   6.880 -0.4306 -0.8235  0.1549
  187SLPC    HS21521   4.894   5.419   6.882 -0.8794  0.6477 -0.3341
  187SLPC   O2121522   5.042   5.529   6.991 -0.0484  0.6425  0.6470
  187SLPC   C2121523   4.968   5.503   7.101  0.5109 -0.2074  0.0322
  187SLPC   O2221524   4.864   5.443   7.101 -0.4671 -0.3896 -0.1965
  187SLPC   C2221525   5.045   5.535   7.225 -0.2696  0.1463  0.0361
  187SLPC   H2R21526   5.127   5.461   7.229  1.1877  1.7406  0.6957
  187SLPC   H2S21527   5.082   5.639   7.214  0.2393 -0.1547 -1.3275
  187SLPC    C321528   5.093   5.330   6.867  0.0843  1.0101 -0.0226
  187SLPC    HX21529   5.201   5.356   6.870  0.8843 -1.9718 -0.1294
  187SLPC    HY21530   5.074   5.302   6.761 -3.2079  3.5892 -0.2873
  187SLPC   O3121531   5.069   5.224   6.966 -0.1285 -0.1017  0.1110
  187SLPC   C3121532   4.963   5.146   6.948 -0.7077  0.4457 -0.1743
  187SLPC   O3221533   4.880   5.159   6.864  0.4579  0.2593  0.1620
  187SLPC   C3221534   4.959   5.033   7.055 -0.2587 -0.4872  0.1802
  187SLPC   H2X21535   5.022   4.952   7.012  1.1314  0.2027  0.8209
  187SLPC   H2Y21536   4.853   5.003   7.060 -0.2096 -0.5778  0.7432
  187SLPC   C2321537   4.952   5.509   7.353 -0.3411  0.5679  0.2345
  187SLPC   H3R21538   4.915   5.405   7.343  1.1319  0.2528 -3.2387
  187SLPC   H3S21539   4.865   5.577   7.355  0.0192  1.0200  1.2308
  187SLPC   C2421540   5.019   5.521   7.489  0.3530  0.3112 -0.2120
  187SLPC   H4R21541   4.943   5.562   7.559  1.5350  2.4989 -0.1049
  187SLPC   H4S21542   5.101   5.595   7.474  0.3697  0.2664 -0.3405
  187SLPC   C2521543   5.080   5.386   7.539  0.4997  0.3458  0.0622
  187SLPC   H5R21544   5.131   5.334   7.455  1.1474 -0.9805  1.2305
  187SLPC   H5S21545   5.000   5.315   7.571 -1.0400  2.6275  1.5406
  187SLPC   C2621546   5.170   5.397   7.662 -0.2950 -0.1363  0.1660
  187SLPC   H6R21547   5.249   5.471   7.639 -1.0642  0.0123 -2.2934
  187SLPC   H6S21548   5.215   5.297   7.679  0.3801 -0.1247 -1.3811
  187SLPC   C2721549   5.099   5.435   7.797  0.4284  0.3461 -0.2721
  187SLPC   H7R21550   5.008   5.371   7.800  0.0852  0.8250 -0.2019
  187SLPC   H7S21551   5.057   5.538   7.800  0.2071  0.2379  2.1163
  187SLPC   C2821552   5.193   5.419   7.919  0.0103  0.1738 -0.2138
  187SLPC   H8R21553   5.279   5.489   7.910  0.5795 -0.5717 -0.7980
  187SLPC   H8S21554   5.232   5.316   7.932  0.8720  0.5407  0.2094
  187SLPC   C2921555   5.114   5.449   8.041  0.3649 -0.0838  0.6363
  187SLPC   H9R21556   5.053   5.362   8.072 -0.3766 -1.1175 -3.2582
  187SLPC  C21021557   5.111   5.559   8.128  0.2089  0.2274  0.1062
  187SLPC  H10R21558   5.040   5.555   8.212  0.5469 -0.5733  0.3639
  187SLPC  C21121559   5.194   5.688   8.122 -0.2622 -0.4589 -0.2857
  187SLPC  H11R21560   5.235   5.697   8.020  0.4578 -2.6192 -0.2333
  187SLPC  H11S21561   5.275   5.669   8.195 -1.3803  2.0683  1.7752
  187SLPC  C21221562   5.128   5.816   8.174 -0.1204 -0.2740  0.0300
  187SLPC  H12R21563   5.058   5.840   8.092  0.9122 -1.3208 -1.2059
  187SLPC  C21321564   5.137   5.887   8.288  0.1646 -0.4020  0.2053
  187SLPC  H13R21565   5.066   5.970   8.294  0.3607  0.0999 -2.7865
  187SLPC  C21421566   5.218   5.847   8.413 -0.0446 -0.3965  0.5701
  187SLPC  H14R21567   5.229   5.737   8.416  1.6279 -0.2238  2.8283
  187SLPC  H14S21568   5.148   5.857   8.498  2.0682 -0.5085  2.3950
  187SLPC  C21521569   5.358   5.917   8.418 -0.0499 -0.7839 -1.5702
  187SLPC  H15R21570   5.334   6.025   8.403  0.6323 -0.2628  0.7718
  187SLPC  H15S21571   5.434   5.884   8.344  3.5806 -0.8756  1.9084
  187SLPC  C21621572   5.416   5.903   8.560 -0.2862  0.4011 -0.1659
  187SLPC  H16R21573   5.449   5.798   8.573  1.1061  0.9639  1.2105
  187SLPC  H16S21574   5.342   5.935   8.636  1.5513 -0.7053  2.2148
  187SLPC  C21721575   5.542   5.991   8.590 -0.1116  0.5844  0.3170
  187SLPC  H17R21576   5.619   5.971   8.512  3.0656  0.9531  3.1677
  187SLPC  H17S21577   5.590   5.952   8.682 -0.6369  0.0750  0.3840
  187SLPC  C21821578   5.527   6.148   8.582 -0.3165  0.6315  0.1579
  187SLPC  H18R21579   5.453   6.170   8.503  0.7470 -0.7900 -1.2814
  187SLPC  H18S21580   5.626   6.192   8.558 -0.0173 -0.7920 -1.3396
  187SLPC  H18T21581   5.474   6.179   8.675 -2.0179  0.7428 -0.8072
  187SLPC   C3321582   4.989   5.080   7.205  0.9037  0.1549  0.0338
  187SLPC   H3X21583   4.929   5.169   7.234  1.1267 -0.0918  1.2933
  187SLPC   H3Y21584   5.098   5.094   7.222  1.1461 -0.1005 -1.2166
  187SLPC   C3421585   4.950   4.970   7.304  0.3142 -0.4660 -0.1270
  187SLPC   H4X21586   4.985   4.869   7.273 -1.9302 -1.1500 -0.6190
  187SLPC   H4Y21587   4.840   4.958   7.303 -0.3105  3.7089 -1.4605
  187SLPC   C3521588   4.995   5.006   7.444  0.4252 -0.5416 -0.6639
  187SLPC   H5X21589   4.950   5.102   7.480  1.6824  0.7550 -2.3984
  187SLPC   H5Y21590   5.103   5.029   7.441  0.1013  1.3628  0.2054
  187SLPC   C3621591   4.978   4.893   7.549  0.1429 -0.7555  0.4474
  187SLPC   H6X21592   5.021   4.803   7.501  1.2944  0.6950 -1.3637
  187SLPC   H6Y21593   4.870   4.884   7.571  0.0414  0.8118  0.7074
  187SLPC   C3721594   5.061   4.925   7.674  0.1416 -0.0359 -0.1395
  187SLPC   H7X21595   5.095   4.836   7.731  1.9242  1.7261  1.7106
  187SLPC   H7Y21596   5.152   4.977   7.637 -1.5801  1.7435 -2.1923
  187SLPC   C3821597   4.977   4.998   7.782 -0.5886 -0.2351 -0.3229
  187SLPC   H8X21598   4.908   4.919   7.819  2.0883 -3.5472 -1.8538
  187SLPC   H8Y21599   4.925   5.076   7.722  2.3835  0.2707 -2.4547
  187SLPC   C3921600   5.058   5.046   7.905  0.0269 -0.1327  0.3258
  187SLPC   H9X21601   5.005   5.135   7.945  0.0796 -0.5700  1.4113
  187SLPC   H9Y21602   5.159   5.079   7.872 -0.5625 -0.1510 -1.5820
  187SLPC  C31021603   5.085   4.949   8.013  0.1821  0.0429 -0.6712
  187SLPC  H10X21604   5.122   4.851   7.975  0.9927  0.1692 -0.2167
  187SLPC  H10Y21605   4.987   4.926   8.060  0.2618 -1.3506 -1.1281
  187SLPC  C31121606   5.176   4.999   8.126  0.0412 -0.7886  0.6631
  187SLPC  H11X21607   5.141   5.097   8.164  0.9711  0.3733 -1.2951
  187SLPC  H11Y21608   5.270   5.034   8.078 -1.8806  2.2811 -1.1700
  187SLPC  C31221609   5.205   4.898   8.242 -0.2584 -0.4860 -0.1269
  187SLPC  H12X21610   5.234   4.794   8.219  3.3369 -0.1564  2.1561
  187SLPC  H12Y21611   5.110   4.884   8.298  1.3980 -2.0025  2.5073
  187SLPC  C31321612   5.325   4.929   8.326  0.1719 -0.4590 -0.3888
  187SLPC  H13X21613   5.301   5.029   8.369  1.4732 -0.4361  0.3092
  187SLPC  H13Y21614   5.420   4.941   8.270  0.5526 -1.3795  0.0577
  187SLPC  C31421615   5.339   4.831   8.444 -0.2012 -0.2657 -0.4405
  187SLPC  H14X21616   5.396   4.743   8.405 -0.6061 -0.8897  0.3426
  187SLPC  H14Y21617   5.237   4.803   8.479  0.4015 -0.6823  1.0698
  187SLPC  C31521618   5.399   4.897   8.563 -0.1916  1.1667  0.3902
  187SLPC  H15X21619   5.487   4.955   8.526  1.4295 -1.9688 -1.1577
  187SLPC  H15Y21620   5.453   4.824   8.627 -1.3108 -0.3756 -0.3483
  187SLPC  C31621621   5.315   4.999   8.632  0.1765 -0.6032  0.0329
  187SLPC  H16X21622   5.238   5.036   8.561  1.7662 -0.6541 -1.7871
  187SLPC  H16Y21623   5.372   5.088   8.664 -0.6126 -0.2978  0.6180
  187SLPC  C31721624   5.244   4.949   8.760  0.6592 -0.1819 -0.6517
  187SLPC  H17X21625   5.328   4.897   8.811 -1.3720 -2.9796  0.0973
  187SLPC  H17Y21626   5.162   4.877   8.740 -0.4313  1.2566 -1.5321
  187SLPC  C31821627   5.181   5.062   8.840 -0.4238  0.6351  0.2043
  187SLPC  H18X21628   5.153   5.021   8.940  1.0925 -0.6961  0.1244
  187SLPC  H18Y21629   5.097   5.105   8.783  0.6996 -1.0610 -2.9758
  187SLPC  H18Z21630   5.264   5.134   8.853  0.8271 -0.9336  1.3617
  188SLPC     N21631   4.579   6.516   5.826  0.9573  1.2603 -0.5987
  188SLPC   C1321632   4.603   6.646   5.749  0.0158  0.9678 -0.3876
  188SLPC  H13A21633   4.687   6.625   5.684 -1.5721 -2.8994 -1.4806
  188SLPC  H13B21634   4.518   6.673   5.687  0.1061  1.8607 -0.1437
  188SLPC  H13C21635   4.622   6.722   5.823  0.4052 -0.5266  1.0805
  188SLPC   C1421636   4.580   6.415   5.715 -0.0759 -0.1043 -0.1885
  188SLPC  H14A21637   4.514   6.436   5.631  3.5560 -2.6187 -4.0787
  188SLPC  H14B21638   4.673   6.410   5.661 -1.6701  1.5555 -3.4480
  188SLPC  H14C21639   4.543   6.318   5.745 -0.0170  0.0673  0.4515
  188SLPC   C1521640   4.432   6.504   5.880 -0.9997  0.3021  0.5491
  188SLPC  H15A21641   4.364   6.534   5.802  0.0458 -1.3221 -1.0669
  188SLPC  H15B21642   4.409   6.402   5.911  1.9272  0.2078  2.9275
  188SLPC  H15C21643   4.408   6.566   5.965 -1.2551 -0.4429  1.0359
  188SLPC   C1221644   4.683   6.490   5.932  0.1204 -0.1669 -0.6287
  188SLPC  H12A21645   4.778   6.470   5.885  0.3537 -1.5713  0.4029
  188SLPC  H12B21646   4.657   6.399   5.983 -1.7164  0.7586  0.2086
  188SLPC   C1121647   4.701   6.602   6.046  0.2164  0.4599  0.2020
  188SLPC  H11A21648   4.722   6.700   5.999 -2.4776  0.0094 -2.2166
  188SLPC  H11B21649   4.785   6.563   6.108  1.0591  3.1032  0.8152
  188SLPC     P21650   4.552   6.535   6.249 -0.1322 -0.0259 -0.1725
  188SLPC   O1321651   4.421   6.585   6.295 -0.1757  0.0156 -0.4513
  188SLPC   O1421652   4.567   6.387   6.241 -0.4642 -0.0947 -0.4656
  188SLPC   O1221653   4.574   6.593   6.105  0.0907 -0.4157  0.1082
  188SLPC   O1121654   4.666   6.591   6.351 -0.1343  0.5350  0.4852
  188SLPC    C121655   4.720   6.727   6.360  0.3717  0.0058 -0.0609
  188SLPC    HA21656   4.830   6.728   6.349  0.2339 -1.8907 -2.4349
  188SLPC    HB21657   4.675   6.787   6.278  1.1044  0.9295  0.2075
  188SLPC    C221658   4.674   6.811   6.485  0.1732  0.3074 -0.2756
  188SLPC    HS21659   4.737   6.903   6.482 -2.4731  2.2272 -1.4651
  188SLPC   O2121660   4.676   6.744   6.611 -0.4445 -0.3117 -0.2586
  188SLPC   C2121661   4.792   6.734   6.660 -0.5076 -0.0879  0.5934
  188SLPC   O2221662   4.891   6.790   6.619 -0.6473 -0.3184  0.1051
  188SLPC   C2221663   4.788   6.645   6.790 -0.2180  0.6585 -0.0211
  188SLPC   H2R21664   4.689   6.657   6.838 -1.4002  0.0139 -2.1415
  188SLPC   H2S21665   4.809   6.538   6.769  1.8271  0.3748  2.8772
  188SLPC    C321666   4.525   6.869   6.459 -0.5672 -0.1125  1.0919
  188SLPC    HX21667   4.457   6.785   6.438 -1.5038  1.3663 -2.3791
  188SLPC    HY21668   4.530   6.934   6.369 -0.7559 -0.1702  1.0420
  188SLPC   O3121669   4.484   6.945   6.569  0.5104  0.1049 -0.0114
  188SLPC   C3121670   4.525   7.065   6.572  0.0253  0.3133 -1.0344
  188SLPC   O3221671   4.608   7.125   6.507 -0.4332  0.3787  0.3097
  188SLPC   C3221672   4.448   7.141   6.680 -0.3653 -0.3794 -0.7649
  188SLPC   H2X21673   4.339   7.142   6.657 -1.2474  2.1783  2.7212
  188SLPC   H2Y21674   4.484   7.246   6.688  1.8858 -1.2696  3.8416
  188SLPC   C2321675   4.891   6.684   6.901 -0.5510  0.2687  0.3027
  188SLPC   H3R21676   4.862   6.784   6.941 -0.1414  0.4377  0.1818
  188SLPC   H3S21677   4.991   6.695   6.855 -0.5464 -0.5979  0.1060
  188SLPC   C2421678   4.888   6.595   7.016  0.4451 -0.4362 -0.3465
  188SLPC   H4R21679   4.932   6.496   6.991 -0.5494 -1.7878  2.8541
  188SLPC   H4S21680   4.792   6.583   7.071  0.6691  2.9395  1.0221
  188SLPC   C2521681   4.970   6.647   7.134 -0.1284 -0.6241  0.1812
  188SLPC   H5R21682   4.932   6.748   7.156  1.2425 -0.0361 -0.0668
  188SLPC   H5S21683   5.076   6.654   7.099 -0.1521 -0.5998  0.1145
  188SLPC   C2621684   4.949   6.562   7.257  0.0470  0.2660  0.2120
  188SLPC   H6R21685   4.969   6.459   7.218 -1.0492  0.3387 -0.5829
  188SLPC   H6S21686   4.840   6.567   7.274 -0.1821 -0.2874 -1.0225
  188SLPC   C2721687   5.031   6.601   7.383  0.0011 -0.1597 -0.3690
  188SLPC   H7R21688   4.998   6.701   7.419 -0.8871 -1.6335  3.3706
  188SLPC   H7S21689   5.136   6.617   7.352 -0.0871  0.6255 -0.2723
  188SLPC   C2821690   5.015   6.500   7.496  0.1026  0.5563  0.2633
  188SLPC   H8R21691   5.059   6.407   7.453 -1.3950  0.1056 -0.3627
  188SLPC   H8S21692   4.908   6.482   7.521  0.4748  0.1416  1.6778
  188SLPC   C2921693   5.097   6.528   7.621 -0.8282 -0.2055  0.5064
  188SLPC   H9R21694   5.203   6.519   7.595 -0.9676  0.2758 -0.2808
  188SLPC  C21021695   5.054   6.557   7.748 -0.7167  0.2816  0.4284
  188SLPC  H10R21696   5.132   6.572   7.824 -0.5007 -0.5896  0.3916
  188SLPC  C21121697   4.910   6.559   7.804  0.0340  0.8851 -0.7342
  188SLPC  H11R21698   4.904   6.478   7.879  4.4698 -0.0531 -1.1106
  188SLPC  H11S21699   4.841   6.521   7.726 -1.0609  0.6898  0.3061
  188SLPC  C21221700   4.876   6.704   7.847  0.2162 -0.4564 -0.7793
  188SLPC  H12R21701   4.895   6.778   7.768  3.2493  1.4551  1.5087
  188SLPC  C21321702   4.846   6.760   7.970  0.2197 -0.8516  0.0384
  188SLPC  H13R21703   4.829   6.868   7.983  1.2848 -0.5454 -0.9488
  188SLPC  C21421704   4.821   6.675   8.096 -0.2708 -0.1065 -0.4529
  188SLPC  H14R21705   4.889   6.695   8.181 -2.0922  1.5566  0.6996
  188SLPC  H14S21706   4.845   6.569   8.074 -2.1031 -0.4728 -0.8576
  188SLPC  C21521707   4.674   6.696   8.132  0.2961  0.2549  0.0223
  188SLPC  H15R21708   4.623   6.657   8.041  1.9615 -1.4641 -0.2260
  188SLPC  H15S21709   4.662   6.805   8.145  3.5545  0.7169 -0.2146
  188SLPC  C21621710   4.626   6.605   8.251  0.4011  0.4343  0.5941
  188SLPC  H16R21711   4.672   6.640   8.346 -1.6558  1.8410  1.1243
  188SLPC  H16S21712   4.661   6.502   8.227  1.3253  1.0133 -0.6360
  188SLPC  C21721713   4.474   6.605   8.267 -0.1017 -0.7655  0.0748
  188SLPC  H17R21714   4.454   6.527   8.344  1.0870 -1.2541 -0.0953
  188SLPC  H17S21715   4.420   6.559   8.182  2.4838 -3.2425 -0.3984
  188SLPC  C21821716   4.420   6.740   8.300  0.1892  0.1053 -0.1463
  188SLPC  H18R21717   4.412   6.812   8.216 -0.2594  1.5661  1.0990
  188SLPC  H18S21718   4.485   6.789   8.377 -0.6105  0.3255  0.3967
  188SLPC  H18T21719   4.318   6.723   8.338  0.2715  0.5684  0.2905
  188SLPC   C3321720   4.465   7.077   6.825  0.5209  0.3447  0.3345
  188SLPC   H3X21721   4.406   6.982   6.822  0.3045  0.5007 -1.3370
  188SLPC   H3Y21722   4.402   7.142   6.889 -1.3973 -1.6455  0.5751
  188SLPC   C3421723   4.608   7.069   6.871  0.8198 -0.2253  0.6409
  188SLPC   H4X21724   4.657   7.164   6.843  0.1913 -0.2623 -0.6556
  188SLPC   H4Y21725   4.642   6.987   6.804  0.0909  0.2586 -0.3604
  188SLPC   C3521726   4.616   7.040   7.019 -0.5097  0.3538 -0.4670
  188SLPC   H5X21727   4.566   7.113   7.086 -0.2640  1.4725 -1.4681
  188SLPC   H5Y21728   4.724   7.036   7.048 -0.4989 -1.9723 -0.5856
  188SLPC   C3621729   4.553   6.906   7.057 -0.0902  0.5237 -0.3524
  188SLPC   H6X21730   4.597   6.814   7.012  1.0185 -0.0417  1.7398
  188SLPC   H6Y21731   4.447   6.897   7.024 -0.7292  1.5718  1.3178
  188SLPC   C3721732   4.539   6.875   7.210 -0.0242  0.7583  0.6430
  188SLPC   H7X21733   4.509   6.770   7.231 -0.1619  0.0441 -2.6534
  188SLPC   H7Y21734   4.466   6.944   7.256 -0.9140  1.7107 -2.0212
  188SLPC   C3821735   4.669   6.885   7.293 -0.1267 -0.4645 -0.3800
  188SLPC   H8X21736   4.718   6.984   7.281 -0.1802  0.1357  3.1429
  188SLPC   H8Y21737   4.735   6.801   7.262 -0.1924 -0.1768 -1.3320
  188SLPC   C3921738   4.655   6.875   7.450  0.4346  0.4419 -0.0508
  188SLPC   H9X21739   4.564   6.933   7.475 -0.8084 -1.5558  0.2842
  188SLPC   H9Y21740   4.755   6.906   7.487  0.6012 -0.6655  0.4606
  188SLPC  C31021741   4.634   6.728   7.500  0.8905 -0.3185 -0.1206
  188SLPC  H10X21742   4.721   6.672   7.460  0.7760 -1.1387  0.7598
  188SLPC  H10Y21743   4.542   6.683   7.458  1.1211 -2.2046  1.2439
  188SLPC  C31121744   4.615   6.713   7.647 -0.3269 -0.8292 -0.0181
  188SLPC  H11X21745   4.659   6.801   7.698  1.6589 -1.4733 -0.5675
  188SLPC  H11Y21746   4.654   6.613   7.673  0.6666 -0.9506 -1.8301
  188SLPC  C31221747   4.461   6.713   7.675  0.6148  0.3885 -0.5210
  188SLPC  H12X21748   4.422   6.632   7.610 -0.4248  1.7514 -1.6518
  188SLPC  H12Y21749   4.425   6.814   7.647 -0.1144 -0.3364 -2.3575
  188SLPC  C31321750   4.422   6.686   7.827 -0.2489  0.2352  0.1897
  188SLPC  H13X21751   4.447   6.774   7.889 -0.5066 -0.0095  0.6394
  188SLPC  H13Y21752   4.470   6.592   7.863  0.1837  0.4466  0.1692
  188SLPC  C31421753   4.271   6.662   7.840  0.6363 -0.0541 -0.6774
  188SLPC  H14X21754   4.239   6.590   7.762  1.3297 -0.3002 -0.7392
  188SLPC  H14Y21755   4.209   6.753   7.828 -0.7831 -1.0215 -0.9403
  188SLPC  C31521756   4.224   6.596   7.975 -0.7313 -0.0389 -0.5315
  188SLPC  H15X21757   4.267   6.660   8.055 -0.7677 -3.0674  2.1157
  188SLPC  H15Y21758   4.270   6.496   7.986  3.9617  2.0468  1.2447
  188SLPC  C31621759   4.069   6.594   7.973 -0.5997 -0.8137  0.3089
  188SLPC  H16X21760   4.026   6.533   7.891 -5.4669  2.1315  0.2810
  188SLPC  H16Y21761   4.027   6.697   7.967 -2.3373 -1.4487  0.8723
  188SLPC  C31721762   4.017   6.532   8.105 -0.4765  0.5831 -0.1128
  188SLPC  H17X21763   3.993   6.423   8.104 -2.2166  0.9066  1.2070
  188SLPC  H17Y21764   3.925   6.589   8.129  0.0971  0.6672  2.1092
  188SLPC  C31821765   4.117   6.525   8.225 -0.0623 -0.2574 -0.8872
  188SLPC  H18X21766   4.152   6.623   8.265 -0.1991  0.0520 -1.5153
  188SLPC  H18Y21767   4.211   6.478   8.188 -0.5164 -0.3056 -2.0048
  188SLPC  H18Z21768   4.065   6.469   8.305  0.8399 -2.2614 -1.6366
  189SLPC     N21769   1.352   2.590   5.744  0.0581  0.1954 -0.2023
  189SLPC   C1321770   1.495   2.618   5.713  0.1976 -0.2142 -0.4100
  189SLPC  H13A21771   1.511   2.720   5.746  1.1019 -0.4029 -0.2192
  189SLPC  H13B21772   1.563   2.546   5.756 -0.0289  0.1079  0.5222
  189SLPC  H13C21773   1.496   2.626   5.606  1.0780  0.9275 -0.3328
  189SLPC   C1421774   1.326   2.450   5.694  0.2545 -0.2991 -0.2551
  189SLPC  H14A21775   1.340   2.444   5.587  1.5766 -1.4632 -0.0547
  189SLPC  H14B21776   1.390   2.372   5.732  1.0564  0.5861  0.2456
  189SLPC  H14C21777   1.223   2.420   5.706  0.1128  1.2603  3.4796
  189SLPC   C1521778   1.253   2.685   5.675  0.1865  0.2551 -1.1199
  189SLPC  H15A21779   1.227   2.751   5.757  1.6275 -0.8734  0.3148
  189SLPC  H15B21780   1.288   2.730   5.584  0.3257  1.4511 -0.4851
  189SLPC  H15C21781   1.164   2.632   5.642  0.1991 -0.8086  0.4541
  189SLPC   C1221782   1.319   2.590   5.893 -0.8354  0.4820  0.1278
  189SLPC  H12A21783   1.385   2.517   5.937 -3.1964 -0.7932  1.7588
  189SLPC  H12B21784   1.217   2.554   5.901 -0.1471 -1.5561  0.2567
  189SLPC   C1121785   1.343   2.712   5.980 -0.3319 -0.4726  0.4399
  189SLPC  H11A21786   1.437   2.751   5.936 -1.4069 -0.7033 -2.2463
  189SLPC  H11B21787   1.366   2.691   6.086  0.5566  2.1219  0.8311
  189SLPC     P21788   1.107   2.816   6.057 -0.2056  0.2416  0.0837
  189SLPC   O1321789   1.028   2.929   6.004 -0.0209 -0.5470 -0.5072
  189SLPC   O1421790   1.038   2.686   6.072 -0.7134 -0.2477 -0.0829
  189SLPC   O1221791   1.231   2.807   5.959  0.1769 -0.4190 -0.1964
  189SLPC   O1121792   1.179   2.859   6.191 -0.4094  0.3426  0.0177
  189SLPC    C121793   1.254   2.975   6.218 -0.5417 -0.9631  0.7423
  189SLPC    HA21794   1.284   3.024   6.124  0.2232 -5.3108 -1.5454
  189SLPC    HB21795   1.193   3.046   6.278 -0.9882 -0.0577 -0.7263
  189SLPC    C221796   1.387   2.951   6.289  0.3967 -0.0089  0.5083
  189SLPC    HS21797   1.444   2.877   6.229 -2.5443 -3.5926  1.7384
  189SLPC   O2121798   1.352   2.893   6.419 -0.1618  0.3044 -0.0180
  189SLPC   C2121799   1.454   2.840   6.481 -0.3696  0.0923 -0.1969
  189SLPC   O2221800   1.557   2.809   6.423  0.2177 -0.1095 -0.2215
  189SLPC   C2221801   1.415   2.814   6.630  0.3199  0.6617 -0.5642
  189SLPC   H2R21802   1.329   2.880   6.652 -0.4573 -0.4029 -0.3508
  189SLPC   H2S21803   1.382   2.709   6.641 -2.0789  1.5210  1.3523
  189SLPC    C321804   1.474   3.076   6.299 -0.5422  0.4851 -0.1643
  189SLPC    HX21805   1.482   3.106   6.193 -1.1346 -0.1908 -0.4057
  189SLPC    HY21806   1.579   3.064   6.332 -0.2022 -0.5604 -1.5512
  189SLPC   O3121807   1.401   3.180   6.374 -0.6717 -0.2527  0.5472
  189SLPC   C3121808   1.440   3.203   6.496  0.1798  0.3132  0.5716
  189SLPC   O3221809   1.537   3.151   6.551  0.0963  0.1385 -0.3204
  189SLPC   C3221810   1.327   3.290   6.563 -0.5381  0.0381  0.4599
  189SLPC   H2X21811   1.233   3.268   6.509 -0.2815 -2.3717  0.8736
  189SLPC   H2Y21812   1.350   3.398   6.550 -0.4693  0.0652  0.8013
  189SLPC   C2321813   1.545   2.832   6.710 -0.0915  0.6605 -0.0852
  189SLPC   H3R21814   1.594   2.925   6.674 -2.2986  1.9075 -0.0347
  189SLPC   H3S21815   1.612   2.746   6.686  3.5028  3.3078 -0.4003
  189SLPC   C2421816   1.515   2.855   6.865  0.3857  0.0064  0.0756
  189SLPC   H4R21817   1.486   2.754   6.901  0.1850 -0.7317 -2.0328
  189SLPC   H4S21818   1.435   2.930   6.884  1.1208  0.7623  0.2676
  189SLPC   C2521819   1.637   2.898   6.938  0.3406  0.1983 -0.0155
  189SLPC   H5R21820   1.676   2.992   6.894  0.7861 -0.0737 -0.2159
  189SLPC   H5S21821   1.719   2.824   6.923 -0.9669 -0.6610 -4.2116
  189SLPC   C2621822   1.600   2.914   7.089  0.2020 -0.3195  0.2320
  189SLPC   H6R21823   1.572   2.816   7.131 -0.8292 -0.4424 -0.6978
  189SLPC   H6S21824   1.507   2.973   7.080 -0.8946 -2.2429 -2.4184
  189SLPC   C2721825   1.710   2.978   7.177 -0.2249 -0.1227 -0.3196
  189SLPC   H7R21826   1.688   3.087   7.172  0.8621  0.2174  1.4475
  189SLPC   H7S21827   1.806   2.968   7.124  0.2889  1.2478  0.2990
  189SLPC   C2821828   1.716   2.922   7.325 -0.1828 -0.1075 -0.0442
  189SLPC   H8R21829   1.820   2.946   7.355  0.1477 -1.3511 -0.1323
  189SLPC   H8S21830   1.717   2.811   7.334  0.4625 -0.1696 -0.7179
  189SLPC   C2921831   1.602   2.985   7.400 -1.1691 -0.0199 -0.5073
  189SLPC   H9R21832   1.514   3.005   7.338 -0.9780  0.8747 -0.4972
  189SLPC  C21021833   1.598   3.017   7.527  0.4791  0.4030  0.3484
  189SLPC  H10R21834   1.502   3.065   7.551  0.4272  0.4815 -0.0083
  189SLPC  C21121835   1.699   2.995   7.640 -0.2673 -0.7083 -0.0912
  189SLPC  H11R21836   1.710   3.086   7.703 -1.8458 -1.4560  1.3232
  189SLPC  H11S21837   1.799   2.978   7.594 -0.4618 -2.0753 -0.0672
  189SLPC  C21221838   1.675   2.868   7.714  0.1643  0.1007  0.0701
  189SLPC  H12R21839   1.651   2.778   7.656  2.5500  0.9516 -2.4542
  189SLPC  C21321840   1.652   2.864   7.849 -0.3348 -0.4168  0.6154
  189SLPC  H13R21841   1.646   2.764   7.894  0.2950 -0.9736 -0.4852
  189SLPC  C21421842   1.659   2.985   7.939 -0.3398 -0.3265 -0.1871
  189SLPC  H14R21843   1.760   3.029   7.927 -0.7513  0.5058 -0.6669
  189SLPC  H14S21844   1.655   2.952   8.045  3.0327  1.1661  0.5350
  189SLPC  C21521845   1.551   3.082   7.917  0.6490 -1.0052  0.4119
  189SLPC  H15R21846   1.457   3.035   7.953  0.4414 -2.1013 -1.4167
  189SLPC  H15S21847   1.539   3.109   7.810 -1.3739 -3.4301 -0.0801
  189SLPC  C21621848   1.582   3.212   7.994  0.0959 -0.2448 -0.1561
  189SLPC  H16R21849   1.524   3.294   7.947 -0.0391  1.6177  3.0217
  189SLPC  H16S21850   1.689   3.234   7.974  0.4682 -2.4223 -0.9009
  189SLPC  C21721851   1.568   3.211   8.145  0.6563  0.7954 -0.2921
  189SLPC  H17R21852   1.649   3.147   8.186 -0.3369  0.2092  0.7909
  189SLPC  H17S21853   1.473   3.175   8.189 -0.2404  3.4113  0.1227
  189SLPC  C21821854   1.583   3.345   8.215 -0.4954 -0.0388  0.2896
  189SLPC  H18R21855   1.558   3.344   8.324 -2.5410 -2.3465 -0.1152
  189SLPC  H18S21856   1.522   3.422   8.163  0.1953 -0.0359 -0.5345
  189SLPC  H18T21857   1.689   3.375   8.202  0.3057 -2.8903 -0.2992
  189SLPC   C3321858   1.326   3.240   6.714 -0.0937 -1.0780  0.3543
  189SLPC   H3X21859   1.369   3.319   6.779 -0.5052 -0.0667 -0.5869
  189SLPC   H3Y21860   1.385   3.147   6.729  1.7315 -0.1896 -1.0031
  189SLPC   C3421861   1.184   3.200   6.754  0.3361  0.0769 -0.2407
  189SLPC   H4X21862   1.160   3.120   6.681 -0.6053  0.1664 -0.0391
  189SLPC   H4Y21863   1.123   3.293   6.744  1.7554  1.1714  0.7802
  189SLPC   C3521864   1.150   3.140   6.886 -1.2678  0.1149  0.6585
  189SLPC   H5X21865   1.197   3.040   6.899  1.9493  1.4473 -0.0148
  189SLPC   H5Y21866   1.039   3.136   6.891 -1.5159  2.5877 -0.9579
  189SLPC   C3621867   1.193   3.220   7.009  0.1690  0.0171 -0.3991
  189SLPC   H6X21868   1.129   3.307   7.035  2.1003  1.2670  0.3916
  189SLPC   H6Y21869   1.295   3.256   6.984  1.3748 -1.0899  2.4417
  189SLPC   C3721870   1.196   3.130   7.132  0.0109 -0.5878 -0.6365
  189SLPC   H7X21871   1.257   3.039   7.114  0.4380 -0.6312  0.8894
  189SLPC   H7Y21872   1.094   3.088   7.148  0.5471 -1.4117  0.8636
  189SLPC   C3821873   1.239   3.205   7.265  0.4062 -0.0615 -0.8015
  189SLPC   H8X21874   1.171   3.292   7.275 -0.8222 -0.9883 -0.8940
  189SLPC   H8Y21875   1.347   3.233   7.258 -0.2627  2.4578 -2.2977
  189SLPC   C3921876   1.212   3.120   7.389  0.9190  0.3130 -0.1712
  189SLPC   H9X21877   1.298   3.051   7.396  0.0309 -0.8432 -0.3930
  189SLPC   H9Y21878   1.130   3.045   7.385  0.1609  1.0644  0.7085
  189SLPC  C31021879   1.201   3.211   7.511 -0.3241 -0.0238 -0.3358
  189SLPC  H10X21880   1.103   3.263   7.508 -0.5446 -0.4403 -0.6233
  189SLPC  H10Y21881   1.282   3.284   7.529 -0.4720 -0.5937  3.3240
  189SLPC  C31121882   1.200   3.117   7.634  0.7448 -0.1369 -0.4964
  189SLPC  H11X21883   1.294   3.059   7.622  1.7999  1.8688 -3.0672
  189SLPC  H11Y21884   1.106   3.060   7.623  0.6282  0.0529 -0.4881
  189SLPC  C31221885   1.183   3.184   7.766  0.2082  0.6773 -0.3708
  189SLPC  H12X21886   1.098   3.256   7.762  0.5368  1.0942 -0.0205
  189SLPC  H12Y21887   1.279   3.239   7.775 -0.2774  1.4831 -0.0264
  189SLPC  C31321888   1.164   3.087   7.896  0.2553 -0.4030  0.8360
  189SLPC  H13X21889   1.246   3.012   7.901 -0.3711 -1.0070  2.7823
  189SLPC  H13Y21890   1.065   3.037   7.891 -1.3934  2.7106 -0.7928
  189SLPC  C31421891   1.175   3.178   8.022 -0.0818 -0.0228 -0.5447
  189SLPC  H14X21892   1.095   3.254   8.003 -0.3079 -0.3860 -1.0854
  189SLPC  H14Y21893   1.276   3.224   8.022  0.0036 -0.1029  1.8393
  189SLPC  C31521894   1.172   3.095   8.144  0.3837  0.5313 -0.3123
  189SLPC  H15X21895   1.267   3.040   8.157 -0.5040 -1.0517 -0.1583
  189SLPC  H15Y21896   1.099   3.011   8.129 -1.5796  2.4638 -2.5018
  189SLPC  C31621897   1.146   3.180   8.270  0.6504  0.1587  0.1833
  189SLPC  H16X21898   1.045   3.225   8.269  0.2140 -0.7977 -0.3525
  189SLPC  H16Y21899   1.206   3.274   8.267  1.2053 -0.1926 -0.2167
  189SLPC  C31721900   1.166   3.104   8.400  0.0812  0.7615  0.1879
  189SLPC  H17X21901   1.090   3.024   8.404 -1.9474  2.6239  1.2037
  189SLPC  H17Y21902   1.152   3.167   8.491 -3.9731  0.0368  0.2357
  189SLPC  C31821903   1.307   3.043   8.416 -0.2963 -0.1989 -0.3236
  189SLPC  H18X21904   1.315   3.013   8.523 -0.8479  1.0618  0.0961
  189SLPC  H18Y21905   1.384   3.121   8.398 -0.6669  0.4794  0.8731
  189SLPC  H18Z21906   1.321   2.957   8.347 -0.3516 -1.2554  0.9532
  190SLPC     N21907   0.288   1.267   5.683 -0.2153 -0.0508 -0.4114
  190SLPC   C1321908   0.363   1.219   5.559 -0.0191 -0.7606 -0.7206
  190SLPC  H13A21909   0.299   1.182   5.480 -0.3791 -0.1665 -0.7063
  190SLPC  H13B21910   0.415   1.303   5.516  0.0731 -0.5812 -0.2534
  190SLPC  H13C21911   0.433   1.141   5.586 -1.2468 -1.5699  0.2182
  190SLPC   C1421912   0.190   1.373   5.641  0.5327  0.5225 -0.2942
  190SLPC  H14A21913   0.251   1.462   5.647 -1.0317  1.7215 -1.2226
  190SLPC  H14B21914   0.157   1.362   5.539 -0.7512  2.2475 -0.1054
  190SLPC  H14C21915   0.107   1.381   5.710  1.5068 -0.0413  0.9856
  190SLPC   C1521916   0.390   1.324   5.775  0.2119 -0.3412 -0.3705
  190SLPC  H15A21917   0.462   1.247   5.801 -3.3736 -3.9117  0.0251
  190SLPC  H15B21918   0.446   1.399   5.720 -0.0077  0.4190  0.4212
  190SLPC  H15C21919   0.353   1.369   5.866 -2.0567  0.2732 -1.5452
  190SLPC   C1221920   0.205   1.161   5.748 -0.1617  0.0375  0.9573
  190SLPC  H12A21921   0.267   1.074   5.763  1.1521  1.2024  2.7642
  190SLPC  H12B21922   0.127   1.133   5.679  0.9413 -0.4846 -0.1319
  190SLPC   C1121923   0.134   1.186   5.887  0.6372  0.7142  0.5457
  190SLPC  H11A21924   0.216   1.216   5.956  0.2314 -1.3860  2.0200
  190SLPC  H11B21925   0.088   1.090   5.917 -0.1824  0.7312 -0.5819
  190SLPC     P21926  -0.004   1.389   5.972 -0.3043  0.4468  0.2958
  190SLPC   O1321927   0.119   1.451   6.032  0.0632  0.2731  0.5970
  190SLPC   O1421928  -0.109   1.485   5.926  0.3465  0.5616  0.1122
  190SLPC   O1221929   0.035   1.283   5.857 -0.1444 -0.2995 -0.1208
  190SLPC   O1121930  -0.070   1.292   6.080  0.6482  0.1317 -0.3776
  190SLPC    C121931  -0.026   1.298   6.218  0.5389 -0.2756 -0.1101
  190SLPC    HA21932  -0.059   1.209   6.276  1.8954 -1.6088 -1.2813
  190SLPC    HB21933   0.084   1.293   6.228  0.7127  0.7409 -1.2743
  190SLPC    C221934  -0.089   1.412   6.302 -0.5434 -0.3566  0.1145
  190SLPC    HS21935  -0.175   1.461   6.251  0.2861  0.9433 -0.1071
  190SLPC   O2121936   0.019   1.506   6.327 -0.5774 -0.2584  0.0645
  190SLPC   C2121937  -0.007   1.621   6.289  0.3798  0.4502 -0.4173
  190SLPC   O2221938  -0.095   1.655   6.213  0.1149 -0.1649 -0.7018
  190SLPC   C2221939   0.104   1.705   6.348 -0.7785  0.3323 -1.0092
  190SLPC   H2R21940   0.168   1.653   6.422  0.4564  1.6937 -1.0861
  190SLPC   H2S21941   0.175   1.738   6.270  0.6777  2.2065  1.0097
  190SLPC    C321942  -0.143   1.361   6.446  0.0456  0.0844  0.0172
  190SLPC    HX21943  -0.221   1.290   6.411  1.2764 -1.7397  0.8581
  190SLPC    HY21944  -0.183   1.448   6.502 -0.0316 -0.3674  0.6702
  190SLPC   O3121945  -0.036   1.282   6.511 -0.2056 -0.6862 -1.1012
  190SLPC   C3121946  -0.089   1.201   6.604  0.2614 -0.0859 -0.7381
  190SLPC   O3221947  -0.206   1.218   6.645  0.2769 -0.0657  0.1017
  190SLPC   C3221948   0.007   1.092   6.653 -0.2390 -0.6377 -0.4860
  190SLPC   H2X21949   0.094   1.100   6.583  1.5612  0.3588  1.7360
  190SLPC   H2Y21950  -0.033   0.988   6.648  1.9290 -1.5139 -1.2641
  190SLPC   C2321951   0.046   1.824   6.432 -0.6879  0.7075  0.2991
  190SLPC   H3R21952  -0.001   1.898   6.364  0.7282  1.0643 -0.3330
  190SLPC   H3S21953   0.131   1.884   6.472 -0.2702 -0.8216  1.8118
  190SLPC   C2421954  -0.034   1.770   6.548  0.4081 -0.1428  0.0750
  190SLPC   H4R21955  -0.114   1.701   6.515 -0.3567  0.7556  0.0419
  190SLPC   H4S21956  -0.096   1.849   6.596 -0.4556 -1.4593  1.1937
  190SLPC   C2521957   0.054   1.717   6.659  0.4716 -0.1113 -0.5145
  190SLPC   H5R21958   0.119   1.796   6.702 -0.5432 -0.0797  1.0324
  190SLPC   H5S21959   0.128   1.643   6.622  0.1362 -0.1882 -1.0315
  190SLPC   C2621960  -0.035   1.647   6.772 -0.1703  0.0835 -0.1396
  190SLPC   H6R21961  -0.102   1.575   6.720 -0.5184  1.3087 -1.4216
  190SLPC   H6S21962  -0.103   1.720   6.821 -1.4308 -0.7281 -0.6196
  190SLPC   C2721963   0.044   1.568   6.881 -0.1348 -0.0286  0.1622
  190SLPC   H7R21964   0.087   1.484   6.822 -0.1846  1.5524 -2.2692
  190SLPC   H7S21965  -0.015   1.519   6.962 -0.2402 -0.1495  0.0128
  190SLPC   C2821966   0.161   1.643   6.947  0.1353  0.0097  0.1182
  190SLPC   H8R21967   0.230   1.694   6.876 -0.6151  0.0694 -0.5762
  190SLPC   H8S21968   0.218   1.564   7.001  1.3925  0.6570 -0.2386
  190SLPC   C2921969   0.117   1.750   7.045  0.2741  0.0915 -0.1988
  190SLPC   H9R21970   0.124   1.852   7.005 -2.3573  1.3094  2.0631
  190SLPC  C21021971   0.056   1.727   7.166 -0.3192 -0.2485  0.0337
  190SLPC  H10R21972   0.030   1.817   7.224 -0.4066  0.9336 -1.7684
  190SLPC  C21121973   0.026   1.594   7.230  0.2634 -0.0059 -0.9312
  190SLPC  H11R21974   0.081   1.613   7.325  1.8790  0.9960 -2.0177
  190SLPC  H11S21975   0.076   1.510   7.177 -0.4123 -2.6052  2.2238
  190SLPC  C21221976  -0.121   1.568   7.241  0.0309  0.2352 -0.7023
  190SLPC  H12R21977  -0.175   1.565   7.145 -1.3846 -4.5475 -0.0364
  190SLPC  C21321978  -0.184   1.534   7.355 -0.0409 -0.1222  0.5401
  190SLPC  H13R21979  -0.287   1.500   7.339  0.8990 -2.5172 -1.0632
  190SLPC  C21421980  -0.121   1.512   7.495  0.6177 -0.2114  0.2186
  190SLPC  H14R21981  -0.011   1.505   7.478  0.4768  0.2316 -0.9827
  190SLPC  H14S21982  -0.153   1.419   7.547  2.8660 -1.0750  0.1636
  190SLPC  C21521983  -0.170   1.626   7.596  0.1322 -0.4529  1.0571
  190SLPC  H15R21984  -0.140   1.584   7.694  0.2842 -1.1134  0.7397
  190SLPC  H15S21985  -0.280   1.618   7.580  0.0980  0.1627  0.9830
  190SLPC  C21621986  -0.113   1.759   7.564  0.3847 -0.2985 -0.0060
  190SLPC  H16R21987  -0.147   1.786   7.462 -0.6721 -0.8576  0.1792
  190SLPC  H16S21988  -0.002   1.757   7.568  0.5385  0.3462 -2.3944
  190SLPC  C21721989  -0.175   1.861   7.664 -0.0745  1.2166  0.3903
  190SLPC  H17R21990  -0.285   1.851   7.673 -0.1984 -1.2350 -2.1554
  190SLPC  H17S21991  -0.158   1.964   7.627  1.4453  0.5170 -1.0077
  190SLPC  C21821992  -0.133   1.843   7.810 -0.1559  0.4546 -0.6302
  190SLPC  H18R21993  -0.023   1.855   7.817 -0.1799  0.6289 -0.5356
  190SLPC  H18S21994  -0.165   1.744   7.849  0.1604 -0.1753 -1.9551
  190SLPC  H18T21995  -0.185   1.923   7.868 -2.8102 -1.7998  0.3227
  190SLPC   C3321996   0.065   1.119   6.796 -0.4560  0.5150 -0.0273
  190SLPC   H3X21997   0.095   1.226   6.797 -0.6368  0.5974  2.8647
  190SLPC   H3Y21998   0.157   1.058   6.811 -0.7625  0.1732  0.4808
  190SLPC   C3421999  -0.034   1.094   6.906  0.4239  0.2990 -0.0057
  190SLPC   H4X22000  -0.065   0.989   6.923 -0.7369  0.7069  0.5691
  190SLPC   H4Y22001  -0.129   1.145   6.880 -0.1543 -0.0955  1.2253
  190SLPC   C3522002   0.007   1.157   7.041 -0.0492  0.4483  0.5262
  190SLPC   H5X22003   0.022   1.266   7.033  0.1027  0.3085 -4.5759
  190SLPC   H5Y22004   0.110   1.124   7.065  0.2968  1.1815  0.0723
  190SLPC   C3622005  -0.090   1.107   7.156 -0.1731  0.3369 -0.4327
  190SLPC   H6X22006  -0.061   1.000   7.159  1.2376  0.6748 -1.1184
  190SLPC   H6Y22007  -0.192   1.105   7.112 -0.9289 -1.0994  1.2563
  190SLPC   C3722008  -0.068   1.167   7.298  0.4871  0.0651 -0.8363
  190SLPC   H7X22009  -0.106   1.271   7.313  2.2505  0.4956  1.2064
  190SLPC   H7Y22010   0.042   1.162   7.310  0.2907 -2.1908  0.5499
  190SLPC   C3822011  -0.131   1.084   7.414 -0.4846  0.0906 -0.9416
  190SLPC   H8X22012  -0.093   0.980   7.407 -1.4046 -0.3348  0.0758
  190SLPC   H8Y22013  -0.241   1.089   7.397 -0.9916 -1.1255  1.5393
  190SLPC   C3922014  -0.086   1.133   7.550 -0.1661  0.4270  0.4478
  190SLPC   H9X22015  -0.078   1.243   7.565  3.3532  0.2045  0.9755
  190SLPC   H9Y22016   0.017   1.101   7.577 -0.6662 -0.6746  1.0955
  190SLPC  C31022017  -0.173   1.092   7.666 -0.7251  0.1376  0.2195
  190SLPC  H10X22018  -0.186   0.982   7.669  0.2121  0.0297  0.7358
  190SLPC  H10Y22019  -0.278   1.129   7.658 -0.7344 -0.2733 -2.5860
  190SLPC  C31122020  -0.127   1.141   7.804 -0.0065  0.2843  0.7920
  190SLPC  H11X22021  -0.020   1.117   7.822 -0.0468 -1.2783 -0.6645
  190SLPC  H11Y22022  -0.182   1.075   7.874  0.1697  0.4652  1.1015
  190SLPC  C31222023  -0.146   1.293   7.822 -0.1250 -0.4590  0.4686
  190SLPC  H12X22024  -0.249   1.326   7.794 -0.4779 -1.0016  1.1115
  190SLPC  H12Y22025  -0.084   1.356   7.754 -0.6360 -0.4534 -0.0067
  190SLPC  C31322026  -0.127   1.334   7.966  0.0586 -0.1196 -0.1080
  190SLPC  H13X22027  -0.090   1.257   8.036 -2.3328  0.0834  1.5127
  190SLPC  H13Y22028  -0.228   1.364   8.002 -0.3193  1.0327 -1.9636
  190SLPC  C31422029  -0.054   1.463   7.989 -0.1856  0.0818  0.1962
  190SLPC  H14X22030  -0.112   1.547   7.945 -1.5275 -1.0660 -0.2791
  190SLPC  H14Y22031   0.040   1.452   7.931 -0.9016  1.6100 -1.3498
  190SLPC  C31522032  -0.013   1.490   8.134  0.2059 -0.0468 -0.5855
  190SLPC  H15X22033   0.045   1.404   8.174 -3.6970 -2.7446 -0.2037
  190SLPC  H15Y22034  -0.104   1.485   8.197  1.5739 -3.5452  1.4411
  190SLPC  C31622035   0.063   1.631   8.154  0.1407  0.5116  0.6899
  190SLPC  H16X22036   0.030   1.664   8.255  0.2748  0.4335  0.7600
  190SLPC  H16Y22037   0.035   1.695   8.068  0.6172 -1.1961 -0.8072
  190SLPC  C31722038   0.207   1.610   8.143 -0.0653 -0.0781  0.4748
  190SLPC  H17X22039   0.246   1.694   8.080  0.0596  0.0964  0.7815
  190SLPC  H17Y22040   0.238   1.521   8.084  3.0789  0.7910  0.6364
  190SLPC  C31822041   0.293   1.602   8.269  0.0934  0.2188  0.9662
  190SLPC  H18X22042   0.259   1.695   8.320 -0.9613  1.7084 -2.1919
  190SLPC  H18Y22043   0.402   1.609   8.253  0.5936 -2.3927  2.6565
  190SLPC  H18Z22044   0.270   1.513   8.330 -0.5156 -0.2006  0.1504
  191SLPC     N22045   2.978   2.843   6.119 -0.2168 -0.1798  0.5572
  191SLPC   C1322046   2.856   2.863   6.206  0.2741 -0.1527  0.4855
  191SLPC  H13A22047   2.871   2.936   6.284  0.8550 -0.0459  0.2745
  191SLPC  H13B22048   2.768   2.885   6.148  0.2459  0.5250  0.7825
  191SLPC  H13C22049   2.834   2.768   6.254 -0.7900  0.4753  1.3081
  191SLPC   C1422050   3.001   2.985   6.056  0.5568  0.4120 -0.0376
  191SLPC  H14A22051   3.067   2.981   5.971  2.3097 -0.6619  1.3187
  191SLPC  H14B22052   2.911   3.025   6.010  0.6701  0.7545  0.0387
  191SLPC  H14C22053   3.054   3.044   6.129  0.4885  0.1941  0.1859
  191SLPC   C1522054   2.950   2.741   6.011  0.0822  0.1585  0.3093
  191SLPC  H15A22055   3.040   2.714   5.958  0.0657 -1.5502  1.0694
  191SLPC  H15B22056   2.906   2.650   6.050 -1.2374  0.5964 -0.1207
  191SLPC  H15C22057   2.890   2.781   5.931  1.4526  2.4306  0.3354
  191SLPC   C1222058   3.102   2.803   6.197  0.0265 -0.3379  0.5041
  191SLPC  H12A22059   3.186   2.806   6.129 -0.9583  1.7345 -0.7095
  191SLPC  H12B22060   3.094   2.700   6.229  2.2301 -2.2484 -4.1514
  191SLPC   C1122061   3.154   2.890   6.314  0.3188 -0.3603 -0.3334
  191SLPC  H11A22062   3.225   2.828   6.372 -1.0811  0.3450  2.3379
  191SLPC  H11B22063   3.067   2.910   6.381  1.3206 -0.9216  1.1900
  191SLPC     P22064   3.352   3.030   6.219  0.1072  0.1790 -0.5794
  191SLPC   O1322065   3.390   2.912   6.141  0.0499  0.1740  0.3661
  191SLPC   O1422066   3.378   3.164   6.162  0.1096  0.1875  0.0886
  191SLPC   O1222067   3.203   3.018   6.274  0.2242 -0.0645  0.0424
  191SLPC   O1122068   3.435   3.030   6.346 -0.3303 -0.7314  0.0409
  191SLPC    C122069   3.404   3.112   6.463  1.0576  0.1734  0.3580
  191SLPC    HA22070   3.460   3.207   6.458  2.1910 -0.5346 -1.9328
  191SLPC    HB22071   3.294   3.131   6.456  0.4313 -1.8845  2.8599
  191SLPC    C222072   3.433   3.049   6.601  0.0365 -0.0133  0.2477
  191SLPC    HS22073   3.436   3.135   6.671  1.1168  0.2253 -0.0769
  191SLPC   O2122074   3.558   2.978   6.607  0.0999 -0.4689  0.6288
  191SLPC   C2122075   3.667   3.047   6.633 -0.1439  0.8731  0.1273
  191SLPC   O2222076   3.677   3.163   6.621  0.0868 -0.0288 -0.1108
  191SLPC   C2222077   3.783   2.948   6.657 -0.0351  0.2915  0.6804
  191SLPC   H2R22078   3.768   2.869   6.580 -2.2471  0.0969  1.2485
  191SLPC   H2S22079   3.869   3.012   6.628 -1.8289  2.9143  0.7721
  191SLPC    C322080   3.311   2.959   6.651 -0.7698 -0.0448  0.5194
  191SLPC    HX22081   3.324   2.868   6.588  0.3615 -0.1811  0.9143
  191SLPC    HY22082   3.210   2.998   6.626  0.3266  3.8981  1.5602
  191SLPC   O3122083   3.323   2.919   6.788 -0.5883  0.3084 -0.2543
  191SLPC   C3122084   3.252   2.997   6.868 -0.2458  0.6560  0.2150
  191SLPC   O3222085   3.188   3.099   6.836 -0.1306 -0.1454 -0.2501
  191SLPC   C3222086   3.258   2.937   7.014 -0.1103 -0.3294  0.0473
  191SLPC   H2X22087   3.360   2.902   7.040 -0.1226  0.4540  1.2140
  191SLPC   H2Y22088   3.188   2.851   7.013  2.9737 -3.0541  0.6388
  191SLPC   C2322089   3.804   2.891   6.803 -0.2878  0.3669 -0.1574
  191SLPC   H3R22090   3.910   2.859   6.792 -0.7305 -0.5941 -2.2779
  191SLPC   H3S22091   3.743   2.800   6.825  1.8094 -0.6893  1.6861
  191SLPC   C2422092   3.794   2.989   6.920  0.0264 -0.2876 -0.3277
  191SLPC   H4R22093   3.689   3.023   6.928 -0.7657 -2.6576  0.0761
  191SLPC   H4S22094   3.849   3.085   6.904 -1.5918  1.3976  3.2256
  191SLPC   C2522095   3.814   2.910   7.049  0.1379 -0.3478  0.1944
  191SLPC   H5R22096   3.919   2.907   7.086  0.3592  1.9041 -0.0798
  191SLPC   H5S22097   3.785   2.806   7.025 -0.4779 -0.2598  0.5349
  191SLPC   C2622098   3.719   2.958   7.159  0.4610 -0.0307 -0.5142
  191SLPC   H6R22099   3.614   2.942   7.125  1.3637 -1.7436 -2.6781
  191SLPC   H6S22100   3.744   3.065   7.176 -0.4533  0.5021 -2.3006
  191SLPC   C2722101   3.736   2.891   7.294 -0.4489  0.6158 -0.0141
  191SLPC   H7R22102   3.844   2.895   7.320 -0.5875 -1.8459  1.1866
  191SLPC   H7S22103   3.707   2.784   7.286 -2.9879  1.1912  0.5454
  191SLPC   C2822104   3.648   2.960   7.403 -0.4509 -0.0856 -0.0205
  191SLPC   H8R22105   3.546   2.917   7.414 -0.4131 -0.3027 -0.5117
  191SLPC   H8S22106   3.630   3.065   7.369  2.2311  0.3006 -0.4903
  191SLPC   C2922107   3.716   2.960   7.535 -0.0644  0.0174  0.5504
  191SLPC   H9R22108   3.685   2.872   7.593 -4.8879  2.2465  1.8926
  191SLPC  C21022109   3.817   3.039   7.576 -0.0825 -1.3337 -0.6487
  191SLPC  H10R22110   3.843   3.035   7.683 -2.3745 -0.4335  0.0217
  191SLPC  C21122111   3.873   3.161   7.497  0.1241 -0.0576  0.4713
  191SLPC  H11R22112   3.867   3.138   7.388  1.0473 -3.1896  0.9930
  191SLPC  H11S22113   3.981   3.169   7.517 -0.1656 -0.8561  2.5592
  191SLPC  C21222114   3.800   3.289   7.517  0.7639 -0.2840  1.0091
  191SLPC  H12R22115   3.738   3.304   7.606  0.7934  2.0867  0.6802
  191SLPC  C21322116   3.815   3.397   7.436  0.0927  0.4546  0.3218
  191SLPC  H13R22117   3.765   3.492   7.459 -0.8245  0.8664 -2.7872
  191SLPC  C21422118   3.903   3.415   7.313 -0.1469  0.1756 -0.0739
  191SLPC  H14R22119   3.972   3.329   7.302 -0.2572  0.1421 -0.5144
  191SLPC  H14S22120   3.964   3.508   7.303 -0.2234  0.1264 -1.1691
  191SLPC  C21522121   3.827   3.417   7.184  0.2239 -0.2150 -0.5832
  191SLPC  H15R22122   3.747   3.340   7.186  0.5572 -0.5520  0.8972
  191SLPC  H15S22123   3.890   3.395   7.096  2.3187 -1.6778  1.1583
  191SLPC  C21622124   3.728   3.538   7.164  1.2299  0.4335 -0.0496
  191SLPC  H16R22125   3.780   3.632   7.136  3.7539 -0.8239  0.0817
  191SLPC  H16S22126   3.696   3.565   7.267  1.4568 -1.2765  0.5099
  191SLPC  C21722127   3.608   3.509   7.072  0.4574 -0.3673  0.6543
  191SLPC  H17R22128   3.569   3.410   7.105 -0.8126  0.5655  2.1397
  191SLPC  H17S22129   3.654   3.488   6.973 -2.9267 -1.2206 -0.8727
  191SLPC  C21822130   3.503   3.617   7.089 -0.0115  1.0670  0.8439
  191SLPC  H18R22131   3.457   3.615   7.190 -0.3697  0.3006  0.6758
  191SLPC  H18S22132   3.427   3.590   7.012  0.8119 -1.2908  0.7777
  191SLPC  H18T22133   3.535   3.722   7.073 -0.5294  1.0992 -0.1030
  191SLPC   C3322134   3.240   3.048   7.118  0.7374  0.8225 -0.0355
  191SLPC   H3X22135   3.256   2.999   7.216  1.0594  0.4100 -0.2891
  191SLPC   H3Y22136   3.132   3.072   7.124  0.2957 -0.8318 -0.9765
  191SLPC   C3422137   3.327   3.171   7.122  0.4134  0.2827  0.9025
  191SLPC   H4X22138   3.296   3.231   7.034  1.4418  0.2581  0.5129
  191SLPC   H4Y22139   3.436   3.155   7.108  0.6154  1.6459  0.8509
  191SLPC   C3522140   3.302   3.259   7.239  0.0561 -0.1042  0.6243
  191SLPC   H5X22141   3.192   3.271   7.247  0.1026  0.5586  0.3643
  191SLPC   H5Y22142   3.340   3.363   7.228  0.1797 -0.1470  0.6466
  191SLPC   C3622143   3.369   3.208   7.363 -0.0200  0.0309  0.0417
  191SLPC   H6X22144   3.479   3.195   7.357  0.1208  1.1966 -0.0340
  191SLPC   H6Y22145   3.340   3.104   7.388 -2.1110  0.1051 -1.7652
  191SLPC   C3722146   3.348   3.297   7.490 -0.4097  0.9359 -0.6989
  191SLPC   H7X22147   3.242   3.322   7.511 -0.1990  1.1779  0.1312
  191SLPC   H7Y22148   3.393   3.396   7.466  0.0979  0.9582  0.2645
  191SLPC   C3822149   3.415   3.242   7.616 -0.2769  0.6215  0.0875
  191SLPC   H8X22150   3.518   3.201   7.613 -0.8553 -0.8567 -0.9523
  191SLPC   H8Y22151   3.350   3.153   7.630 -2.6099  2.1260 -0.7316
  191SLPC   C3922152   3.409   3.334   7.735 -0.1074  0.6565  0.0342
  191SLPC   H9X22153   3.311   3.384   7.747  0.3748  2.0770 -1.4819
  191SLPC   H9Y22154   3.480   3.420   7.739  0.1988  0.3690  1.1044
  191SLPC  C31022155   3.440   3.256   7.862 -0.2471  0.0543  0.0630
  191SLPC  H10X22156   3.550   3.257   7.878 -0.0686  2.4036 -0.8676
  191SLPC  H10Y22157   3.403   3.154   7.835 -0.3530  0.4072 -1.2037
  191SLPC  C31122158   3.369   3.302   7.991 -0.3243 -0.0081  0.2898
  191SLPC  H11X22159   3.351   3.212   8.055 -2.0894  0.2902  0.2509
  191SLPC  H11Y22160   3.271   3.347   7.964  0.5572  1.8201 -0.0031
  191SLPC  C31222161   3.465   3.402   8.066 -0.1411  0.0761 -0.8510
  191SLPC  H12X22162   3.483   3.499   8.017 -0.5375 -0.0969 -1.3407
  191SLPC  H12Y22163   3.562   3.346   8.070 -0.1013  0.1061  2.8894
  191SLPC  C31322164   3.423   3.439   8.211 -0.5486  0.1970  0.2235
  191SLPC  H13X22165   3.398   3.344   8.264  0.8400 -1.3094 -1.6624
  191SLPC  H13Y22166   3.342   3.513   8.193 -1.9314 -1.0291  1.0912
  191SLPC  C31422167   3.542   3.496   8.296 -0.3401  0.2081  0.4665
  191SLPC  H14X22168   3.496   3.537   8.389  0.4187  1.2317  0.4058
  191SLPC  H14Y22169   3.595   3.573   8.238  1.5226  0.7338  2.7090
  191SLPC  C31522170   3.643   3.396   8.362 -0.3954  0.5780  0.0965
  191SLPC  H15X22171   3.734   3.395   8.297 -0.2158  3.4400  0.1858
  191SLPC  H15Y22172   3.598   3.296   8.381  0.4653  0.2182  0.2968
  191SLPC  C31622173   3.690   3.454   8.495  0.0151 -0.4964 -0.0165
  191SLPC  H16X22174   3.602   3.497   8.548 -0.6131 -2.1863  0.3994
  191SLPC  H16Y22175   3.756   3.538   8.466  1.7507 -1.9633 -0.5090
  191SLPC  C31722176   3.780   3.364   8.575 -0.8395 -0.1992 -0.0021
  191SLPC  H17X22177   3.847   3.295   8.519  1.5172  0.3100  2.0115
  191SLPC  H17Y22178   3.709   3.306   8.638  1.9004 -0.7911  2.7631
  191SLPC  C31822179   3.865   3.448   8.671  0.1151 -0.1668  0.3543
  191SLPC  H18X22180   3.809   3.536   8.709  0.2399 -0.0910  0.3626
  191SLPC  H18Y22181   3.957   3.482   8.619  0.3273 -0.9024  0.2344
  191SLPC  H18Z22182   3.891   3.389   8.762 -0.2772 -0.4608  0.2782
  192SLPC     N22183   0.967   6.266   6.242  0.0297  0.0305  0.9507
  192SLPC   C1322184   0.823   6.233   6.218  0.0842 -0.0294 -0.7456
  192SLPC  H13A22185   0.762   6.318   6.243  1.0672  0.4646  0.0513
  192SLPC  H13B22186   0.801   6.208   6.115 -0.1862 -2.4483 -0.1578
  192SLPC  H13C22187   0.793   6.154   6.286  1.6682 -0.4746 -0.5109
  192SLPC   C1422188   0.985   6.387   6.158 -0.4014  0.7048 -0.3087
  192SLPC  H14A22189   1.087   6.420   6.156  0.3224 -1.3847 -0.1560
  192SLPC  H14B22190   0.968   6.353   6.057  0.2119  1.3172 -0.6222
  192SLPC  H14C22191   0.924   6.476   6.166  0.0253  0.9570  0.1951
  192SLPC   C1522192   1.051   6.159   6.184 -0.6717  0.0328 -0.1031
  192SLPC  H15A22193   1.156   6.184   6.198 -0.9728  1.3795 -0.0707
  192SLPC  H15B22194   1.039   6.063   6.232  2.7999 -1.2381 -1.4463
  192SLPC  H15C22195   1.019   6.141   6.083  0.0031  0.9760 -0.5079
  192SLPC   C1222196   0.982   6.292   6.385  0.3294 -0.8323 -0.6487
  192SLPC  H12A22197   0.914   6.372   6.412 -0.1624 -1.2086 -0.7621
  192SLPC  H12B22198   1.080   6.335   6.398 -0.4469  1.0446 -0.6712
  192SLPC   C1122199   0.973   6.177   6.497  0.2650  0.4368  0.0182
  192SLPC  H11A22200   0.947   6.235   6.588 -0.7918 -0.8661  0.5763
  192SLPC  H11B22201   1.077   6.139   6.509  0.2674  0.2507 -0.5532
  192SLPC     P22202   0.920   5.921   6.464 -0.2593 -0.2434  0.1536
  192SLPC   O1322203   0.795   5.844   6.462  0.3077 -0.7520 -0.0369
  192SLPC   O1422204   1.003   5.905   6.338 -0.0390 -0.1618  0.3931
  192SLPC   O1222205   0.876   6.073   6.479  0.0285 -0.2167 -0.1661
  192SLPC   O1122206   1.012   5.893   6.588 -0.1872 -0.0125  0.1358
  192SLPC    C122207   0.980   5.913   6.721 -0.6779 -0.7637  0.2054
  192SLPC    HA22208   1.064   5.947   6.786 -1.3004  0.7894  0.2244
  192SLPC    HB22209   0.912   5.999   6.737 -0.6363 -0.5667 -0.6329
  192SLPC    C222210   0.907   5.792   6.784 -0.3750  0.2260 -0.4914
  192SLPC    HS22211   0.815   5.775   6.724 -1.0552 -0.3203  0.6629
  192SLPC   O2122212   0.871   5.816   6.924  0.0370 -0.9560  0.3111
  192SLPC   C2122213   0.754   5.775   6.960 -0.0646  0.5953 -0.2032
  192SLPC   O2222214   0.668   5.722   6.883 -0.0753 -1.3292 -0.9197
  192SLPC   C2222215   0.729   5.807   7.105 -0.3867  0.3868  0.4262
  192SLPC   H2R22216   0.804   5.881   7.141  0.6913 -0.1773 -0.5920
  192SLPC   H2S22217   0.635   5.866   7.103 -0.0407  1.0129  1.4549
  192SLPC    C322218   0.995   5.665   6.775 -0.2948  0.7685 -0.0444
  192SLPC    HX22219   1.090   5.700   6.821  0.4826  0.2891 -1.2608
  192SLPC    HY22220   1.027   5.633   6.674 -0.4464 -2.8078  0.9100
  192SLPC   O3122221   0.941   5.554   6.847  0.3793  0.1765 -0.1591
  192SLPC   C3122222   0.852   5.484   6.778 -0.0021  0.0217  0.2888
  192SLPC   O3222223   0.830   5.498   6.659 -0.4207  0.3141  0.5394
  192SLPC   C3222224   0.786   5.379   6.875  0.2860 -0.1678  0.3079
  192SLPC   H2X22225   0.748   5.301   6.806  0.3892 -0.1150  0.1924
  192SLPC   H2Y22226   0.711   5.438   6.931  1.4603  0.6075  1.1341
  192SLPC   C2322227   0.718   5.683   7.199 -0.8984  0.3665  0.0742
  192SLPC   H3R22228   0.818   5.637   7.210 -1.6868 -1.0841  1.7259
  192SLPC   H3S22229   0.649   5.607   7.156  0.3557  0.1109 -1.5667
  192SLPC   C2422230   0.664   5.709   7.344 -0.4644 -0.5127  0.2721
  192SLPC   H4R22231   0.567   5.658   7.354 -1.6973  1.6043 -0.2885
  192SLPC   H4S22232   0.646   5.818   7.353  0.2172 -0.3056 -0.6765
  192SLPC   C2522233   0.769   5.666   7.456 -0.7056 -0.2903  1.0220
  192SLPC   H5R22234   0.865   5.714   7.429 -0.5521 -1.2629 -0.2870
  192SLPC   H5S22235   0.786   5.558   7.437 -2.1022 -0.1947 -1.1319
  192SLPC   C2622236   0.716   5.687   7.598 -0.3622  0.6202 -0.0713
  192SLPC   H6R22237   0.796   5.642   7.661 -1.8754 -1.3912  0.5370
  192SLPC   H6S22238   0.623   5.628   7.612 -1.5455  2.8778  2.3700
  192SLPC   C2722239   0.702   5.838   7.636  0.3058  0.3036 -0.4856
  192SLPC   H7R22240   0.619   5.886   7.580  0.3418  1.2967  0.2765
  192SLPC   H7S22241   0.801   5.888   7.624  0.5153  0.3800  1.3321
  192SLPC   C2822242   0.664   5.844   7.787  0.4268 -1.0337  0.0620
  192SLPC   H8R22243   0.718   5.751   7.815  1.9598 -0.6213 -1.3420
  192SLPC   H8S22244   0.556   5.838   7.812  0.6300  2.3509  2.4203
  192SLPC   C2922245   0.721   5.968   7.856 -0.2990  0.2455  0.6632
  192SLPC   H9R22246   0.655   6.055   7.853 -0.3282  0.2146 -2.0224
  192SLPC  C21022247   0.824   5.975   7.934 -0.0306  0.0038 -0.4958
  192SLPC  H10R22248   0.848   6.069   7.986  0.0621 -0.2687 -0.0443
  192SLPC  C21122249   0.920   5.867   7.979 -0.0716 -0.8222  0.4816
  192SLPC  H11R22250   0.892   5.762   7.957 -1.8282 -0.8083  2.3757
  192SLPC  H11S22251   0.915   5.873   8.090 -0.7613  2.9785  0.3885
  192SLPC  C21222252   1.066   5.892   7.935 -0.1035 -0.2799  0.2409
  192SLPC  H12R22253   1.072   5.898   7.825 -1.7534 -1.8090  0.0212
  192SLPC  C21322254   1.178   5.913   8.002 -0.1649  0.4133 -0.4614
  192SLPC  H13R22255   1.275   5.912   7.950  0.1370 -0.6550  0.0796
  192SLPC  C21422256   1.188   5.905   8.151 -1.0681 -0.4229 -0.3648
  192SLPC  H14R22257   1.281   5.851   8.178 -1.6039 -0.7782  0.8582
  192SLPC  H14S22258   1.105   5.852   8.204 -1.8324 -0.6477 -1.7393
  192SLPC  C21522259   1.213   6.050   8.201 -0.0236 -0.4367 -0.6897
  192SLPC  H15R22260   1.119   6.107   8.189 -0.1800 -0.8419 -1.4773
  192SLPC  H15S22261   1.297   6.102   8.149 -1.0030  1.7485 -0.1793
  192SLPC  C21622262   1.241   6.059   8.350  0.2968 -0.1431 -0.0331
  192SLPC  H16R22263   1.191   5.978   8.407 -1.4489  0.6983 -0.3043
  192SLPC  H16S22264   1.203   6.158   8.384  0.9191  0.4994 -1.1610
  192SLPC  C21722265   1.394   6.047   8.365 -0.4891  0.4514  0.1092
  192SLPC  H17R22266   1.417   5.942   8.338 -2.7481 -0.1564  0.3260
  192SLPC  H17S22267   1.458   6.108   8.298 -1.1548  0.6693 -0.3341
  192SLPC  C21822268   1.433   6.051   8.510 -0.4614 -0.6490  0.1683
  192SLPC  H18R22269   1.543   6.044   8.525  0.1428 -2.5384 -3.8642
  192SLPC  H18S22270   1.382   5.974   8.572 -2.0945 -1.0063 -1.5391
  192SLPC  H18T22271   1.411   6.147   8.562 -1.1674 -1.6584  1.8193
  192SLPC   C3322272   0.878   5.306   6.974 -0.3871  0.5451  0.0233
  192SLPC   H3X22273   0.931   5.360   7.056  0.6236 -0.7947  0.3066
  192SLPC   H3Y22274   0.954   5.259   6.908 -1.5444 -2.3457  0.6012
  192SLPC   C3422275   0.808   5.184   7.044 -0.1660  0.2600  0.1757
  192SLPC   H4X22276   0.889   5.130   7.097 -0.3950 -0.0795  0.1838
  192SLPC   H4Y22277   0.764   5.121   6.964 -0.6034 -0.2787  0.8243
  192SLPC   C3522278   0.683   5.220   7.137 -0.4455  0.1084  0.3594
  192SLPC   H5X22279   0.645   5.132   7.193 -1.2792  0.8136  0.9273
  192SLPC   H5Y22280   0.594   5.262   7.087 -0.7382  0.0946  0.8598
  192SLPC   C3622281   0.718   5.312   7.255 -1.0364  0.5776 -0.5855
  192SLPC   H6X22282   0.625   5.365   7.286 -1.3988 -2.2157  4.0009
  192SLPC   H6Y22283   0.794   5.386   7.224  0.6820 -0.7899  0.2080
  192SLPC   C3722284   0.782   5.233   7.369  0.8901  0.3299 -0.6058
  192SLPC   H7X22285   0.840   5.305   7.431 -2.1091  0.8744  1.8096
  192SLPC   H7Y22286   0.862   5.161   7.343  0.6163  0.0959 -0.7965
  192SLPC   C3822287   0.688   5.182   7.477 -0.1210  0.7118 -0.0684
  192SLPC   H8X22288   0.742   5.148   7.569 -0.7616  2.1143  0.8656
  192SLPC   H8Y22289   0.647   5.094   7.424 -0.6874  0.7207  0.3490
  192SLPC   C3922290   0.583   5.278   7.517  0.1959  0.3264  0.4427
  192SLPC   H9X22291   0.511   5.286   7.433  0.8935  1.2281 -0.0883
  192SLPC   H9Y22292   0.635   5.375   7.530  1.4305 -0.0350 -1.4006
  192SLPC  C31022293   0.505   5.242   7.647  0.0526  0.1806 -0.1027
  192SLPC  H10X22294   0.579   5.240   7.730 -0.2571  0.9998  0.2065
  192SLPC  H10Y22295   0.458   5.141   7.645 -1.2027  0.6728  1.9110
  192SLPC  C31122296   0.399   5.351   7.677  0.5538 -0.0622  0.3343
  192SLPC  H11X22297   0.314   5.337   7.606 -1.3513  3.1190  1.7787
  192SLPC  H11Y22298   0.424   5.457   7.657  1.7337 -0.8856 -3.3310
  192SLPC  C31222299   0.329   5.335   7.818  0.4047  0.8645 -0.7268
  192SLPC  H12X22300   0.343   5.230   7.851  0.2884  1.2213  0.5225
  192SLPC  H12Y22301   0.219   5.336   7.808  0.3255 -0.3113 -0.1655
  192SLPC  C31322302   0.394   5.434   7.916  0.6231  0.1121 -0.6387
  192SLPC  H13X22303   0.343   5.422   8.013  1.1371 -2.0378 -0.5674
  192SLPC  H13Y22304   0.392   5.538   7.878  0.9789  0.2888 -0.1795
  192SLPC  C31422305   0.544   5.413   7.947  0.3855  0.2046  0.4495
  192SLPC  H14X22306   0.605   5.419   7.855  2.3863  2.4152  1.8119
  192SLPC  H14Y22307   0.560   5.310   7.986 -0.9569  0.7093  2.4828
  192SLPC  C31522308   0.609   5.510   8.036 -0.3929 -0.3811 -0.1958
  192SLPC  H15X22309   0.538   5.525   8.120 -2.2222 -1.6542 -1.4389
  192SLPC  H15Y22310   0.625   5.610   7.991  2.0011 -1.0496 -1.0058
  192SLPC  C31622311   0.745   5.461   8.094  0.4328  0.0085 -1.0599
  192SLPC  H16X22312   0.821   5.540   8.110  0.7781 -0.5020 -0.1687
  192SLPC  H16Y22313   0.784   5.383   8.025  1.7652 -0.8109  0.5503
  192SLPC  C31722314   0.723   5.382   8.223 -0.0548 -0.0583 -0.6039
  192SLPC  H17X22315   0.646   5.306   8.196  0.6269 -0.6937 -0.8054
  192SLPC  H17Y22316   0.688   5.438   8.312  0.8588 -0.5656  0.0920
  192SLPC  C31822317   0.852   5.302   8.264 -0.1060  1.4047 -0.2997
  192SLPC  H18X22318   0.880   5.321   8.369  1.9157 -0.9073 -0.3303
  192SLPC  H18Y22319   0.928   5.335   8.191  1.8621 -0.3600  0.8571
  192SLPC  H18Z22320   0.837   5.192   8.252  3.0075  0.9340 -0.6278
  193SOD    SOD22321   0.436   5.479  16.508  0.0217  0.3122 -0.4244
  194SOD    SOD22322   2.461   5.502  11.674 -0.1610 -0.1729  0.3216
  195SOD    SOD22323   6.707   3.857   3.006  0.2119 -0.1224 -0.3912
  196SOD    SOD22324   1.825   4.403   0.266  0.0871 -0.5746 -0.0133
  197SOD    SOD22325   2.880   3.867   6.375  0.2923  0.1475  0.1879
  198SOD    SOD22326   2.622   5.992  11.705 -0.0797 -0.2471 -0.0418
  199SOD    SOD22327   0.335   3.238   2.592 -0.2222 -0.2503  0.0795
  200SOD    SOD22328   6.787   4.152  10.590 -0.2227 -0.1639  0.0408
  201SOD    SOD22329   2.666   4.049  14.874 -0.6730  0.2199  0.7080
  202SOD    SOD22330   2.422   1.977   3.174 -0.1254  0.3263  0.1106
  203SOD    SOD22331   2.857   0.898   5.473 -0.3721  1.0628 -0.0833
  204SOD    SOD22332   4.070   3.229  15.904 -0.1066 -0.1933  0.5713
  205SOD    SOD22333   3.435   3.593   3.786 -0.2151  0.0586  0.0593
  206SOD    SOD22334   5.024   0.551  15.760 -0.3566  0.1676 -0.1001
  207SOD    SOD22335   2.321   6.426  14.913 -0.3825  0.5599 -0.0351
  208SOD    SOD22336   0.616   6.299  11.630  0.2901 -0.2984  0.2119
  209SOD    SOD22337   1.127   5.390  12.369 -0.6261  0.2470  0.4668
  210SOD    SOD22338   3.653   2.673   4.942  0.3065 -0.5429  0.2703
  211SOD    SOD22339   4.617   5.543   1.342  0.0813  0.1665  0.2279
  212SOD    SOD22340   1.630   5.702   6.060 -0.1992  0.2396  0.0674
  213SOD    SOD22341   5.234   5.889   6.058 -0.0053 -0.2886  0.0334
  214SOD    SOD22342   5.660   1.436   1.476  0.3484 -0.2238 -0.1449
  215SOD    SOD22343   3.052   4.526  11.373 -0.1342  0.2862 -0.3523
  216SOD    SOD22344   1.906   5.990   1.430 -0.3717 -0.1363 -0.3446
  217SOD    SOD22345   5.756   4.634   4.677 -0.5087  0.0041 -0.5960
  218SOD    SOD22346   5.718   3.820   0.251 -0.3548 -0.1308 -0.2181
  219SOD    SOD22347   4.383   3.057  10.999  0.3310 -0.0637 -0.2297
  220SOD    SOD22348   0.887   2.212  16.273  0.2909 -0.5919 -0.1359
  221SOD    SOD22349   1.635   0.847  13.063  0.3524  0.1160  0.3386
  222SOD    SOD22350   5.903   5.555  15.672  0.2546  0.2990 -0.3424
  223SOD    SOD22351   2.031   4.255   3.689 -0.4685  0.0818  0.6302
  224SOD    SOD22352   3.286   5.455   6.544  0.1440  0.4854 -0.1224
  225SOD    SOD22353   3.343   0.996  10.446 -0.1550 -0.2645 -0.0003
  226SOD    SOD22354   4.857   5.133  15.187 -0.0348 -0.1506 -0.2390
  227SOD    SOD22355   0.861   1.802   0.350  0.0933 -0.5414 -0.0016
  228SOD    SOD22356   3.755   0.087  16.332  0.0243  0.8783 -0.0425
  229SOD    SOD22357   3.451   3.258  11.140 -0.1799 -0.2478  0.6331
  230SOD    SOD22358   4.566   3.812  12.662  0.0679 -0.0790 -0.2668
  231SOD    SOD22359   1.051   5.531   1.807  0.1977 -0.1328  0.1845
  232SOD    SOD22360   1.420   0.500  10.342  0.1368  0.1642  0.3452
  233SOD    SOD22361   1.993   2.805   4.661  0.1754 -0.7211 -0.0074
  234SOD    SOD22362   5.830   6.109  13.705 -0.2588  0.0326  0.2401
  235SOD    SOD22363   1.603   4.751   2.772 -0.3305  0.1805 -0.2401
  236SOD    SOD22364   4.824   6.768   4.985  0.0967  0.2830  0.1216
  237SOD    SOD22365   6.438   4.726  14.666 -0.1422  0.3119  0.0305
  238SOD    SOD22366   4.101   5.830  16.286 -0.3618  0.0408  0.2533
  239SOD    SOD22367   1.771   4.084   6.633 -0.2548 -0.3617  0.4206
  240SOD    SOD22368   4.987   0.243  11.548  0.0857 -0.1862 -0.3593
  241SOD    SOD22369   0.348   6.294   2.299  0.4301 -0.4221 -0.0639
  242SOD    SOD22370   3.170   6.741  15.435  0.6023  0.0551  0.2226
  243SOD    SOD22371   1.840   2.154   5.481  0.3106 -0.3216 -0.1436
  244SOD    SOD22372   1.491   2.921  16.084 -0.1021 -0.1788  0.0241
  245SOD    SOD22373   6.203   0.243  12.900 -0.1486  0.4423 -0.3174
  246SOD    SOD22374   4.718   3.750   0.848  0.0848 -0.0538  0.0367
  247SOD    SOD22375   6.491   3.425  14.265  0.3131 -0.6793 -0.1084
  248SOD    SOD22376   5.210   2.155   1.320 -0.1971  0.2535 -0.1484
  249SOD    SOD22377   0.879   5.136  13.799  0.1086 -0.0013 -0.0530
  250SOD    SOD22378   5.075   5.072   0.302 -0.0314 -0.1934  0.0046
  251SOD    SOD22379   0.062   1.731   0.374  0.0485 -0.0948  0.1551
  252SOD    SOD22380   2.239   3.380  12.363  0.1622 -0.1138  0.8755
  253SOD    SOD22381   6.627   1.400   4.330 -0.4565 -0.2368  0.1223
  254SOD    SOD22382   6.820   4.930   0.983 -0.0615  0.0114 -0.6033
  255SOD    SOD22383   6.619   1.325  13.479  0.3511  0.3242 -0.2061
  256SOD    SOD22384   2.627   2.985  13.160 -0.3224 -0.9416  0.1915
  257SOD    SOD22385   6.006   1.939  13.897 -0.0129 -0.1321 -0.0846
  258SOD    SOD22386   6.484   5.419   5.647 -0.1769 -0.2024  0.3354
  259SOD    SOD22387   2.306   4.797   5.511  0.3295  0.0204  0.0650
  260SOD    SOD22388   0.735   5.779   6.024 -0.3033 -0.5230 -0.0903
  261SOD    SOD22389   6.475   1.414  11.201 -0.6715  0.8488 -0.6192
  262SOD    SOD22390   0.944   6.618  14.475  0.3166  0.3341  0.2990
  263SOD    SOD22391   3.395   2.707   0.194  0.0528 -0.1165  0.1540
  264SOD    SOD22392   3.656   4.426  13.634 -0.0238  0.3183  0.0413
  265SOD    SOD22393   2.173   0.808   0.227  0.5515  0.0734  0.3448
  266CLA    CLA22394   0.942   1.325   1.312  0.0571 -0.2617 -0.2549
  267CLA    CLA22395   2.272   5.931   2.046  0.1837 -0.5174 -0.3893
  268CLA    CLA22396   4.018   2.611  12.214  0.0931 -0.2198  0.2185
  269CLA    CLA22397   5.212   1.160   0.248 -0.1722  0.6575 -0.3085
  270CLA    CLA22398   5.593   0.063   0.951 -0.5406 -0.5846  0.3098
  271CLA    CLA22399   2.076   4.817   0.504  0.6001 -0.2710  0.1146
  272CLA    CLA22400   3.680   6.543   1.690 -0.3806 -0.2908  0.2499
  273CLA    CLA22401   1.461   5.673  12.875  0.1763 -0.4889  0.1205
  274CLA    CLA22402   1.857   2.917  13.880 -0.2479  0.0644  0.0017
  275CLA    CLA22403   2.163   2.098   3.584  0.1698  0.4045  0.0736
  276CLA    CLA22404   0.512   3.026   1.391  0.2193 -0.2111 -0.2626
  277CLA    CLA22405   6.025   4.707   3.335  0.2347 -0.4034 -0.1179
  278CLA    CLA22406   0.573   4.716  16.629  0.1609 -0.2353 -0.0287
  279CLA    CLA22407   0.793   2.877   2.475 -0.2121  0.0792 -0.1139
  280CLA    CLA22408   1.668   1.842  16.436  0.2539 -0.5458 -0.0808
  281CLA    CLA22409   6.720   4.087  11.048  0.0683  0.0344 -0.4149
  282CLA    CLA22410   4.933   0.536   3.310 -0.2366  0.1627 -0.1889
  283CLA    CLA22411   4.341   1.457   0.331  0.3538 -0.3310 -0.2376
  284CLA    CLA22412   3.139   6.785   5.355 -0.0197 -0.1957 -0.1091
  285CLA    CLA22413   1.288   1.569  16.550 -0.5709  0.1445 -0.1224
  286CLA    CLA22414   6.202   4.194   0.796  0.0469 -0.2321 -0.4615
  287CLA    CLA22415   3.358   4.318   0.420 -0.0170 -0.0983 -0.0355
  288CLA    CLA22416   3.257   1.257  16.643  0.1383  0.0797 -0.1928
  289CLA    CLA22417   3.428   3.634  15.202 -0.1410 -0.1748 -0.0352
  290CLA    CLA22418   1.813   0.577  13.978  0.4258 -0.0460 -0.0553
  291CLA    CLA22419   4.195   0.077   2.075  0.0461 -0.0913  0.7073
  292CLA    CLA22420   4.883   5.662  15.020  0.0844  0.2314  0.3955
  293CLA    CLA22421   6.796   6.499  13.531  0.0857 -0.0480  0.1889
  294CLA    CLA22422   4.127   6.214  15.987 -0.1141 -0.2107  0.4107
  295CLA    CLA22423   6.440   1.053  15.007  0.1205 -0.0268 -0.1250
  296CLA    CLA22424   3.347   5.192   5.324  0.2809 -0.0742 -0.3553
  297CLA    CLA22425   3.417   6.349   3.839 -0.4840 -0.2859 -0.3655
  298CLA    CLA22426   3.161   5.129  12.503 -0.4943 -0.0118  0.1021
  299CLA    CLA22427   4.730   0.201  11.985 -0.1654 -0.0979  0.2120
  300CLA    CLA22428   6.041   6.013  16.503 -0.1148 -0.1730 -0.2836
  301CLA    CLA22429   4.833   4.742  16.116 -0.0774 -0.1970  0.0753
  302CLA    CLA22430   5.228   4.635   1.132  0.0311 -0.0566 -0.1538
  303CLA    CLA22431   4.803   4.862  13.578  0.1062  0.1390 -0.0782
  304CLA    CLA22432   0.946   6.503  16.777 -0.1978 -0.1776 -0.1166
  305CLA    CLA22433   4.386   5.145  12.557  0.1968 -0.1563 -0.6318
  306CLA    CLA22434   1.125   3.840   1.719 -0.0919 -0.0019  0.1428
  307CLA    CLA22435   0.573   4.195  14.417  0.0860  0.3954  0.2397
  308CLA    CLA22436   5.410   2.372  17.126 -0.3950  0.1778 -0.0309
  309CLA    CLA22437   5.812   1.172   4.476  0.0893 -0.0081 -0.0306
  310CLA    CLA22438   6.506   4.712  11.654  0.4667 -0.0743  0.3896
  311CLA    CLA22439   3.408   4.920  16.831  0.7286 -0.0687  0.0178
  312CLA    CLA22440   2.458   5.301   4.391 -0.2016 -0.5216  0.3825
  313CLA    CLA22441   0.455   5.230  13.230  0.2501  0.0392 -0.0224
  314CLA    CLA22442   2.689   4.484   3.934  0.5383 -0.1535  0.5815
  315CLA    CLA22443   1.697   2.868  15.584 -0.1985  0.2927  0.5168
  316CLA    CLA22444   1.305   5.293  15.902 -0.1141  0.1602  0.3719
  317CLA    CLA22445   2.657   6.006  16.271 -0.1695 -0.0679  0.4123
  318CLA    CLA22446   4.380   3.661   3.685 -0.2967  0.1670 -0.2927
  319TIP3   OH222447   2.306   3.544  13.278 -0.5236 -0.8537  0.6029
  319TIP3    H122448   2.223   3.516  13.239  0.5137 -2.8208 -0.3402
  319TIP3    H222449   2.363   3.562  13.202 -0.0036  0.3014  1.2310
  320TIP3   OH222450   2.043   3.997  13.018 -0.8181  0.2527 -0.5532
  320TIP3    H122451   1.952   3.989  12.991 -1.5622  1.2251  1.4818
  320TIP3    H222452   2.060   4.091  13.018 -0.1003  0.1306 -0.0139
  321TIP3   OH222453   3.787   4.052  12.721  0.2916 -0.2539  0.1162
  321TIP3    H122454   3.833   4.082  12.799 -1.0881  0.1011  0.8176
  321TIP3    H222455   3.697   4.080  12.734 -0.2759 -1.5095 -0.9155
  322TIP3   OH222456   2.208   2.987  11.451  0.2295  0.2739 -0.0504
  322TIP3    H122457   2.146   2.917  11.474 -0.3426  0.7118 -0.2168
  322TIP3    H222458   2.246   2.959  11.368 -1.1209  0.8509 -0.9068
  323TIP3   OH222459   1.910   4.514   1.267 -0.0138  0.1817  0.2520
  323TIP3    H122460   1.846   4.566   1.218  0.4923 -0.6260 -1.3429
  323TIP3    H222461   1.883   4.423   1.252 -0.6282 -0.0990  2.6285
  324TIP3   OH222462   2.730   1.044   5.667 -0.2833  0.1467 -0.0239
  324TIP3    H122463   2.642   1.080   5.675 -0.7367 -1.1535  1.2299
  324TIP3    H222464   2.759   1.031   5.757  1.2988  0.7547 -0.4058
  325TIP3   OH222465   6.285   1.645   5.737  0.2382 -0.2878 -0.0901
  325TIP3    H122466   6.257   1.599   5.658  1.1763  1.2187 -1.3505
  325TIP3    H222467   6.344   1.584   5.780  0.3209 -0.8426 -0.9596
  326TIP3   OH222468   2.398   5.594   4.504 -0.1133  0.4329  0.3474
  326TIP3    H122469   2.306   5.591   4.481  0.1578  0.5217 -0.7967
  326TIP3    H222470   2.432   5.508   4.478  0.1454  0.4168  0.7204
  327TIP3   OH222471   6.437   0.522   5.078 -0.1697  0.0166  0.7247
  327TIP3    H122472   6.346   0.532   5.104 -0.4908  1.5753 -0.8037
  327TIP3    H222473   6.436   0.528   4.982  1.3643 -1.6651  0.5248
  328TIP3   OH222474   4.076   4.268  13.155  0.1680  0.0264  0.4180
  328TIP3    H122475   4.169   4.265  13.178  0.6278  4.2614 -0.2573
  328TIP3    H222476   4.066   4.347  13.103 -3.3569 -1.8442 -2.1408
  329TIP3   OH222477   2.646   3.349  13.789  0.1617  0.3535 -0.4313
  329TIP3    H122478   2.650   3.263  13.748 -0.5596  0.3585 -0.5198
  329TIP3    H222479   2.703   3.404  13.734 -0.4629  0.2588 -1.2041
  330TIP3   OH222480   5.143   1.810   6.142 -0.4099 -0.1737  0.2033
  330TIP3    H122481   5.203   1.824   6.215 -0.3357  0.6185  0.0009
  330TIP3    H222482   5.150   1.717   6.122  0.8686 -0.0614  0.0887
  331TIP3   OH222483   4.546   3.367  11.272 -0.0896  0.2278  0.3867
  331TIP3    H122484   4.583   3.293  11.320 -0.3924  0.2258  0.6203
  331TIP3    H222485   4.545   3.439  11.336 -0.2767  0.2903  0.3146
  332TIP3   OH222486   5.984   0.221  15.334  0.2788 -0.0984 -0.2425
  332TIP3    H122487   5.909   0.276  15.356  0.0428 -0.6870  0.4519
  332TIP3    H222488   5.951   0.132  15.336  0.5732 -0.2641 -1.7495
  333TIP3   OH222489   4.976   1.483  15.495  0.5386  0.7229  0.2014
  333TIP3    H122490   4.881   1.477  15.506  0.5136  0.7741  0.0190
  333TIP3    H222491   4.995   1.430  15.417  0.8268 -0.4048  1.0178
  334TIP3   OH222492   4.956   2.418   2.188  0.8374 -0.1859 -0.2290
  334TIP3    H122493   4.893   2.483   2.218  0.6130 -0.1258 -0.8191
  334TIP3    H222494   4.979   2.368   2.267 -2.1027 -2.0897 -0.4272
  335TIP3   OH222495   5.130   0.265   4.337 -0.1585  0.2839 -0.8036
  335TIP3    H122496   5.056   0.231   4.388 -1.7241  1.8251 -1.9215
  335TIP3    H222497   5.168   0.188   4.295 -0.2821 -0.7082  0.7930
  336TIP3   OH222498   2.618   4.122   2.419 -0.0608  0.7923  0.4148
  336TIP3    H122499   2.572   4.147   2.499  0.3890  0.0154  0.9257
  336TIP3    H222500   2.555   4.069   2.370 -0.5673  1.8088 -0.0737
  337TIP3   OH222501   3.442   1.179   1.875  0.0608 -0.0790 -0.8627
  337TIP3    H122502   3.479   1.222   1.799  0.8817 -1.7579 -1.4786
  337TIP3    H222503   3.497   1.101   1.888  0.2459  0.3692  1.7201
  338TIP3   OH222504   0.683   6.389  13.804  0.2584  0.0309  0.1354
  338TIP3    H122505   0.694   6.321  13.738  0.8658 -0.6131  0.8834
  338TIP3    H222506   0.769   6.396  13.846 -0.1326  0.3722  0.9084
  339TIP3   OH222507   6.159   5.872   1.597 -0.0531  0.0586 -0.2698
  339TIP3    H122508   6.097   5.801   1.615  1.1821 -1.5774 -1.9847
  339TIP3    H222509   6.234   5.853   1.653 -0.1398  0.6703  0.0645
  340TIP3   OH222510   0.948   2.202  12.900 -0.1917 -0.3358 -0.1616
  340TIP3    H122511   0.854   2.198  12.882 -0.1638  0.0303 -0.3997
  340TIP3    H222512   0.954   2.207  12.995 -0.4777  1.1640 -0.1975
  341TIP3   OH222513   2.906   0.126   4.308 -0.0074  0.1183 -0.2155
  341TIP3    H122514   2.825   0.177   4.311 -0.3179 -0.1765 -2.1710
  341TIP3    H222515   2.919   0.096   4.398 -2.4739 -0.4432  0.0341
  342TIP3   OH222516   5.499   4.886   5.237 -0.4662 -0.0049  0.0927
  342TIP3    H122517   5.408   4.913   5.227  0.1678  2.0049 -0.7563
  342TIP3    H222518   5.547   4.968   5.251  1.4079 -0.8393 -1.0702
  343TIP3   OH222519   5.847   3.731   0.440  0.2798 -1.0105  0.3188
  343TIP3    H122520   5.941   3.747   0.429  0.4780 -2.0239  0.4043
  343TIP3    H222521   5.841   3.636   0.450 -1.0022 -1.2446 -2.1093
  344TIP3   OH222522   1.051   1.582  12.367 -0.0085 -0.2090 -0.2052
  344TIP3    H122523   1.122   1.628  12.413 -0.4075  0.3636 -0.1535
  344TIP3    H222524   1.043   1.498  12.412  0.2107 -0.0179  0.1946
  345TIP3   OH222525   1.027   2.394   4.452 -0.2037  0.6241  0.2828
  345TIP3    H122526   1.018   2.464   4.388  0.2407  1.8388  1.4933
  345TIP3    H222527   0.967   2.418   4.522  0.2002 -0.0382  0.8686
  346TIP3   OH222528   0.121   2.739  12.553 -0.0639 -0.1400  0.1943
  346TIP3    H122529   0.076   2.733  12.468 -1.9389 -0.7543  1.1731
  346TIP3    H222530   0.190   2.673  12.548 -0.9627 -1.0810 -0.4200
  347TIP3   OH222531   0.927   2.950   2.798  1.0947 -0.1373  0.1451
  347TIP3    H122532   0.910   2.944   2.704  0.7808 -1.2102  0.2594
  347TIP3    H222533   0.920   2.860   2.829  2.7974 -0.0433  0.9288
  348TIP3   OH222534   3.344   2.471   5.779  0.2676  0.1691  0.5543
  348TIP3    H122535   3.399   2.547   5.796  0.5477 -0.1201  0.9529
  348TIP3    H222536   3.402   2.396   5.789 -0.0255 -0.1063  0.2487
  349TIP3   OH222537   1.879   4.227  16.874 -0.2227 -0.3575 -0.3132
  349TIP3    H122538   1.942   4.155  16.877  1.8989  1.3702 -1.0066
  349TIP3    H222539   1.931   4.304  16.851 -2.8870  0.7995 -3.2131
  350TIP3   OH222540   1.253   5.844   6.211  0.6655  0.4771 -0.9373
  350TIP3    H122541   1.312   5.910   6.247  0.5389  0.8980 -1.4849
  350TIP3    H222542   1.167   5.867   6.246  0.6431  0.5301 -1.0260
  351TIP3   OH222543   2.328   3.451  14.121 -0.0541  0.4344 -0.2052
  351TIP3    H122544   2.353   3.532  14.165  0.3969  1.6618 -2.5611
  351TIP3    H222545   2.233   3.445  14.132 -0.2150  1.7700 -0.7481
  352TIP3   OH222546   3.077   0.775   3.541 -0.6331  0.5385 -0.1657
  352TIP3    H122547   3.047   0.685   3.553  0.8034 -0.0663 -0.9196
  352TIP3    H222548   3.150   0.784   3.602 -0.4162  1.0113 -0.4887
  353TIP3   OH222549   2.476   4.957   5.442 -0.3970  0.3743 -0.1540
  353TIP3    H122550   2.521   4.973   5.525  0.1323 -0.4844 -0.2567
  353TIP3    H222551   2.546   4.953   5.377 -0.8899  2.2373 -0.8735
  354TIP3   OH222552   5.115   0.395   6.026 -0.6035 -0.1928 -0.1191
  354TIP3    H122553   5.048   0.449   6.066 -1.2555 -0.6979 -0.5070
  354TIP3    H222554   5.124   0.320   6.086 -0.0921  0.0688  0.1381
  355TIP3   OH222555   6.202   4.230   6.066 -0.8911  0.2229  0.2854
  355TIP3    H122556   6.112   4.259   6.081 -1.4559 -0.4094 -1.7180
  355TIP3    H222557   6.213   4.154   6.123 -0.1280  2.7291  3.8751
  356TIP3   OH222558   4.355   1.920   6.198 -0.4499  0.2814  0.1620
  356TIP3    H122559   4.440   1.906   6.242  0.7066  1.5739 -1.5400
  356TIP3    H222560   4.345   1.844   6.141 -1.0435 -0.4596  1.2192
  357TIP3   OH222561   0.887   0.464   5.505 -0.4241  0.3650 -0.4653
  357TIP3    H122562   0.826   0.533   5.532 -0.7972  0.4396 -1.4850
  357TIP3    H222563   0.844   0.382   5.532 -0.0442  0.5012  0.6184
  358TIP3   OH222564   3.059   3.197   4.647  0.0421 -0.1009  0.0516
  358TIP3    H122565   3.118   3.251   4.701 -2.6849  0.4177  2.7490
  358TIP3    H222566   3.009   3.261   4.597 -1.6942 -0.1311  1.6418
  359TIP3   OH222567   0.139   3.347  16.490  0.1210  0.3969 -0.1719
  359TIP3    H122568   0.145   3.405  16.565 -1.1079 -0.6126  0.7548
  359TIP3    H222569   0.208   3.377  16.430  1.1584  1.1947  1.3681
  360TIP3   OH222570   3.880   0.342  11.843 -0.0184  0.0798 -0.2912
  360TIP3    H122571   3.850   0.267  11.791 -1.3623  0.4341 -0.0418
  360TIP3    H222572   3.958   0.309  11.888  0.4286 -0.6331 -1.5087
  361TIP3   OH222573   1.012   3.819  14.647  0.2950  0.3146  0.5815
  361TIP3    H122574   0.933   3.839  14.597  0.0673  0.3706  0.9538
  361TIP3    H222575   1.083   3.819  14.583  0.2050  1.6441  0.4521
  362TIP3   OH222576   6.602   5.047   0.643 -0.3922  0.0345  0.4910
  362TIP3    H122577   6.531   5.111   0.650 -0.1306  0.1988  1.9399
  362TIP3    H222578   6.579   4.994   0.567 -0.0970  2.4634 -1.3930
  363TIP3   OH222579   5.301   3.396  16.001  0.0760  0.0501  0.0193
  363TIP3    H122580   5.254   3.329  16.050  0.8880 -1.5120 -1.2588
  363TIP3    H222581   5.330   3.458  16.068 -2.4181  0.2790  1.0185
  364TIP3   OH222582   6.751   3.352   0.737  0.3413  0.1319  0.2756
  364TIP3    H122583   6.720   3.442   0.733 -1.9560 -0.6034 -0.1365
  364TIP3    H222584   6.681   3.304   0.781  2.8556 -0.9797  3.5418
  365TIP3   OH222585   2.371   5.365   5.762  0.3359 -0.5710 -0.1809
  365TIP3    H122586   2.311   5.440   5.766 -0.6052 -1.3356  0.3327
  365TIP3    H222587   2.383   5.339   5.853  0.2488 -1.3597 -0.3886
  366TIP3   OH222588   4.599   1.197  15.907 -0.5049  0.2068 -0.2088
  366TIP3    H122589   4.504   1.186  15.901 -0.5229  0.8876 -1.5333
  366TIP3    H222590   4.628   1.207  15.816  1.2284 -2.8546 -0.1143
  367TIP3   OH222591   5.426   2.250   1.365  0.2273  0.1845 -0.0789
  367TIP3    H122592   5.480   2.296   1.300 -0.6258  0.1573 -0.8244
  367TIP3    H222593   5.467   2.271   1.449  1.0169  0.6879 -0.5759
  368TIP3   OH222594   6.203   3.390  12.346 -0.0483  0.5490  0.1391
  368TIP3    H122595   6.166   3.342  12.420  1.9580 -1.6368 -0.1899
  368TIP3    H222596   6.290   3.417  12.375  1.4702 -1.7814 -1.8343
  369TIP3   OH222597   4.058   1.538  15.888 -0.4026 -0.0335  0.2602
  369TIP3    H122598   4.016   1.601  15.946  1.0392  0.1770  1.1375
  369TIP3    H222599   4.076   1.462  15.943 -0.0957 -0.3185 -0.2181
  370TIP3   OH222600   2.582   4.122  15.070 -0.0056 -0.0997 -0.1481
  370TIP3    H122601   2.515   4.188  15.088 -0.9400 -0.9991 -0.2769
  370TIP3    H222602   2.622   4.105  15.155 -0.3515 -0.0025  0.0362
  371TIP3   OH222603   1.321   3.897   4.927 -0.0283  0.3078  0.1771
  371TIP3    H122604   1.240   3.929   4.887 -0.5017 -0.4259  0.5166
  371TIP3    H222605   1.390   3.950   4.887 -0.5559  0.1506 -1.0086
  372TIP3   OH222606   4.638   6.319  12.700 -0.3053  0.0779 -0.3907
  372TIP3    H122607   4.672   6.236  12.733  0.1968  0.1624 -0.6956
  372TIP3    H222608   4.695   6.342  12.627 -0.1032  0.9713  0.0320
  373TIP3   OH222609   4.550   2.757   4.338 -0.7253  0.3698  0.1320
  373TIP3    H122610   4.570   2.756   4.431 -0.8325 -0.1990  0.1548
  373TIP3    H222611   4.455   2.764   4.333 -0.9517 -1.8436  0.1312
  374TIP3   OH222612   5.591   3.706  14.854  0.3012 -0.1762  0.6623
  374TIP3    H122613   5.685   3.689  14.847  0.1493 -0.7108 -0.1866
  374TIP3    H222614   5.560   3.707  14.763 -0.7440 -1.3534  0.9783
  375TIP3   OH222615   2.680   6.732   2.478 -0.1838  0.4457 -0.2292
  375TIP3    H122616   2.680   6.654   2.423  1.4409 -0.3914  0.8902
  375TIP3    H222617   2.606   6.720   2.538  0.7506 -0.8499  0.7160
  376TIP3   OH222618   3.961   2.617  16.611  0.3923 -0.1028 -0.4391
  376TIP3    H122619   3.972   2.528  16.579 -1.0943 -0.4164 -0.1810
  376TIP3    H222620   3.881   2.648  16.567  0.0517  0.5514  0.6111
  377TIP3   OH222621   3.178   3.172  13.531  0.1968  0.4682 -0.7022
  377TIP3    H122622   3.192   3.247  13.589  1.8780 -0.9179  0.7889
  377TIP3    H222623   3.086   3.148  13.545 -0.1119  1.6729 -0.5293
  378TIP3   OH222624   0.721   1.111   1.432 -0.4081 -0.2221 -0.1457
  378TIP3    H122625   0.653   1.173   1.459 -0.3867  0.0182 -0.6198
  378TIP3    H222626   0.794   1.167   1.405  0.8753 -0.4711  2.5130
  379TIP3   OH222627   4.483   5.929   4.053 -0.0676  0.5023  0.2829
  379TIP3    H122628   4.415   5.891   4.108  1.9603 -0.4881  2.2828
  379TIP3    H222629   4.538   5.854   4.027  0.0821  1.2084 -1.5984
  380TIP3   OH222630   3.438   3.564   5.514 -0.2439 -0.5676 -0.0064
  380TIP3    H122631   3.456   3.650   5.551 -0.0529 -0.6616  0.1241
  380TIP3    H222632   3.367   3.578   5.451  0.3429 -0.1778 -0.5861
  381TIP3   OH222633   3.014   5.541  13.442  0.0175 -0.1145  0.0171
  381TIP3    H122634   2.970   5.512  13.521 -0.4605  1.4124  0.3487
  381TIP3    H222635   2.970   5.495  13.371 -0.5331 -0.3807  0.5274
  382TIP3   OH222636   4.085   0.236  13.598 -0.1377 -0.0513  0.3264
  382TIP3    H122637   4.096   0.145  13.573  1.0454  0.7157 -2.2766
  382TIP3    H222638   3.993   0.255  13.581 -0.5745 -0.9147  1.6010
  383TIP3   OH222639   4.982   0.129  13.779  0.5018 -0.7040 -0.2044
  383TIP3    H122640   5.011   0.190  13.847  0.9382  0.0089 -1.0124
  383TIP3    H222641   5.054   0.127  13.716 -0.3371 -0.4999 -1.1924
  384TIP3   OH222642   1.466   2.243  15.022 -0.1746 -0.3208  0.3255
  384TIP3    H122643   1.511   2.165  15.054  1.8589  0.5777 -0.1713
  384TIP3    H222644   1.495   2.314  15.079 -1.0780  0.2855  0.0610
  385TIP3   OH222645   1.326   4.973   4.991  0.0179  0.3881 -0.2700
  385TIP3    H122646   1.282   5.035   5.050 -1.0228  0.6563 -1.3076
  385TIP3    H222647   1.344   4.897   5.046 -1.1885  0.5236  0.3411
  386TIP3   OH222648   1.280   1.941   3.241 -0.2354  0.4779 -0.3530
  386TIP3    H122649   1.353   1.950   3.303 -0.7869  2.3282  0.1079
  386TIP3    H222650   1.210   1.899   3.292  0.4024 -1.1263 -0.7420
  387TIP3   OH222651   2.320   4.754  12.323  0.2616  0.6061  0.1892
  387TIP3    H122652   2.278   4.728  12.405  0.9046  1.3131  0.7624
  387TIP3    H222653   2.344   4.671  12.282 -2.2856  0.1537 -0.5202
  388TIP3   OH222654   4.619   2.661   0.502 -0.0654  0.5977  0.1075
  388TIP3    H122655   4.688   2.610   0.544 -0.9390  0.1455  1.0261
  388TIP3    H222656   4.598   2.613   0.422 -1.9550 -1.3976  1.7064
  389TIP3   OH222657   2.147   4.943  10.821 -0.2993  0.4930 -0.2842
  389TIP3    H122658   2.157   5.037  10.835 -0.8167  0.4902  0.1125
  389TIP3    H222659   2.235   4.913  10.796 -0.2685  1.1882 -1.0730
  390TIP3   OH222660   4.368   2.200   5.633  0.4320 -0.3491  0.2726
  390TIP3    H122661   4.457   2.172   5.656  1.0799  0.8230 -0.6806
  390TIP3    H222662   4.337   2.246   5.711  1.0119 -0.0133  0.3123
  391TIP3   OH222663   2.843   2.436  15.719  0.4633  0.1008 -0.2712
  391TIP3    H122664   2.928   2.476  15.737  0.1858 -0.0404  1.4459
  391TIP3    H222665   2.779   2.500  15.750 -0.0220 -0.5719  0.1377
  392TIP3   OH222666   2.843   0.824  16.098 -0.1215  1.1174 -0.0819
  392TIP3    H122667   2.898   0.903  16.096  0.5568  0.6422 -1.8961
  392TIP3    H222668   2.901   0.753  16.073 -0.1128 -0.4778  3.7705
  393TIP3   OH222669   2.691   4.219  14.264 -0.7246  0.3299 -0.1393
  393TIP3    H122670   2.635   4.166  14.322 -0.1904  0.8878  0.9194
  393TIP3    H222671   2.760   4.251  14.321  0.3524  0.1457 -1.3086
  394TIP3   OH222672   3.568   6.374   0.222 -0.4091  0.0937  0.1034
  394TIP3    H122673   3.508   6.343   0.291 -0.7487  0.8531  0.1560
  394TIP3    H222674   3.637   6.420   0.269 -1.1620  1.4872 -0.0963
  395TIP3   OH222675   0.642   1.216  14.948 -0.2611  0.5086  0.0724
  395TIP3    H122676   0.644   1.311  14.956  0.2091  0.6077 -1.0320
  395TIP3    H222677   0.708   1.196  14.881  1.4507 -0.7843  1.9928
  396TIP3   OH222678   2.557   0.880  15.205  0.1818  0.8392  0.6057
  396TIP3    H122679   2.599   0.878  15.291 -0.6453 -1.5541  1.0318
  396TIP3    H222680   2.629   0.870  15.142  0.5878  0.4687  1.1301
  397TIP3   OH222681   2.703   2.341   5.223 -0.0210  0.1134  0.2305
  397TIP3    H122682   2.617   2.342   5.181 -0.3872  1.2709  0.9521
  397TIP3    H222683   2.765   2.336   5.151 -0.6409  1.9468 -0.4859
  398TIP3   OH222684   1.694   0.799  13.277 -0.1066  0.1547  0.3505
  398TIP3    H122685   1.773   0.744  13.279  1.6720  2.4367 -1.0911
  398TIP3    H222686   1.718   0.876  13.329 -1.5586  0.7073  0.2338
  399TIP3   OH222687   3.228   3.420   4.154  0.6689  0.1257 -0.7534
  399TIP3    H122688   3.152   3.376   4.192  1.4354 -0.4249  0.1853
  399TIP3    H222689   3.239   3.499   4.208 -0.4050  1.2601 -2.1239
  400TIP3   OH222690   5.629   1.957  12.457  0.5134 -0.0016 -0.1830
  400TIP3    H122691   5.614   2.039  12.504 -0.5769 -0.0938 -0.3549
  400TIP3    H222692   5.578   1.965  12.376 -0.4751 -1.2626  0.2778
  401TIP3   OH222693   3.613   6.105   2.662 -0.8026 -0.5908 -0.8268
  401TIP3    H122694   3.646   6.157   2.589  0.3942  1.1349  0.8613
  401TIP3    H222695   3.665   6.132   2.737 -2.7144 -1.4918  0.9316
  402TIP3   OH222696   0.932   1.992  12.166 -0.2853 -0.2937 -0.2405
  402TIP3    H122697   0.962   2.066  12.113 -0.7912 -0.9784 -1.5175
  402TIP3    H222698   0.987   1.995  12.244 -0.8677  1.9292  0.1500
  403TIP3   OH222699   5.665   4.920  12.636  0.1744  0.2601  0.3442
  403TIP3    H122700   5.718   4.929  12.557 -0.0384 -0.2208  0.1402
  403TIP3    H222701   5.691   4.836  12.673 -1.8515 -0.9804 -0.8526
  404TIP3   OH222702   1.937   3.405   3.948 -0.2653 -0.0495  0.3761
  404TIP3    H122703   1.845   3.382   3.933 -0.0651 -0.2548 -0.5578
  404TIP3    H222704   1.945   3.494   3.916 -0.0604 -0.1524  0.1369
  405TIP3   OH222705   4.087   2.448   2.831  0.0026  0.6355  0.1507
  405TIP3    H122706   4.139   2.371   2.853  0.9404  1.0597 -0.5454
  405TIP3    H222707   4.034   2.464   2.910  0.8402  0.1375  0.8290
  406TIP3   OH222708   0.419   6.488  10.455 -0.1875 -0.2666  0.0773
  406TIP3    H122709   0.397   6.480  10.548  0.7644 -0.6983  0.2882
  406TIP3    H222710   0.401   6.402  10.418 -0.0507 -0.2561 -0.0163
  407TIP3   OH222711   5.772   5.160   4.319  0.5411  0.0926  0.2462
  407TIP3    H122712   5.745   5.073   4.288  0.9856 -0.3580  1.0808
  407TIP3    H222713   5.750   5.219   4.247  0.1270 -0.6940 -0.2911
  408TIP3   OH222714   6.406   5.850   3.034 -0.4203 -0.0069  0.2628
  408TIP3    H122715   6.324   5.895   3.053  0.5349  1.4069  1.2304
  408TIP3    H222716   6.467   5.881   3.101  1.3865  0.3483 -1.4417
  409TIP3   OH222717   6.686   2.554  16.926  0.4376  0.0424 -0.0681
  409TIP3    H122718   6.664   2.522  17.013  1.3644 -1.6096 -0.4119
  409TIP3    H222719   6.712   2.645  16.940  0.6006 -0.2017  1.3809
  410TIP3   OH222720   4.091   0.673   5.367 -0.3255 -0.4354 -0.3933
  410TIP3    H122721   4.099   0.594   5.420 -1.9726 -0.9414 -0.8684
  410TIP3    H222722   4.179   0.688   5.333  0.1367 -1.6985  0.2037
  411TIP3   OH222723   3.360   3.721   1.812  0.2544  0.0361 -0.4027
  411TIP3    H122724   3.339   3.661   1.883 -1.2885  0.7053 -0.2487
  411TIP3    H222725   3.323   3.679   1.734 -0.1357  0.4084 -0.4204
  412TIP3   OH222726   4.092   6.171  14.722 -0.4405  0.2549 -0.2385
  412TIP3    H122727   4.056   6.243  14.774  0.7551  0.5957  0.1731
  412TIP3    H222728   4.158   6.131  14.780  0.1567 -0.0473 -1.1052
  413TIP3   OH222729   1.643   3.900   2.257  0.3917  0.5283 -0.3543
  413TIP3    H122730   1.739   3.901   2.257  0.4464 -1.2501 -1.7245
  413TIP3    H222731   1.620   3.810   2.276 -1.0792  1.2012  1.3441
  414TIP3   OH222732   0.552   6.453  13.099 -0.2707  0.4478 -0.4572
  414TIP3    H122733   0.472   6.474  13.050 -0.3798  1.7219  0.2125
  414TIP3    H222734   0.521   6.435  13.188  0.2527  2.2974  0.1542
  415TIP3   OH222735   5.084   3.378   4.574  0.2177 -0.1214  0.0903
  415TIP3    H122736   5.159   3.432   4.598 -0.7057  1.5138 -0.5417
  415TIP3    H222737   5.116   3.288   4.579  1.8554  0.4839  1.0132
  416TIP3   OH222738   3.049   5.880   2.809 -0.3391 -0.0150  0.0416
  416TIP3    H122739   3.086   5.842   2.889 -0.9171  1.0342  0.8432
  416TIP3    H222740   3.119   5.872   2.744  0.7065  0.4526  1.0690
  417TIP3   OH222741   2.825   0.385  11.821 -0.0273  0.0456  0.2805
  417TIP3    H122742   2.741   0.406  11.862  0.2610  1.4809  0.1673
  417TIP3    H222743   2.854   0.467  11.782  1.1121 -0.5991 -0.2697
  418TIP3   OH222744   0.960   3.318   1.267  0.4438 -0.1593 -0.1843
  418TIP3    H122745   0.896   3.247   1.276 -1.2006  1.0493 -1.5936
  418TIP3    H222746   1.045   3.276   1.279 -0.5901 -1.6935  2.6507
  419TIP3   OH222747   4.620   0.726  11.226  0.5032  0.5489 -0.0646
  419TIP3    H122748   4.564   0.777  11.167  0.4902  1.3549  0.6198
  419TIP3    H222749   4.600   0.635  11.205 -1.6503  0.7850  0.6565
  420TIP3   OH222750   6.594   5.805  16.599  0.3366  0.0335 -0.3638
  420TIP3    H122751   6.584   5.735  16.663  1.7474 -1.7816 -2.0316
  420TIP3    H222752   6.507   5.845  16.594 -0.4358 -1.3812  0.8677
  421TIP3   OH222753   2.008   4.014  15.567 -0.3459  0.1060 -0.3319
  421TIP3    H122754   1.940   3.984  15.507  1.1596 -1.2080 -1.4752
  421TIP3    H222755   2.004   3.953  15.640 -2.2457  1.7651  1.0662
  422TIP3   OH222756   3.793   5.241   0.175  0.5222  0.0886 -0.9176
  422TIP3    H122757   3.877   5.279   0.149  1.4313  0.4690  2.2087
  422TIP3    H222758   3.794   5.242   0.271 -3.3602  0.7937 -0.7069
  423TIP3   OH222759   5.594   3.468  13.681  0.1855  0.2667 -0.0368
  423TIP3    H122760   5.590   3.527  13.606 -0.0754  0.0253 -0.2148
  423TIP3    H222761   5.590   3.525  13.757 -1.4488  0.4008 -0.2005
  424TIP3   OH222762   0.691   2.655  15.804  0.1786  0.2392 -0.1481
  424TIP3    H122763   0.725   2.593  15.869  0.1861 -0.5542 -0.9072
  424TIP3    H222764   0.698   2.610  15.721  0.3831  1.3401 -0.7502
  425TIP3   OH222765   1.450   2.472  11.277  0.7398  0.0936  0.3099
  425TIP3    H122766   1.373   2.417  11.291  0.0190  1.2922  1.2194
  425TIP3    H222767   1.519   2.410  11.252 -0.2035 -1.1374  0.6458
  426TIP3   OH222768   0.039   5.194  12.182  0.2769 -0.4067 -0.3491
  426TIP3    H122769   0.098   5.186  12.107  1.5854  0.7906  0.4948
  426TIP3    H222770   0.078   5.264  12.235  0.2813 -2.2396  2.2440
  427TIP3   OH222771   6.477   5.965   0.097  0.7101  0.2092  0.3688
  427TIP3    H122772   6.401   5.932   0.048  0.7766 -1.4963  1.3275
  427TIP3    H222773   6.464   6.060   0.100 -1.7526 -0.0898  1.0840
  428TIP3   OH222774   3.147   5.598  14.300  0.4233 -0.1203 -0.0288
  428TIP3    H122775   3.104   5.603  14.214 -0.2759  0.3225  0.3404
  428TIP3    H222776   3.132   5.684  14.340 -0.1608 -0.6538  0.9511
  429TIP3   OH222777   5.576   5.126  11.244  0.4205  0.6213  0.2249
  429TIP3    H122778   5.632   5.202  11.260  2.2407 -0.8549  1.3887
  429TIP3    H222779   5.633   5.051  11.260 -1.3248 -1.0132 -0.7658
  430TIP3   OH222780   1.732   1.722   2.305  0.0991  0.0506  0.1473
  430TIP3    H122781   1.782   1.720   2.224  0.6593  0.3595  0.4771
  430TIP3    H222782   1.662   1.659   2.292  0.4508 -0.2286 -0.4062
  431TIP3   OH222783   4.625   2.471  11.191  0.0586 -0.2810 -0.3972
  431TIP3    H122784   4.610   2.503  11.280 -1.3983 -2.4818  0.2615
  431TIP3    H222785   4.696   2.408  11.200  3.2188  2.7942 -1.7405
  432TIP3   OH222786   2.640   4.706   5.817 -0.1850  0.5065 -0.5517
  432TIP3    H122787   2.588   4.778   5.781  1.4382  0.9694 -2.1538
  432TIP3    H222788   2.703   4.685   5.747  1.3248 -0.4641  1.0170
  433TIP3   OH222789   0.358   3.055   1.650  0.5077 -0.1650  0.4510
  433TIP3    H122790   0.405   3.001   1.714 -1.3043 -4.0140 -1.1559
  433TIP3    H222791   0.400   3.035   1.567 -0.3597  0.7853 -0.2309
  434TIP3   OH222792   4.145   3.164   2.198 -0.2721 -0.7641 -0.4542
  434TIP3    H122793   4.231   3.133   2.227  0.5332 -0.6762 -2.5612
  434TIP3    H222794   4.131   3.121   2.113 -1.2523  0.9671 -1.2337
  435TIP3   OH222795   0.951   5.072   4.553  0.0955 -0.1446  0.8134
  435TIP3    H122796   1.004   5.126   4.495 -0.6574 -0.1751  0.0823
  435TIP3    H222797   0.991   4.985   4.548 -0.4732 -0.3667 -0.3714
  436TIP3   OH222798   6.554   1.202  11.228  0.1669  0.4199 -0.0346
  436TIP3    H122799   6.506   1.121  11.247  1.8213 -1.1969 -2.2343
  436TIP3    H222800   6.646   1.180  11.240  0.6145  2.3034  0.3193
  437TIP3   OH222801   5.453   4.089  15.251  0.4634  0.1100  0.3127
  437TIP3    H122802   5.386   4.116  15.315  3.1124  0.9282  2.9535
  437TIP3    H222803   5.424   4.003  15.221 -3.0770  1.4709 -0.7315
  438TIP3   OH222804   2.110   3.758  12.253  0.4464  0.3169 -0.0591
  438TIP3    H122805   2.061   3.748  12.334  1.0408 -0.7769  0.1734
  438TIP3    H222806   2.070   3.835  12.211 -0.5749  0.2474  0.7428
  439TIP3   OH222807   1.715   1.124   5.216  0.0333 -0.1733 -0.0712
  439TIP3    H122808   1.734   1.216   5.234 -1.0805  0.1114 -0.2495
  439TIP3    H222809   1.626   1.111   5.250  0.1896 -1.1968 -0.0157
  440TIP3   OH222810   2.784   6.751   3.189  0.2618 -0.2717 -0.3478
  440TIP3    H122811   2.705   6.791   3.151 -0.3580 -0.8915  0.2539
  440TIP3    H222812   2.750   6.682   3.246  1.2931 -1.2722 -0.9204
  441TIP3   OH222813   2.775   4.952   2.978 -0.2992  0.1786  0.5747
  441TIP3    H122814   2.843   5.019   2.977  0.9571 -1.0020 -1.8944
  441TIP3    H222815   2.695   5.001   2.957  0.7247  0.9186 -2.1062
  442TIP3   OH222816   3.736   0.782  11.608 -0.4875  0.6305  0.0195
  442TIP3    H122817   3.776   0.839  11.543  0.3340  0.4877  0.3767
  442TIP3    H222818   3.808   0.761  11.668 -0.7908 -0.6913 -0.0411
  443TIP3   OH222819   3.098   6.592   1.711 -0.4349  0.4234  0.1821
  443TIP3    H122820   3.175   6.648   1.707  0.8336 -1.2758 -0.9576
  443TIP3    H222821   3.120   6.518   1.654 -2.9914 -0.0430 -0.3320
  444TIP3   OH222822   2.712   1.562   5.973  0.1960 -0.4428 -1.3006
  444TIP3    H122823   2.752   1.639   6.014  0.5423 -1.9674  1.4391
  444TIP3    H222824   2.745   1.563   5.883  3.0168  0.7079 -0.3640
  445TIP3   OH222825   4.017   6.514  11.858  0.0981 -0.0619 -1.0718
  445TIP3    H122826   4.012   6.503  11.763 -0.1262  0.3211 -1.1103
  445TIP3    H222827   4.098   6.563  11.873  0.0706 -0.0148 -1.0771
  446TIP3   OH222828   5.250   4.919  13.822  0.0869  0.1057 -0.6335
  446TIP3    H122829   5.241   4.946  13.731  1.5846 -0.2232 -0.8988
  446TIP3    H222830   5.338   4.946  13.847 -0.7745  1.4350  1.1599
  447TIP3   OH222831   1.745   0.361  11.635  0.4837 -0.3314 -0.1692
  447TIP3    H122832   1.741   0.318  11.549  3.1179 -1.4868  0.1736
  447TIP3    H222833   1.709   0.448  11.620 -1.1619 -1.2223 -1.8992
  448TIP3   OH222834   5.507   0.077   3.734  0.0193 -0.1510  0.5192
  448TIP3    H122835   5.584   0.022   3.723  1.6651  2.0879  0.0874
  448TIP3    H222836   5.491   0.078   3.829 -0.1046 -1.3925  0.5236
  449TIP3   OH222837   2.995   3.155   1.121 -0.9545 -0.1989 -0.2340
  449TIP3    H122838   2.975   3.248   1.124 -1.1844 -0.2428 -0.3451
  449TIP3    H222839   3.090   3.150   1.124 -0.9531 -0.0582  2.6053
  450TIP3   OH222840   0.295   0.111   3.093 -0.2305  0.2182  0.3018
  450TIP3    H122841   0.367   0.075   3.146 -0.2019 -1.9106 -1.0855
  450TIP3    H222842   0.339   0.165   3.027 -0.1633  1.5058  1.3522
  451TIP3   OH222843   4.143   4.142   0.511 -0.6172  0.3931 -0.0575
  451TIP3    H122844   4.073   4.194   0.471 -1.1951 -0.4110 -0.1221
  451TIP3    H222845   4.150   4.176   0.600 -1.0737  0.5005 -0.0587
  452TIP3   OH222846   0.732   1.871   4.219 -0.2889  0.9406  0.6832
  452TIP3    H122847   0.775   1.956   4.215  1.8523 -0.1081 -1.7648
  452TIP3    H222848   0.744   1.841   4.309  2.4309  1.6029  0.6313
  453TIP3   OH222849   3.524   1.004   2.594 -0.0452  0.4258 -0.2150
  453TIP3    H122850   3.467   1.067   2.549  0.5307  1.4145  0.4094
  453TIP3    H222851   3.478   0.984   2.675 -0.0674  0.3117 -0.2565
  454TIP3   OH222852   0.289   3.665  11.251  0.1416  0.0408 -0.0850
  454TIP3    H122853   0.292   3.716  11.170 -1.5076 -0.3619 -0.4346
  454TIP3    H222854   0.360   3.700  11.304  1.7183 -0.1280 -1.9531
  455TIP3   OH222855   3.428   1.666  11.647  0.0241 -0.7713 -0.4941
  455TIP3    H122856   3.405   1.622  11.729  1.7665 -0.1548  0.3756
  455TIP3    H222857   3.369   1.741  11.643  1.1785  0.3305  1.2677
  456TIP3   OH222858   3.077   5.382  10.744 -0.6865 -0.7579 -0.3395
  456TIP3    H122859   3.037   5.469  10.741  0.7661 -0.0554 -0.5670
  456TIP3    H222860   3.148   5.386  10.679  1.1218 -1.1936  1.4736
  457TIP3   OH222861   2.849   3.306   0.144 -0.3192 -0.1186 -0.0167
  457TIP3    H122862   2.862   3.221   0.186 -0.1836 -0.1590 -0.1411
  457TIP3    H222863   2.866   3.290   0.051 -1.8708 -0.3303 -0.3002
  458TIP3   OH222864   0.214   2.258   1.158  0.2524  0.1927  0.2181
  458TIP3    H122865   0.181   2.343   1.187  0.7088  0.5380 -0.2566
  458TIP3    H222866   0.267   2.227   1.231 -1.4667 -0.5777  1.1731
  459TIP3   OH222867   1.593   5.545   6.646  0.0541 -0.1230  0.4769
  459TIP3    H122868   1.521   5.522   6.588  1.2511 -1.7076 -0.4438
  459TIP3    H222869   1.636   5.619   6.603 -0.3688  0.1306  0.4843
  460TIP3   OH222870   2.104   4.901   5.671 -0.0627 -0.1278  0.4177
  460TIP3    H122871   2.132   4.993   5.669 -0.2079 -0.0285  2.0432
  460TIP3    H222872   2.040   4.897   5.741 -0.7558 -1.3017 -0.2556
  461TIP3   OH222873   2.808   1.138  16.531  0.1853  0.2940 -0.0106
  461TIP3    H122874   2.794   1.100  16.618 -1.7236 -0.9192 -0.7762
  461TIP3    H222875   2.749   1.214  16.528  1.5005  1.3748  0.3065
  462TIP3   OH222876   5.831   0.914   3.730 -0.2429 -0.3928  0.4491
  462TIP3    H122877   5.900   0.849   3.718  0.3516  0.3641 -0.4518
  462TIP3    H222878   5.830   0.932   3.824  1.2632  0.0659  0.4089
  463TIP3   OH222879   0.388   5.956   4.876  0.0739  0.2162 -0.6343
  463TIP3    H122880   0.371   5.870   4.837 -1.5243 -0.5259  1.5032
  463TIP3    H222881   0.411   5.937   4.966  1.3173  1.9802 -0.5308
  464TIP3   OH222882   4.859   0.540  11.021 -0.2045  0.0479 -0.3147
  464TIP3    H122883   4.813   0.607  10.971  0.4778  0.3377 -0.5573
  464TIP3    H222884   4.815   0.458  10.998 -0.8189  0.3618 -0.2764
  465TIP3   OH222885   6.746   1.119  16.270  0.0890 -0.6175  0.2855
  465TIP3    H122886   6.796   1.175  16.210 -1.5462  0.2457 -0.3244
  465TIP3    H222887   6.716   1.046  16.216 -3.1855  1.2227 -0.6232
  466TIP3   OH222888   3.526   0.315   1.888  0.0121  0.2165 -0.2548
  466TIP3    H122889   3.458   0.378   1.865  0.7892  1.8568  1.6019
  466TIP3    H222890   3.538   0.326   1.982  1.6119 -1.2905 -0.2213
  467TIP3   OH222891   6.442   1.828  16.762  0.2348  0.1729 -0.1907
  467TIP3    H122892   6.376   1.813  16.695  0.8743  0.6211 -0.9370
  467TIP3    H222893   6.487   1.908  16.735  1.6650 -0.5947 -0.1868
  468TIP3   OH222894   3.659   2.081  16.376 -1.0660  0.3907  0.2133
  468TIP3    H122895   3.639   2.076  16.282 -0.7438  0.4907  0.1390
  468TIP3    H222896   3.584   2.127  16.414 -1.1654  0.4089 -0.0021
  469TIP3   OH222897   1.129   3.677   5.724  0.2643  0.0532  0.1978
  469TIP3    H122898   1.078   3.679   5.805 -0.2506  0.5445 -0.1288
  469TIP3    H222899   1.195   3.609   5.738 -1.3448 -1.6114  0.1153
  470TIP3   OH222900   4.810   3.105  13.188  0.5436  0.1652  0.2621
  470TIP3    H122901   4.826   3.072  13.276 -1.3383  0.0308  0.5872
  470TIP3    H222902   4.715   3.115  13.183  0.5696 -0.2942 -1.9291
  471TIP3   OH222903   6.741   1.959  11.540 -0.3543  0.3157  0.1899
  471TIP3    H122904   6.743   1.882  11.596 -0.4284  1.0486  1.2339
  471TIP3    H222905   6.654   1.996  11.552 -0.1852  0.7875  0.0186
  472TIP3   OH222906   5.782   1.197   4.940  0.4360  0.2092  0.5383
  472TIP3    H122907   5.755   1.257   4.870  1.0699  1.4593  1.3405
  472TIP3    H222908   5.841   1.135   4.897 -0.1923  0.1677 -0.2915
  473TIP3   OH222909   6.374   3.460  14.661 -0.1174  0.1601 -0.4417
  473TIP3    H122910   6.319   3.383  14.676 -0.5429  0.2340 -1.5103
  473TIP3    H222911   6.313   3.534  14.668 -0.2347  0.2238 -1.9271
  474TIP3   OH222912   1.260   2.640  10.900 -0.0348 -0.2643  0.1825
  474TIP3    H122913   1.240   2.657  10.808  3.0349 -0.5286 -0.6496
  474TIP3    H222914   1.205   2.702  10.948  0.5897  2.1815 -2.0125
  475TIP3   OH222915   4.725   4.505  16.270 -0.0090  0.6750 -0.1495
  475TIP3    H122916   4.744   4.578  16.212  1.6642 -0.6573 -1.4017
  475TIP3    H222917   4.682   4.544  16.346  1.6883  3.0779 -0.3281
  476TIP3   OH222918   0.471   1.867   2.318  0.2244 -0.4510 -0.0420
  476TIP3    H122919   0.534   1.801   2.287 -0.4278 -0.8809 -0.4644
  476TIP3    H222920   0.483   1.868   2.413  0.5564 -0.8483 -0.0755
  477TIP3   OH222921   5.182   4.329  10.173  0.2905  0.9559  0.2980
  477TIP3    H122922   5.226   4.267  10.231  0.5872  1.2900  0.4308
  477TIP3    H222923   5.091   4.298  10.169  0.9713 -1.1099 -1.7883
  478TIP3   OH222924   0.446   3.684  11.536  0.1735 -0.2652  0.2965
  478TIP3    H122925   0.443   3.650  11.626  1.4648  1.1833  0.9179
  478TIP3    H222926   0.371   3.743  11.531 -0.5908 -1.2368  0.0237
  479TIP3   OH222927   5.349   4.083   0.193 -1.2840  0.5281  0.5893
  479TIP3    H122928   5.255   4.068   0.207 -1.2961  0.1951  0.1630
  479TIP3    H222929   5.374   4.143   0.263 -1.8781  0.8536  0.5262
  480TIP3   OH222930   2.953   1.084   5.370 -0.2330 -0.2960 -0.0750
  480TIP3    H122931   3.012   1.135   5.425  1.2062 -2.7696  0.8304
  480TIP3    H222932   2.982   1.102   5.281 -1.1945  2.0674  0.0137
  481TIP3   OH222933   1.477   3.769  12.643  0.4852  0.2894  0.4489
  481TIP3    H122934   1.388   3.767  12.676  0.5744  3.0723  1.0548
  481TIP3    H222935   1.516   3.687  12.674 -1.8281 -1.0466  0.0751
  482TIP3   OH222936   6.098   2.422   4.916  0.5291  0.4976 -0.1383
  482TIP3    H122937   6.049   2.497   4.949 -0.6626  0.0521 -0.8229
  482TIP3    H222938   6.067   2.348   4.968 -0.2855  0.0426 -1.2246
  483TIP3   OH222939   2.225   1.468  15.561  0.1438 -0.3593  0.0836
  483TIP3    H122940   2.271   1.467  15.477  1.4107  0.7042  0.7181
  483TIP3    H222941   2.206   1.376  15.579  0.8525 -0.7080 -0.8372
  484TIP3   OH222942   0.287   2.686   4.883 -0.2048  0.2936  0.7765
  484TIP3    H122943   0.277   2.592   4.870 -0.7752  0.4573 -0.0167
  484TIP3    H222944   0.380   2.702   4.868 -0.0194 -0.1979  1.3390
  485TIP3   OH222945   5.193   4.285   5.183 -0.1478  0.3674 -0.2501
  485TIP3    H122946   5.116   4.262   5.235 -0.9583 -0.5612 -1.7675
  485TIP3    H222947   5.158   4.300   5.095  1.2238  1.4534 -0.6313
  486TIP3   OH222948   5.329   3.806   1.526  0.2638 -0.1744  0.0223
  486TIP3    H122949   5.239   3.811   1.494 -0.8447 -2.5493  2.3374
  486TIP3    H222950   5.379   3.866   1.470 -2.9820  2.3507 -0.4335
  487TIP3   OH222951   0.277   0.968   0.852 -0.0167  0.2026  0.2870
  487TIP3    H122952   0.285   0.951   0.946 -0.4996  0.2040  0.3278
  487TIP3    H222953   0.218   0.900   0.820  0.7673 -0.2848 -0.1584
  488TIP3   OH222954   6.015   6.605   0.205 -1.1400  0.1046 -0.3597
  488TIP3    H122955   6.107   6.609   0.178 -0.8371 -0.0311  0.6175
  488TIP3    H222956   5.971   6.561   0.132 -0.4221  0.1088 -0.8084
  489TIP3   OH222957   4.665   6.220   1.935 -0.1822 -0.2691 -0.1842
  489TIP3    H122958   4.616   6.213   2.018 -0.5018  0.5382 -0.3043
  489TIP3    H222959   4.671   6.313   1.918  1.3593 -0.3473 -0.2147
  490TIP3   OH222960   1.302   1.118   2.233 -0.0609  0.0577 -0.0151
  490TIP3    H122961   1.358   1.051   2.273 -1.0448 -1.0486 -0.4398
  490TIP3    H222962   1.293   1.185   2.300  1.9233  0.3880  0.0050
  491TIP3   OH222963   3.144   5.831  14.627  0.3340 -0.1302  0.5358
  491TIP3    H122964   3.184   5.895  14.687 -2.5713  0.4410  2.0616
  491TIP3    H222965   3.147   5.748  14.675  2.7634 -0.8999 -0.8288
  492TIP3   OH222966   3.694   6.432   2.000  0.2522 -0.2495  0.3914
  492TIP3    H122967   3.745   6.497   2.049  0.9670  0.0549 -0.7145
  492TIP3    H222968   3.675   6.474   1.916 -0.7099 -0.8571  0.2877
  493TIP3   OH222969   4.969   3.252  12.478 -0.5168  0.9620 -0.0576
  493TIP3    H122970   4.881   3.257  12.515  0.0411  1.6798  1.2265
  493TIP3    H222971   5.011   3.335  12.504  0.6442  0.4956 -0.3667
  494TIP3   OH222972   6.176   0.875   0.811 -0.2381 -0.1664  0.1153
  494TIP3    H122973   6.186   0.840   0.723  0.8735  1.7448 -0.5764
  494TIP3    H222974   6.099   0.931   0.806  0.7346  1.1972 -0.1161
  495TIP3   OH222975   4.774   6.346   0.480 -0.3707 -0.6155  0.3208
  495TIP3    H122976   4.786   6.440   0.497 -2.2812 -0.5252  1.4533
  495TIP3    H222977   4.858   6.307   0.502  0.5068  0.8417 -0.3230
  496TIP3   OH222978   5.587   3.947   0.097  0.5940  0.0367  0.5797
  496TIP3    H122979   5.641   4.025   0.092  1.8973 -0.8117  0.9792
  496TIP3    H222980   5.503   3.978   0.131  1.3110  1.1615  1.3844
  497TIP3   OH222981   0.869   6.618   2.515 -0.7656  0.2184 -0.3884
  497TIP3    H122982   0.953   6.623   2.470 -0.4012  0.1319  0.2624
  497TIP3    H222983   0.805   6.650   2.451 -0.1082  1.2624 -0.5542
  498TIP3   OH222984   5.293   6.313  15.491  0.5311  0.0000  0.4135
  498TIP3    H122985   5.338   6.341  15.571 -0.4002  1.1027  0.5916
  498TIP3    H222986   5.228   6.250  15.521 -0.2928  0.9344  0.6593
  499TIP3   OH222987   6.391   1.854   1.724 -0.0084  0.0697 -0.2805
  499TIP3    H122988   6.391   1.807   1.640 -3.0435 -2.4568  0.9308
  499TIP3    H222989   6.470   1.822   1.769 -0.0446 -1.0174 -0.9584
  500TIP3   OH222990   0.949   0.801   2.579 -0.0843 -0.0287 -0.3467
  500TIP3    H122991   0.985   0.713   2.573 -2.1217 -0.9248 -0.4527
  500TIP3    H222992   0.861   0.793   2.541 -1.4400  1.3467  2.2169
  501TIP3   OH222993   0.849   0.240   2.789 -0.5323 -0.2508  0.0671
  501TIP3    H122994   0.898   0.162   2.813 -0.1739 -0.0255  0.0766
  501TIP3    H222995   0.762   0.207   2.764 -0.2674 -0.6884 -0.2980
  502TIP3   OH222996   5.895   3.113   4.692  0.1785 -0.4371 -0.6361
  502TIP3    H122997   5.878   3.183   4.755 -0.1005 -0.5738 -0.5584
  502TIP3    H222998   5.932   3.042   4.745 -0.9937 -0.9267 -0.4572
  503TIP3   OH222999   6.430   5.670   3.259 -0.0349  0.2195  0.0179
  503TIP3    H123000   6.377   5.711   3.191  0.1020  0.2452 -0.0752
  503TIP3    H223001   6.384   5.688   3.341  1.0226  2.2370  0.2216
  504TIP3   OH223002   3.772   4.154   2.802  0.5034 -0.1971  0.6406
  504TIP3    H123003   3.718   4.083   2.766 -0.3548  0.9303 -0.3712
  504TIP3    H223004   3.856   4.144   2.757  0.2846 -0.3840  0.2663
  505TIP3   OH223005   4.151   6.477   2.380  0.1987 -1.0245  0.1849
  505TIP3    H123006   4.172   6.395   2.426 -2.7531 -1.3647  1.1206
  505TIP3    H223007   4.119   6.448   2.295 -1.8172 -0.9864  0.8861
  506TIP3   OH223008   2.050   0.491   0.485 -0.0304 -0.7511  0.2684
  506TIP3    H123009   1.967   0.538   0.481  0.2451  0.2432  3.3305
  506TIP3    H223010   2.025   0.399   0.493 -0.6950 -0.7650 -1.5402
  507TIP3   OH223011   4.378   3.330   4.833 -0.2166  0.5881 -0.2138
  507TIP3    H123012   4.384   3.244   4.793  1.0218 -0.1078  1.3632
  507TIP3    H223013   4.285   3.343   4.849 -0.2358 -1.6408  1.9155
  508TIP3   OH223014   6.383   1.355  14.196  0.0604 -0.2416  0.3828
  508TIP3    H123015   6.308   1.298  14.178  0.3744 -0.4108 -0.4533
  508TIP3    H223016   6.420   1.323  14.278 -1.3979  0.5025  1.3828
  509TIP3   OH223017   3.545   0.681  11.800 -0.2547  0.2322 -0.1812
  509TIP3    H123018   3.604   0.612  11.828 -0.0025  0.5147 -0.0032
  509TIP3    H223019   3.592   0.728  11.731 -0.8128 -0.3634 -0.9842
  510TIP3   OH223020   1.816   2.308   2.260 -0.9182 -0.3391 -0.0523
  510TIP3    H123021   1.825   2.223   2.302  1.1581  1.1151  2.7824
  510TIP3    H223022   1.738   2.347   2.301 -1.0063 -0.2893 -0.2619
  511TIP3   OH223023   2.823   5.967  11.083 -0.5441 -0.6197 -0.4719
  511TIP3    H123024   2.865   5.978  11.169 -1.4837 -1.6072  0.1430
  511TIP3    H223025   2.863   6.035  11.028  0.3838 -0.2386  0.6251
  512TIP3   OH223026   1.733   3.650  11.970 -0.3306 -0.3479 -0.3801
  512TIP3    H123027   1.661   3.604  11.926 -0.8343 -0.3842  0.4429
  512TIP3    H223028   1.811   3.626  11.920 -0.8911 -0.2793 -1.3167
  513TIP3   OH223029   0.621   4.494   3.129 -0.3494 -0.7510 -0.0007
  513TIP3    H123030   0.579   4.486   3.044  0.9950 -0.9013 -0.6786
  513TIP3    H223031   0.611   4.586   3.153 -1.6678 -0.9308  0.2012
  514TIP3   OH223032   1.314   6.750  15.472  0.7801  0.1942 -0.2968
  514TIP3    H123033   1.259   6.827  15.455 -0.3150  0.3459  3.0413
  514TIP3    H223034   1.252   6.677  15.473  1.0830 -0.0661  0.6282
  515TIP3   OH223035   2.911   4.903   1.325  0.8183  0.0327 -0.0557
  515TIP3    H123036   2.932   4.810   1.335 -1.4018 -0.4931  0.2484
  515TIP3    H223037   2.888   4.932   1.413 -2.1033 -0.1461 -0.6696
  516TIP3   OH223038   0.450   4.033  12.778 -0.6792  0.4198  0.4419
  516TIP3    H123039   0.537   4.061  12.807  0.2537  2.9217 -3.8425
  516TIP3    H223040   0.464   3.946  12.741 -0.1259  0.5155  0.4145
  517TIP3   OH223041   5.863   1.410   5.334  0.5145 -0.3276 -0.0162
  517TIP3    H123042   5.778   1.379   5.305  0.4064 -0.0379 -0.0168
  517TIP3    H223043   5.865   1.390   5.428  0.3670 -0.1655  0.0232
  518TIP3   OH223044   0.139   4.556  10.519  0.6303  0.5072  0.1108
  518TIP3    H123045   0.146   4.563  10.614 -0.8699 -0.4399  0.3115
  518TIP3    H223046   0.212   4.498  10.494  1.0858  0.8348  0.6676
  519TIP3   OH223047   5.128   4.759   4.701 -0.1191 -0.7003  0.3197
  519TIP3    H123048   5.071   4.800   4.766 -0.3864 -0.1998 -0.2161
  519TIP3    H223049   5.070   4.701   4.652  0.1679 -1.4009  0.7856
  520TIP3   OH223050   0.531   0.219  12.513 -0.3299  0.0957  0.3313
  520TIP3    H123051   0.626   0.229  12.523 -0.4250  0.1422  1.2630
  520TIP3    H223052   0.516   0.223  12.419  0.6526 -0.4380  0.1438
  521TIP3   OH223053   3.584   6.783   3.563  0.6799  0.8598 -0.2565
  521TIP3    H123054   3.554   6.730   3.637  1.3560 -0.0407 -0.6145
  521TIP3    H223055   3.524   6.858   3.562 -0.0293  0.3238  0.5147
  522TIP3   OH223056   3.432   6.194  15.227  0.0751  0.4175  0.3159
  522TIP3    H123057   3.394   6.162  15.309 -0.4377 -1.0633 -0.4708
  522TIP3    H223058   3.362   6.184  15.162  1.1367 -0.4176 -0.7308
  523TIP3   OH223059   6.129   0.893   1.906  0.2414 -0.1015  0.0452
  523TIP3    H123060   6.053   0.929   1.952 -0.6715 -1.9763  0.1346
  523TIP3    H223061   6.091   0.848   1.830  1.2180 -1.2760  0.2234
  524TIP3   OH223062   2.505   6.610   1.390 -0.4281 -0.0827 -0.7216
  524TIP3    H123063   2.591   6.641   1.418 -0.7124 -0.1439  0.2598
  524TIP3    H223064   2.451   6.689   1.388 -0.7683 -0.2750  0.3100
  525TIP3   OH223065   2.831   2.653  11.065 -0.0904 -0.4154 -0.0174
  525TIP3    H123066   2.825   2.557  11.057  1.0424 -0.5364  0.3730
  525TIP3    H223067   2.902   2.677  11.006  1.3916 -0.1391  1.7795
  526TIP3   OH223068   6.698   0.360  15.917 -0.7435 -0.3007  0.2078
  526TIP3    H123069   6.792   0.353  15.934 -0.6308  2.5598  1.2934
  526TIP3    H223070   6.691   0.351  15.822  0.9307  1.3165 -0.1382
  527TIP3   OH223071   1.371   5.459   0.100 -0.5130  0.3783 -0.0868
  527TIP3    H123072   1.328   5.478   0.016  1.5340  0.2959 -1.2066
  527TIP3    H223073   1.419   5.378   0.085  0.1000  0.5046  1.0992
  528TIP3   OH223074   5.844   0.642   3.488 -0.3437 -0.2415  0.8821
  528TIP3    H123075   5.752   0.669   3.486  0.2690  1.9685  0.2189
  528TIP3    H223076   5.891   0.714   3.446  1.7259 -1.2465  1.3629
  529TIP3   OH223077   0.950   4.518  11.420 -0.5145 -0.3937 -0.3008
  529TIP3    H123078   0.883   4.525  11.488 -0.7563  1.3248 -0.6681
  529TIP3    H223079   0.990   4.604  11.417  1.5255 -1.2924 -0.3222
  530TIP3   OH223080   1.662   1.934  10.895  0.1813  0.0065  0.6572
  530TIP3    H123081   1.575   1.966  10.870 -0.7055 -0.8058  2.5457
  530TIP3    H223082   1.654   1.839  10.892  1.4922 -0.0970 -0.6224
  531TIP3   OH223083   5.078   1.195   5.157 -0.8292 -0.0515  0.2592
  531TIP3    H123084   5.100   1.157   5.072  1.4683 -0.4428  0.9666
  531TIP3    H223085   5.048   1.283   5.136  0.9657  0.3345 -0.9125
  532TIP3   OH223086   0.643   1.717  15.112 -0.3166 -0.0435 -0.2249
  532TIP3    H123087   0.571   1.770  15.078  0.2475  1.4374  0.7748
  532TIP3    H223088   0.606   1.671  15.187 -0.4627 -0.0259 -0.2855
  533TIP3   OH223089   6.619   5.407   2.869 -0.0217 -0.0712 -0.3244
  533TIP3    H123090   6.663   5.426   2.952 -0.3997 -0.5233 -0.0184
  533TIP3    H223091   6.672   5.337   2.829 -1.5564 -2.0698  0.9811
  534TIP3   OH223092   5.255   4.555   4.844  0.5435 -0.6643 -0.4412
  534TIP3    H123093   5.194   4.554   4.918  0.5564 -0.5165 -0.4292
  534TIP3    H223094   5.203   4.590   4.771  0.4103 -1.1909 -0.6072
  535TIP3   OH223095   4.209   0.834  15.156 -0.2983 -0.0233  0.3015
  535TIP3    H123096   4.132   0.845  15.101 -0.6825 -0.2683  0.7827
  535TIP3    H223097   4.249   0.921  15.159  0.4511 -0.2710 -1.3980
  536TIP3   OH223098   5.171   0.194  15.252 -0.2052 -0.4963  0.7026
  536TIP3    H123099   5.103   0.130  15.229 -0.5749 -0.1150  0.7141
  536TIP3    H223100   5.249   0.142  15.267 -0.5170 -0.9522  0.7657
  537TIP3   OH223101   2.988   0.575   2.735 -0.0630 -0.2806  0.7074
  537TIP3    H123102   2.895   0.561   2.717  0.1163  0.1825 -0.6705
  537TIP3    H223103   3.032   0.502   2.692  0.3589  0.6640 -0.5082
  538TIP3   OH223104   4.636   5.110   3.160 -0.6019  0.0531  0.4803
  538TIP3    H123105   4.545   5.113   3.131 -0.5386 -1.4691  0.0085
  538TIP3    H223106   4.687   5.116   3.079 -0.2999  0.2197  0.6810
  539TIP3   OH223107   3.610   3.818   4.102  0.6108 -0.4294  0.3928
  539TIP3    H123108   3.693   3.859   4.127  1.0295 -0.8112 -0.3447
  539TIP3    H223109   3.548   3.848   4.168  1.1917  0.3713  0.5904
  540TIP3   OH223110   5.477   3.805  14.193  0.0408  0.4508  0.3142
  540TIP3    H123111   5.503   3.713  14.202 -1.3786 -0.4051 -3.0042
  540TIP3    H223112   5.553   3.847  14.152  0.5972  0.7471  1.6084
  541TIP3   OH223113   4.136   0.687   4.569 -0.1247  0.7925  0.2558
  541TIP3    H123114   4.065   0.688   4.633  0.5588  0.6363  1.0414
  541TIP3    H223115   4.177   0.601   4.579  0.1827  0.8869 -0.1631
  542TIP3   OH223116   0.105   5.912   5.184 -0.4482  0.1880  0.1242
  542TIP3    H123117   0.126   5.828   5.223  1.1710  0.9556  1.0273
  542TIP3    H223118   0.109   5.897   5.089 -1.1492 -0.9383  0.2550
  543TIP3   OH223119   3.494   6.238  15.660  0.1061 -0.0134 -0.2577
  543TIP3    H123120   3.463   6.282  15.580  2.0753  1.4992 -0.2541
  543TIP3    H223121   3.460   6.149  15.652 -1.9455  0.7969 -1.4888
  544TIP3   OH223122   2.955   6.749   3.942 -0.6041  0.0665 -0.3818
  544TIP3    H123123   3.035   6.709   3.976 -0.6625 -0.1581 -0.5049
  544TIP3    H223124   2.971   6.843   3.948 -0.8403  0.0463  0.7869
  545TIP3   OH223125   4.583   0.802  14.394 -0.4242 -0.1898 -0.2128
  545TIP3    H123126   4.507   0.808  14.453 -0.8846 -0.1547 -0.8053
  545TIP3    H223127   4.657   0.785  14.453 -0.6307  1.3202  0.5360
  546TIP3   OH223128   3.683   4.404   0.190 -0.5609  0.1894  0.2270
  546TIP3    H123129   3.629   4.356   0.253 -0.0282  0.5558  0.9782
  546TIP3    H223130   3.767   4.358   0.191 -0.5797  0.1323 -0.3086
  547TIP3   OH223131   1.633   0.985  14.036 -0.2408  0.4529  0.1077
  547TIP3    H123132   1.718   0.946  14.055 -0.7094 -1.0034 -0.6229
  547TIP3    H223133   1.596   1.006  14.122  0.7168  0.8306  0.4363
  548TIP3   OH223134   1.438   4.406   6.582 -0.7407  0.1531  0.5371
  548TIP3    H123135   1.388   4.333   6.618 -0.4780 -0.5009 -0.3896
  548TIP3    H223136   1.433   4.394   6.487 -0.2548  1.0447  0.3863
  549TIP3   OH223137   0.491   1.945  11.735 -0.3504  0.0539  0.5643
  549TIP3    H123138   0.578   1.919  11.765  0.0287  0.7701  0.1157
  549TIP3    H223139   0.437   1.867  11.746  0.4999 -0.5907  0.2498
  550TIP3   OH223140   6.422   4.511  16.704  0.2113 -0.4502 -0.7177
  550TIP3    H123141   6.388   4.477  16.621  1.9217  1.0514 -2.1113
  550TIP3    H223142   6.468   4.438  16.744  0.4770 -0.8353 -1.7258
  551TIP3   OH223143   2.345   2.879  14.363 -0.0135 -0.5230  0.1737
  551TIP3    H123144   2.361   2.859  14.271 -0.9498  0.8624 -0.3191
  551TIP3    H223145   2.430   2.910  14.396 -0.1117  0.8322 -0.7600
  552TIP3   OH223146   5.921   6.798   3.554 -0.5138 -0.0638 -0.5362
  552TIP3    H123147   5.971   6.865   3.508 -0.6051 -0.1967 -0.8372
  552TIP3    H223148   5.946   6.716   3.511 -2.2177  0.0347 -1.8282
  553TIP3   OH223149   0.883   0.022  15.316 -0.0223  0.4076  0.5043
  553TIP3    H123150   0.933   0.074  15.379  0.0621 -0.7342  1.4012
  553TIP3    H223151   0.863  -0.059  15.362 -1.3099  0.1765 -0.4053
  554TIP3   OH223152   5.303   2.827   4.230 -0.0421 -0.5418 -0.7548
  554TIP3    H123153   5.244   2.881   4.177  0.7815  1.1413 -0.0270
  554TIP3    H223154   5.252   2.804   4.307  0.1733  0.8083 -0.1848
  555TIP3   OH223155   3.025   5.061  14.330 -0.2520 -0.2105 -0.1223
  555TIP3    H123156   3.074   5.036  14.408 -1.1221  1.3096  0.9676
  555TIP3    H223157   3.031   5.157  14.328 -0.5155 -0.1971 -1.7580
  556TIP3   OH223158   1.188   3.316  12.603  0.0377 -0.6760 -0.3698
  556TIP3    H123159   1.175   3.228  12.638 -1.5715  0.5221  2.3523
  556TIP3    H223160   1.236   3.362  12.672 -0.5979  1.0288 -1.0159
  557TIP3   OH223161   5.677   3.284  15.141  0.0461  0.0699 -0.2214
  557TIP3    H123162   5.618   3.359  15.149 -0.7594 -0.1257 -3.1857
  557TIP3    H223163   5.631   3.213  15.187  0.5927  1.1816  2.1847
  558TIP3   OH223164   0.709   1.359   4.786 -0.0691 -0.1324 -0.0014
  558TIP3    H123165   0.778   1.387   4.725 -0.7242  2.0130  0.1646
  558TIP3    H223166   0.627   1.375   4.739 -0.5371 -1.8234  0.1441
  559TIP3   OH223167   3.225   2.823  14.574 -0.0154  0.1616 -0.1741
  559TIP3    H123168   3.251   2.755  14.511  0.0607 -1.8827  1.9302
  559TIP3    H223169   3.307   2.857  14.609 -0.0573 -0.0721  0.1621
  560TIP3   OH223170   0.116   3.675  10.708 -0.0268 -0.3588 -0.5895
  560TIP3    H123171   0.138   3.624  10.786 -0.6479 -0.8549 -0.7266
  560TIP3    H223172   0.197   3.675  10.656 -0.0406 -1.2977 -0.6309
  561TIP3   OH223173   0.070   3.600   0.814  0.6026  0.6897 -0.3807
  561TIP3    H123174   0.135   3.663   0.844  0.7537  0.1529  0.4314
  561TIP3    H223175   0.116   3.546   0.750  0.4770  1.3795 -1.0701
  562TIP3   OH223176   3.875   4.637  13.921 -0.2570 -0.2185 -0.1850
  562TIP3    H123177   3.865   4.557  13.974 -1.9624 -1.0939 -1.7055
  562TIP3    H223178   3.835   4.706  13.975 -1.1717 -0.9145  0.0647
  563TIP3   OH223179   5.078   4.211  11.715  0.3082 -0.6953 -0.2410
  563TIP3    H123180   5.127   4.155  11.655  1.2756  0.6203 -0.7363
  563TIP3    H223181   5.117   4.195  11.800  0.6230 -0.7332 -0.3905
  564TIP3   OH223182   4.610   1.632  15.903 -0.1188  0.2806 -0.0826
  564TIP3    H123183   4.516   1.643  15.915  0.0146  0.1638  1.2315
  564TIP3    H223184   4.625   1.539  15.920  0.0216 -0.0912 -1.9872
  565TIP3   OH223185   4.959   4.058   0.470  0.5225  0.3121 -0.1545
  565TIP3    H123186   4.872   4.019   0.460  0.9904 -1.1677  1.0674
  565TIP3    H223187   4.941   4.149   0.497 -0.7067 -0.3536  1.5139
  566TIP3   OH223188   2.349   2.418   0.449 -0.7099 -0.2212 -0.5686
  566TIP3    H123189   2.426   2.387   0.498  2.6714  4.6330 -1.9968
  566TIP3    H223190   2.371   2.401   0.358 -1.2604  1.1949 -0.9948
  567TIP3   OH223191   2.945   0.390  12.335  0.1811  0.3499 -0.1267
  567TIP3    H123192   2.898   0.430  12.409 -0.0190 -0.1794  0.0390
  567TIP3    H223193   2.886   0.401  12.260 -1.0684 -1.9225  0.4401
  568TIP3   OH223194   1.925   4.103  15.013 -0.4644 -0.1883 -0.0878
  568TIP3    H123195   1.957   4.034  15.071 -2.7440 -0.2635  1.1922
  568TIP3    H223196   1.962   4.183  15.050  1.6387 -0.5828 -1.1817
  569TIP3   OH223197   4.703   6.613   3.311 -0.4463 -0.2545  0.1204
  569TIP3    H123198   4.781   6.589   3.261  0.9945  0.5550  1.8466
  569TIP3    H223199   4.665   6.530   3.340  0.0222 -0.6435 -0.3759
  570TIP3   OH223200   3.741   2.396  14.455 -0.0577 -0.6553  0.2607
  570TIP3    H123201   3.760   2.308  14.487  1.7627 -0.3292  0.1816
  570TIP3    H223202   3.819   2.448  14.478 -1.6753  1.3264  1.6385
  571TIP3   OH223203   2.146   2.556  15.505 -0.2853  0.2288 -0.4665
  571TIP3    H123204   2.067   2.549  15.559  1.7330  0.5709  2.7801
  571TIP3    H223205   2.137   2.641  15.462 -0.8631  1.1737  1.3854
  572TIP3   OH223206   5.892   5.601  12.485  0.4920  0.2793  0.1150
  572TIP3    H123207   5.944   5.682  12.487 -1.3412  1.4914  1.0180
  572TIP3    H223208   5.812   5.625  12.439  0.7672 -1.6330 -1.5240
  573TIP3   OH223209   3.181   0.559   1.289  0.0290 -0.1907  0.2640
  573TIP3    H123210   3.140   0.503   1.222 -1.5482  0.3050  0.7690
  573TIP3    H223211   3.265   0.517   1.307 -0.5577 -1.6867 -0.2888
  574TIP3   OH223212   1.704   5.146   0.235 -0.2298  0.2776 -0.5435
  574TIP3    H123213   1.698   5.154   0.330  0.8894 -1.2153 -0.3017
  574TIP3    H223214   1.782   5.093   0.221 -0.9488 -0.3891 -2.2674
  575TIP3   OH223215   1.204   5.308  14.548 -0.3738  0.1931 -0.5185
  575TIP3    H123216   1.201   5.250  14.625 -2.0899  1.0001  0.0917
  575TIP3    H223217   1.136   5.274  14.490  1.9642 -1.3968 -2.5204
  576TIP3   OH223218   2.613   4.041   4.499 -0.0603 -0.5060  0.2632
  576TIP3    H123219   2.694   4.014   4.542  1.5740  3.1748 -0.1148
  576TIP3    H223220   2.631   4.028   4.406 -0.7224 -1.5201  0.2624
  577TIP3   OH223221   2.806   3.994   2.993 -0.4425  0.2705 -0.1584
  577TIP3    H123222   2.724   3.949   2.972  1.0356 -1.0491 -3.8222
  577TIP3    H223223   2.873   3.944   2.947  2.3770  1.8775  1.8921
  578TIP3   OH223224   5.681   0.907  13.082  0.9090 -0.1579 -0.1103
  578TIP3    H123225   5.745   0.938  13.018  1.5223 -0.7635  0.1927
  578TIP3    H223226   5.734   0.869  13.152  0.2022 -1.0753 -0.0569
  579TIP3   OH223227   2.180   2.344   2.505  1.2792  0.3715 -0.1251
  579TIP3    H123228   2.245   2.401   2.464  0.3727  1.5553  0.0498
  579TIP3    H223229   2.148   2.394   2.580  0.8957 -0.6177  0.3866
  580TIP3   OH223230   4.411   4.886  11.794 -0.9758  0.4796 -0.0070
  580TIP3    H123231   4.381   4.826  11.863 -1.3682  1.1103  0.3856
  580TIP3    H223232   4.457   4.955  11.842  1.1631 -0.4560 -0.5919
  581TIP3   OH223233   6.170   6.422  12.166  0.8565 -0.2766  0.1458
  581TIP3    H123234   6.204   6.466  12.089  2.5168 -0.7882  0.5377
  581TIP3    H223235   6.209   6.469  12.240 -1.2418  0.6386  0.7286
  582TIP3   OH223236   4.590   4.310   4.147  0.2263 -0.0296 -0.4075
  582TIP3    H123237   4.560   4.221   4.129 -0.0736  0.1825 -0.9852
  582TIP3    H223238   4.666   4.322   4.089  0.2571  0.0986 -0.3411
  583TIP3   OH223239   2.931   2.772  16.537  0.1948  0.2732 -0.0803
  583TIP3    H123240   2.978   2.705  16.488 -0.2154  1.0171 -1.5711
  583TIP3    H223241   2.909   2.731  16.620  1.6522 -0.7696 -0.1738
  584TIP3   OH223242   3.413   4.411  12.136 -0.0543  0.2374 -0.0723
  584TIP3    H123243   3.399   4.503  12.161 -1.6580 -0.0764  0.2753
  584TIP3    H223244   3.434   4.367  12.219 -0.5072  0.0760 -0.0410
  585TIP3   OH223245   5.895   0.574  15.559  0.2770 -0.3508 -0.4406
  585TIP3    H123246   5.808   0.608  15.537  0.1132 -0.8908 -0.6668
  585TIP3    H223247   5.945   0.650  15.587 -0.0581  0.0797 -0.9893
  586TIP3   OH223248   5.401   4.760  13.626  0.5545  0.1011  0.4185
  586TIP3    H123249   5.412   4.854  13.611  0.5861  0.3494  1.8696
  586TIP3    H223250   5.486   4.722  13.604 -0.8380 -0.5057 -5.8240
  587TIP3   OH223251   5.408   0.636  13.463 -0.0330  0.0063  0.0606
  587TIP3    H123252   5.426   0.718  13.509  2.2685  1.6033 -3.2860
  587TIP3    H223253   5.315   0.640  13.442 -0.6823  0.1574  2.5583
  588TIP3   OH223254   1.938   5.556   1.850  0.0104  0.1480  0.4659
  588TIP3    H123255   1.952   5.484   1.911  0.5893  0.7677  1.0923
  588TIP3    H223256   1.954   5.635   1.903  0.8211  0.6924 -0.5593
  589TIP3   OH223257   4.972   2.542   3.871  0.4543 -0.5024 -0.5778
  589TIP3    H123258   4.990   2.448   3.868  1.0574 -0.3863 -0.8035
  589TIP3    H223259   5.056   2.582   3.892  0.1575 -0.0231 -0.2773
  590TIP3   OH223260   0.936   4.746  16.883 -0.8729  0.1268 -0.0227
  590TIP3    H123261   0.879   4.810  16.926  0.1345  0.5669  0.6994
  590TIP3    H223262   0.900   4.661  16.908 -0.6063  0.3845  1.3013
  591TIP3   OH223263   1.544   1.084  11.962 -0.8417 -0.4901  0.2033
  591TIP3    H123264   1.631   1.114  11.986  0.4183 -2.4923 -1.5530
  591TIP3    H223265   1.508   1.048  12.043 -0.0977  0.4137  0.9593
  592TIP3   OH223266   4.467   5.442  15.550  0.2775  0.1932  0.0528
  592TIP3    H123267   4.554   5.403  15.538 -0.0204 -0.2199 -0.8095
  592TIP3    H223268   4.448   5.429  15.642  1.4522  0.9594  0.4352
  593TIP3   OH223269   1.118   3.803  12.645  0.0009  0.3663 -0.2672
  593TIP3    H123270   1.130   3.811  12.739 -0.1529 -0.8728 -0.1233
  593TIP3    H223271   1.126   3.892  12.611 -0.0277  0.8286  0.9239
  594TIP3   OH223272   6.792   2.741   3.333 -0.5585 -0.1635 -0.9489
  594TIP3    H123273   6.727   2.807   3.308 -0.8734  0.2969  0.9349
  594TIP3    H223274   6.804   2.688   3.254 -1.5808  1.0864 -1.9875
  595TIP3   OH223275   6.752   4.067  11.865 -0.1890 -0.0412  0.5169
  595TIP3    H123276   6.807   4.125  11.919 -0.6030  1.7660 -0.9146
  595TIP3    H223277   6.743   4.113  11.782  0.4787 -2.7764 -1.1697
  596TIP3   OH223278   0.903   5.760   5.662 -0.4956  0.3645 -0.2350
  596TIP3    H123279   0.888   5.820   5.589 -2.9201 -0.1699 -0.2351
  596TIP3    H223280   0.872   5.807   5.739  0.1539  0.1382  0.1760
  597TIP3   OH223281   1.807   4.989  10.695  0.0638  0.3088  0.2851
  597TIP3    H123282   1.848   5.073  10.675 -2.9243  2.1969  1.3847
  597TIP3    H223283   1.752   4.971  10.619 -0.9677  0.5177  0.9608
  598TIP3   OH223284   6.432   1.718  10.725  0.1880 -0.2397  0.2738
  598TIP3    H123285   6.500   1.785  10.718 -0.4542  0.3848 -0.1041
  598TIP3    H223286   6.481   1.636  10.737  0.9874  0.2655  0.5627
  599TIP3   OH223287   3.900   4.140  14.764  0.6111 -0.2529  0.5233
  599TIP3    H123288   3.947   4.201  14.708 -1.1002  0.8488  0.2279
  599TIP3    H223289   3.860   4.194  14.831 -0.9878 -1.0078  0.2276
  600TIP3   OH223290   3.525   6.043  11.337 -0.0405 -0.2291 -0.1996
  600TIP3    H123291   3.495   6.083  11.419  1.8034 -0.4717  0.6438
  600TIP3    H223292   3.463   6.074  11.271 -0.1178  2.0251  0.8489
  601TIP3   OH223293   6.424   4.064  12.318  0.4052 -0.4583  0.1042
  601TIP3    H123294   6.397   3.979  12.283  1.8848 -0.6455 -0.6587
  601TIP3    H223295   6.496   4.044  12.378  0.1518  0.1752  0.6343
  602TIP3   OH223296   6.151   5.598  12.063 -0.1175 -0.3861  0.7927
  602TIP3    H123297   6.086   5.530  12.041 -1.1118  0.2480  1.6642
  602TIP3    H223298   6.213   5.596  11.990 -1.5350 -0.5001 -0.4747
  603TIP3   OH223299   1.357   3.194   0.329  0.5588  0.6612 -0.6426
  603TIP3    H123300   1.374   3.287   0.345 -1.4384  1.3285 -2.0262
  603TIP3    H223301   1.320   3.191   0.241  2.6627 -1.7686 -1.5572
  604TIP3   OH223302   1.473   1.242   1.538  0.2318 -0.3894 -0.7528
  604TIP3    H123303   1.548   1.297   1.559 -0.0168 -0.3147 -0.0285
  604TIP3    H223304   1.400   1.303   1.528 -0.0301 -0.5783 -0.0173
  605TIP3   OH223305   3.459   0.229  11.190  0.2389  0.8151 -1.0313
  605TIP3    H123306   3.366   0.250  11.202  0.1162  0.1836 -0.8168
  605TIP3    H223307   3.459   0.158  11.125  0.4813  0.0479 -0.2158
  606TIP3   OH223308   1.868   5.687  11.942 -0.0041  0.0155 -0.1972
  606TIP3    H123309   1.862   5.593  11.922 -1.1435 -0.0291  0.2734
  606TIP3    H223310   1.931   5.721  11.879  1.4567 -1.3089  0.4904
  607TIP3   OH223311   1.066   6.465  11.739 -0.0368  0.2556 -0.5839
  607TIP3    H123312   1.096   6.376  11.755 -2.4096 -0.8618 -1.7342
  607TIP3    H223313   1.140   6.508  11.696  0.5754 -1.7701 -1.7215
  608TIP3   OH223314   4.756   4.368   3.522  0.5261 -0.7507 -0.1331
  608TIP3    H123315   4.812   4.295   3.549  0.8916 -1.3332 -2.3446
  608TIP3    H223316   4.817   4.431   3.483 -0.3307 -1.5152 -2.8419
  609TIP3   OH223317   4.629   1.365  15.284  0.4496 -0.5655  0.1301
  609TIP3    H123318   4.549   1.332  15.326 -0.1220  0.5566 -0.0220
  609TIP3    H223319   4.700   1.329  15.337 -0.2422  0.4836  1.8944
  610TIP3   OH223320   2.870   1.930   2.532 -0.3136  0.3937  0.0022
  610TIP3    H123321   2.946   1.911   2.476 -0.0199  1.5737 -0.0324
  610TIP3    H223322   2.800   1.951   2.470 -0.5029 -0.0878  0.0484
  611TIP3   OH223323   6.058   6.188   0.913 -0.0409 -0.4839 -0.0413
  611TIP3    H123324   6.126   6.133   0.874 -0.7584 -1.0561 -0.5307
  611TIP3    H223325   5.984   6.128   0.926 -0.9319  0.4153 -0.8441
  612TIP3   OH223326   4.627   2.784  12.516  0.1466  0.3138  0.1316
  612TIP3    H123327   4.597   2.751  12.431  1.0860  1.3489 -0.6277
  612TIP3    H223328   4.653   2.705  12.564 -0.4691 -0.2923 -0.5056
  613TIP3   OH223329   5.338   5.948  14.355 -0.2287  0.2186 -0.1943
  613TIP3    H123330   5.342   6.039  14.383  3.5480 -0.2197  1.2431
  613TIP3    H223331   5.346   5.952  14.259  0.6330  1.4029 -0.0911
  614TIP3   OH223332   3.402   2.676   1.023  0.2515 -0.1633  0.3382
  614TIP3    H123333   3.453   2.708   0.948 -0.6807  1.9439  0.5281
  614TIP3    H223334   3.439   2.721   1.098 -1.7185  1.3296  0.5014
  615TIP3   OH223335   0.216   0.356   0.512  0.2864 -0.5326 -0.4591
  615TIP3    H123336   0.175   0.278   0.550  1.4959 -0.7490  0.4743
  615TIP3    H223337   0.303   0.326   0.484  0.9550  0.5763  0.3396
  616TIP3   OH223338   5.252   1.721   2.854 -0.5802 -0.4358  0.0932
  616TIP3    H123339   5.339   1.703   2.818 -0.8838 -3.2658  0.6177
  616TIP3    H223340   5.213   1.783   2.792  0.5301 -1.8255 -2.1055
  617TIP3   OH223341   2.787   1.738  15.016  0.4009 -0.1223 -0.2191
  617TIP3    H123342   2.736   1.694  15.084 -1.0882  1.8849  0.0544
  617TIP3    H223343   2.747   1.710  14.933  1.2280 -1.3591 -0.2287
  618TIP3   OH223344   3.271   3.292   0.674  0.3565  0.3040  0.1584
  618TIP3    H123345   3.253   3.352   0.747  0.6827  0.7113 -0.0902
  618TIP3    H223346   3.238   3.207   0.704 -0.6332  0.7240  0.2803
  619TIP3   OH223347   1.779   5.478   5.238 -0.6263  0.1963 -0.1920
  619TIP3    H123348   1.819   5.448   5.156 -1.7261 -0.0533 -0.6613
  619TIP3    H223349   1.843   5.456   5.305  0.2590  0.3145 -0.9681
  620TIP3   OH223350   5.829   2.048   0.337  0.0778 -0.2174  0.0937
  620TIP3    H123351   5.920   2.070   0.317 -0.0247  0.7517  0.6330
  620TIP3    H223352   5.826   1.952   0.337  1.1607 -0.2572  0.3580
  621TIP3   OH223353   6.699   3.523   3.703  0.5825  0.1870  0.2127
  621TIP3    H123354   6.632   3.570   3.654  0.2001 -2.0151 -1.5544
  621TIP3    H223355   6.754   3.482   3.636  1.5539 -0.9464  1.6266
  622TIP3   OH223356   3.916   5.914  11.994 -0.0706  0.0130  0.1490
  622TIP3    H123357   3.895   5.824  12.019  0.2997 -0.0192  0.3454
  622TIP3    H223358   3.831   5.959  11.996  0.1308  0.5874  3.8105
  623TIP3   OH223359   3.540   1.819  17.096 -0.4595 -0.4790  0.8283
  623TIP3    H123360   3.600   1.886  17.127 -0.2534 -1.7453  3.4503
  623TIP3    H223361   3.596   1.755  17.052 -0.8384  1.7065 -3.2843
  624TIP3   OH223362   4.869   2.043  14.335  0.0149 -0.0019 -0.0301
  624TIP3    H123363   4.790   1.994  14.359 -0.1509  0.0052 -0.5407
  624TIP3    H223364   4.938   1.977  14.335  0.4672  0.3875  2.6006
  625TIP3   OH223365   1.791   2.233   3.684 -0.1916 -0.0639  0.4197
  625TIP3    H123366   1.783   2.215   3.590 -0.5021  0.3331  0.3678
  625TIP3    H223367   1.851   2.165   3.716 -0.0077 -0.1466 -0.0819
  626TIP3   OH223368   0.270   5.236   4.959 -0.5130  0.2301 -0.4650
  626TIP3    H123369   0.270   5.317   4.907 -1.2003  0.0858 -0.6970
  626TIP3    H223370   0.363   5.213   4.967 -0.2601  1.3485  0.0900
  627TIP3   OH223371   3.435   2.172  12.079  0.5014 -0.1374  1.0163
  627TIP3    H123372   3.513   2.136  12.039 -0.7658 -3.0101  0.8576
  627TIP3    H223373   3.382   2.095  12.103 -2.7651  1.6182  0.1167
  628TIP3   OH223374   1.839   1.296   2.332 -0.0044  0.1506  0.2928
  628TIP3    H123375   1.930   1.269   2.321  0.6680  2.3079  0.2412
  628TIP3    H223376   1.791   1.250   2.263  0.9264 -1.3674  0.6067
  629TIP3   OH223377   1.209   2.661   1.152 -0.2643 -0.9389 -0.4793
  629TIP3    H123378   1.180   2.704   1.072 -0.8431  0.9969  0.7097
  629TIP3    H223379   1.304   2.674   1.154 -0.6434  2.6548  1.0425
  630TIP3   OH223380   4.844   0.067  11.565  0.1300 -0.2955 -0.2084
  630TIP3    H123381   4.785   0.037  11.634 -1.6237 -0.5489 -1.7367
  630TIP3    H223382   4.863  -0.011  11.513 -0.7251  0.3353 -1.5238
  631TIP3   OH223383   2.638   0.558   1.866 -0.2710 -0.4449 -0.5922
  631TIP3    H123384   2.648   0.523   1.955 -0.8865 -2.1606 -1.1552
  631TIP3    H223385   2.580   0.633   1.876 -0.9301 -1.0549  0.3803
  632TIP3   OH223386   3.572   4.891  13.231 -0.3140  0.1377 -0.1527
  632TIP3    H123387   3.656   4.883  13.277  0.1321 -0.7366 -1.0612
  632TIP3    H223388   3.528   4.965  13.272  0.4062 -0.1207  1.1202
  633TIP3   OH223389   0.367   6.031  15.659 -0.1685  0.1333  0.1104
  633TIP3    H123390   0.326   6.105  15.615  1.5394  0.8309 -0.4187
  633TIP3    H223391   0.460   6.054  15.662  0.3562 -1.8131  0.3050
  634TIP3   OH223392   0.784   0.313   3.795 -0.5581  0.6685 -0.3399
  634TIP3    H123393   0.851   0.378   3.775  1.3846 -1.2261 -0.3163
  634TIP3    H223394   0.795   0.245   3.728  0.6962 -1.9090  2.2730
  635TIP3   OH223395   5.443   1.386   2.487  0.3864  0.0780  0.4415
  635TIP3    H123396   5.512   1.327   2.518 -0.7372  0.2931  3.7397
  635TIP3    H223397   5.362   1.340   2.507 -0.5023  0.6424 -1.6401
  636TIP3   OH223398   5.782   2.367   3.838  0.1341 -0.3477  0.5318
  636TIP3    H123399   5.703   2.317   3.815 -1.0749  0.8039  1.9590
  636TIP3    H223400   5.812   2.403   3.754 -0.5845 -1.1754 -0.1008
  637TIP3   OH223401   3.507   5.288   0.154 -0.2651  0.7216 -0.1470
  637TIP3    H123402   3.596   5.260   0.132 -0.7915 -1.6730  0.5321
  637TIP3    H223403   3.450   5.229   0.105 -1.4588  0.0838  1.9203
  638TIP3   OH223404   5.502   5.201   4.709  0.3841  0.1366 -0.4461
  638TIP3    H123405   5.511   5.269   4.776 -0.6043 -1.2916  1.2328
  638TIP3    H223406   5.489   5.249   4.628 -0.0953  1.9726  0.6530
  639TIP3   OH223407   0.830   6.079  10.859  0.0767  0.2453 -0.6247
  639TIP3    H123408   0.808   6.033  10.778  0.4093 -2.0061  0.5075
  639TIP3    H223409   0.755   6.137  10.873  0.3261  1.2486 -2.8616
  640TIP3   OH223410   0.262   1.066  13.655 -0.3704 -0.0118 -0.3108
  640TIP3    H123411   0.276   1.133  13.722  0.4143 -0.0110 -0.4679
  640TIP3    H223412   0.253   1.115  13.573 -2.4584  0.0639 -0.0759
  641TIP3   OH223413   1.392   1.340  13.910  0.2023 -0.3014 -0.2158
  641TIP3    H123414   1.314   1.347  13.964 -0.4152 -1.6244 -0.8794
  641TIP3    H223415   1.454   1.402  13.948 -1.3425  1.1689  0.0022
  642TIP3   OH223416   6.547   3.646   1.461  0.1476 -0.1497  0.1935
  642TIP3    H123417   6.520   3.583   1.528 -1.1910 -0.1242 -0.2848
  642TIP3    H223418   6.500   3.726   1.484 -1.0255 -0.3823 -1.2272
  643TIP3   OH223419   5.256   4.937  14.500 -0.0029 -0.8128  0.4505
  643TIP3    H123420   5.169   4.900  14.484  0.1837 -1.0643  0.0107
  643TIP3    H223421   5.298   4.875  14.560 -0.3458 -0.3735  1.1598
  644TIP3   OH223422   1.948   4.397  11.761 -0.5049  0.1636 -0.2640
  644TIP3    H123423   1.956   4.306  11.792 -0.4280 -0.5218 -2.1855
  644TIP3    H223424   2.036   4.419  11.731 -0.8816  0.3127 -1.2646
  645TIP3   OH223425   3.838   4.761   3.833  0.5039  0.1918  0.0363
  645TIP3    H123426   3.904   4.706   3.875  1.0996  0.3404 -0.6890
  645TIP3    H223427   3.888   4.824   3.781 -0.1289  1.9434  1.4619
  646TIP3   OH223428   5.831   4.199  14.514  0.0087  0.3432 -0.2310
  646TIP3    H123429   5.851   4.282  14.558  0.9296 -0.8938  1.8562
  646TIP3    H223430   5.916   4.158  14.499 -0.4733 -1.1489  0.7998
  647TIP3   OH223431   1.600   6.018   5.224 -0.0800 -0.1202  0.2182
  647TIP3    H123432   1.620   6.078   5.152 -0.2254 -0.2356  0.0783
  647TIP3    H223433   1.508   6.034   5.244  0.0000  0.0180  0.4827
  648TIP3   OH223434   2.079   2.871  13.181 -0.0495 -0.2257  0.1950
  648TIP3    H123435   2.158   2.915  13.149  0.3456  0.0756  1.5407
  648TIP3    H223436   2.056   2.810  13.111  1.5232 -0.5088 -0.1129
  649TIP3   OH223437   3.126   2.070  14.155  0.1391  0.0236  0.0224
  649TIP3    H123438   3.061   2.008  14.187  0.0997  0.0764  0.0457
  649TIP3    H223439   3.091   2.101  14.072  1.0499 -1.3877 -0.9233
  650TIP3   OH223440   1.616   1.629   5.635  0.0857  0.4831  0.3117
  650TIP3    H123441   1.643   1.697   5.697 -1.4001  0.3639  1.1286
  650TIP3    H223442   1.558   1.675   5.574 -0.4400  0.0883  0.5064
  651TIP3   OH223443   4.139   5.803  13.356 -0.0654 -0.1153 -0.7288
  651TIP3    H123444   4.230   5.818  13.379  0.0342 -0.8030 -0.6563
  651TIP3    H223445   4.135   5.815  13.261  0.4195 -1.5474 -0.9600
  652TIP3   OH223446   5.818   0.461  11.635  0.6012  0.5376 -0.0250
  652TIP3    H123447   5.799   0.367  11.639  4.2763 -0.3036  1.0382
  652TIP3    H223448   5.746   0.497  11.583 -2.4096 -2.3723  1.6994
  653TIP3   OH223449   2.321   5.654  14.208  0.4017  0.2737  0.0498
  653TIP3    H123450   2.385   5.630  14.275  1.9489  0.8159 -1.1793
  653TIP3    H223451   2.244   5.682  14.258  0.7194 -1.3770  1.5578
  654TIP3   OH223452   0.825   2.407  17.025 -0.0029  0.1884  0.3869
  654TIP3    H123453   0.744   2.454  17.045  0.4672  0.8398  0.7784
  654TIP3    H223454   0.797   2.316  17.012 -0.6484  0.1678  1.7230
  655TIP3   OH223455   5.508   2.719   3.212  0.5473 -0.3809 -0.1864
  655TIP3    H123456   5.485   2.647   3.152 -3.2275  1.5129 -1.3363
  655TIP3    H223457   5.511   2.678   3.298 -1.2080 -2.0268 -0.8246
  656TIP3   OH223458   6.749   0.422  11.372  0.0294  0.0549  0.4637
  656TIP3    H123459   6.781   0.510  11.391  0.1153  0.2640 -0.5524
  656TIP3    H223460   6.825   0.376  11.336 -0.4628  0.1561 -0.7617
  657TIP3   OH223461   0.481   0.704   4.186 -0.2061 -0.4814 -0.7006
  657TIP3    H123462   0.472   0.782   4.241  0.5079 -0.6047 -0.3969
  657TIP3    H223463   0.391   0.680   4.163 -0.4479  0.2400 -0.5277
  658TIP3   OH223464   1.292   0.365   4.675 -0.2255 -0.2619 -0.1179
  658TIP3    H123465   1.283   0.458   4.696 -0.2188 -0.4609  0.8479
  658TIP3    H223466   1.336   0.328   4.752  1.1967 -0.7985 -1.1366
  659TIP3   OH223467   2.495   3.651   4.173  0.1394  0.1358 -0.4595
  659TIP3    H123468   2.545   3.628   4.095 -0.6001  2.2534 -1.6326
  659TIP3    H223469   2.532   3.735   4.202  0.1558 -0.4274  1.2887
  660TIP3   OH223470   1.731   6.150   4.296  0.1244  0.4650  0.1572
  660TIP3    H123471   1.695   6.103   4.220  0.6958 -0.1123  0.2353
  660TIP3    H223472   1.756   6.080   4.357 -1.1449  0.9354  1.2749
  661TIP3   OH223473   5.209   4.895   0.198 -0.0346 -0.3735 -0.3475
  661TIP3    H123474   5.247   4.902   0.110  0.4118  0.0575 -0.1303
  661TIP3    H223475   5.182   4.804   0.206  2.2098 -1.0593 -0.0167
  662TIP3   OH223476   2.701   0.825  12.109 -0.2544  0.0865  0.1855
  662TIP3    H123477   2.677   0.766  12.181 -1.5769 -1.4138 -1.3934
  662TIP3    H223478   2.794   0.841  12.121  0.5190 -3.4639 -0.0141
  663TIP3   OH223479   6.511   3.510  14.893  0.0134 -0.5408 -0.0893
  663TIP3    H123480   6.469   3.520  14.807  0.9934 -0.3371 -0.5619
  663TIP3    H223481   6.451   3.455  14.943 -1.3429  0.6208 -0.3693
  664TIP3   OH223482   0.440   5.566  16.877  0.7486  0.4810  0.0436
  664TIP3    H123483   0.531   5.597  16.873  0.7106  0.4937 -0.9714
  664TIP3    H223484   0.388   5.645  16.891  0.9049  0.4498  0.8271
  665TIP3   OH223485   2.159   4.677   2.609 -0.0945 -0.1084  0.3372
  665TIP3    H123486   2.076   4.633   2.589  0.8012 -0.9048 -1.9149
  665TIP3    H223487   2.197   4.698   2.524  1.7135  0.8795  1.3119
  666TIP3   OH223488   3.003   4.159   7.972  0.5584 -0.3470 -0.1040
  666TIP3    H123489   2.949   4.236   7.953  0.7151 -0.1480  0.2535
  666TIP3    H223490   3.031   4.128   7.886 -0.0849 -0.4273 -0.2907
  667TIP3   OH223491   1.177   2.680  16.640  0.0460 -0.0941 -0.1915
  667TIP3    H123492   1.143   2.658  16.727  2.7008  0.4437  1.0732
  667TIP3    H223493   1.263   2.638  16.636  1.3256  2.4003 -1.3006
  668TIP3   OH223494   5.222   4.512   2.127 -0.2869 -0.3114 -0.2295
  668TIP3    H123495   5.280   4.456   2.178  0.9104 -0.1868 -1.3941
  668TIP3    H223496   5.214   4.592   2.179 -0.0397 -0.6256  0.3018
  669TIP3   OH223497   4.215   6.550  12.080 -0.4816  0.1596 -0.1922
  669TIP3    H123498   4.301   6.554  12.036 -0.0912  0.3435  0.5703
  669TIP3    H223499   4.156   6.595  12.020 -0.1853 -0.5415 -1.0358
  670TIP3   OH223500   5.130   1.242  14.066 -0.6048 -0.0758 -0.7367
  670TIP3    H123501   5.056   1.187  14.038 -1.4960  1.2305 -1.0566
  670TIP3    H223502   5.105   1.272  14.153  1.3458 -2.6724  0.8684
  671TIP3   OH223503   1.254   4.476  14.943  0.5355 -0.0260 -0.3826
  671TIP3    H123504   1.195   4.403  14.924  0.3810  0.3240 -1.2989
  671TIP3    H223505   1.318   4.474  14.872  0.4282  0.8247 -0.5117
  672TIP3   OH223506   5.574   3.397  14.723 -0.4542  0.1529 -0.2003
  672TIP3    H123507   5.489   3.431  14.696 -0.5489  0.2253  0.1841
  672TIP3    H223508   5.589   3.436  14.810  0.2111  0.5745 -0.4912
  673TIP3   OH223509   4.030   2.263  15.607 -0.2662 -0.3821 -0.3970
  673TIP3    H123510   4.012   2.246  15.700  1.0757  1.1517  0.2008
  673TIP3    H223511   3.944   2.276  15.568 -0.8105  0.4143  0.9753
  674TIP3   OH223512   1.222   3.620  16.381  0.1964  0.3347 -0.0256
  674TIP3    H123513   1.226   3.545  16.440 -0.1323 -0.5880 -1.1622
  674TIP3    H223514   1.313   3.644  16.366  0.3403 -0.5062 -0.5035
  675TIP3   OH223515   0.148   4.395   3.396  0.1776 -0.0135 -0.3526
  675TIP3    H123516   0.214   4.334   3.427 -0.9638 -1.1244 -0.0562
  675TIP3    H223517   0.178   4.420   3.308  0.9797 -0.4980 -0.2252
  676TIP3   OH223518   0.461   1.457   4.693 -0.2411  0.2619 -0.2131
  676TIP3    H123519   0.393   1.392   4.712 -0.2367  0.0259 -0.9559
  676TIP3    H223520   0.424   1.511   4.622  1.0198 -1.0107 -1.9285
  677TIP3   OH223521   1.367   5.694   1.118 -0.3890  0.0379 -0.2712
  677TIP3    H123522   1.341   5.722   1.206  2.1397  0.8827  0.3063
  677TIP3    H223523   1.422   5.765   1.086 -0.4597 -0.7115 -2.1516
  678TIP3   OH223524   0.519   6.202  13.168 -0.6880  0.0132 -0.0577
  678TIP3    H123525   0.486   6.250  13.245 -0.1805 -0.5928  0.5528
  678TIP3    H223526   0.548   6.271  13.108 -0.2268  0.4886  0.6911
  679TIP3   OH223527   5.467   5.941  14.097 -0.1958 -0.1496  0.0775
  679TIP3    H123528   5.554   5.929  14.137 -0.6593 -0.9687  0.8836
  679TIP3    H223529   5.479   6.013  14.036  1.2034 -0.6323 -0.2609
  680TIP3   OH223530   1.796   0.126  13.614  0.4018 -0.3230 -0.1931
  680TIP3    H123531   1.711   0.089  13.639  0.8142 -0.0169  1.8591
  680TIP3    H223532   1.809   0.198  13.675  0.9877  1.3419 -2.1697
  681TIP3   OH223533   4.108   5.836  11.817  0.1889  0.1342  0.4797
  681TIP3    H123534   4.034   5.878  11.862  0.9734  0.2609  1.6970
  681TIP3    H223535   4.154   5.908  11.775  0.5768  0.2914  1.1566
  682TIP3   OH223536   0.417   0.372   5.713  0.0147 -0.3034  0.2047
  682TIP3    H123537   0.388   0.381   5.804 -1.7528 -2.4141 -0.0531
  682TIP3    H223538   0.372   0.442   5.666  0.4914  0.4437  0.8314
  683TIP3   OH223539   5.088   0.619   2.730 -0.2196 -0.0304 -0.0542
  683TIP3    H123540   5.069   0.555   2.662  1.6111 -1.1857  0.4560
  683TIP3    H223541   5.004   0.660   2.749 -1.1230 -1.0888 -1.5776
  684TIP3   OH223542   3.453   5.646   2.299  0.2429 -0.2537 -0.5488
  684TIP3    H123543   3.424   5.652   2.391 -1.2621 -0.9247 -0.9516
  684TIP3    H223544   3.509   5.723   2.287 -0.5623  0.5480  0.5829
  685TIP3   OH223545   1.488   2.273  13.948  0.0064 -0.4230  0.1710
  685TIP3    H123546   1.454   2.193  13.989 -0.8654 -1.0910 -1.7340
  685TIP3    H223547   1.564   2.244  13.897  1.7720  0.5844  2.0854
  686TIP3   OH223548   6.819   0.543   4.115 -0.2441  0.4461  0.2943
  686TIP3    H123549   6.802   0.539   4.021 -1.0173  1.8172  0.3423
  686TIP3    H223550   6.774   0.467   4.152  2.5377 -1.8589 -0.7178
  687TIP3   OH223551   0.150   4.031  10.930 -0.4419 -0.2691  0.6483
  687TIP3    H123552   0.060   4.041  10.961 -1.4306  0.1461 -2.0327
  687TIP3    H223553   0.140   4.006  10.838  2.2051 -0.7821  0.4303
  688TIP3   OH223554   3.411   4.867   3.862  0.3110  0.2441 -0.1431
  688TIP3    H123555   3.404   4.890   3.955 -1.1374  0.6158 -0.3157
  688TIP3    H223556   3.365   4.783   3.855 -1.1924  1.0808 -0.7977
  689TIP3   OH223557   3.632   0.520   1.066 -0.3393  0.4518 -0.3531
  689TIP3    H123558   3.544   0.556   1.060 -0.4754  0.2820  0.4908
  689TIP3    H223559   3.689   0.596   1.072 -0.6522  0.5816  1.8012
  690TIP3   OH223560   2.841   4.520  15.040 -0.0306  0.1220  0.1518
  690TIP3    H123561   2.908   4.500  14.974 -1.8076 -3.1983 -0.9123
  690TIP3    H223562   2.758   4.512  14.992 -1.2950  2.3511  1.8042
  691TIP3   OH223563   1.427   0.135  16.209  0.1362 -0.0805  0.2294
  691TIP3    H123564   1.420   0.219  16.165 -0.7006 -0.3462 -0.1530
  691TIP3    H223565   1.502   0.092  16.167 -0.4950 -0.2270 -0.7772
  692TIP3   OH223566   5.278   1.382   5.785 -0.3175 -0.3283  0.3520
  692TIP3    H123567   5.297   1.451   5.849 -0.8295 -0.7923  1.0285
  692TIP3    H223568   5.188   1.354   5.807  0.0430 -1.5102  0.3894
  693TIP3   OH223569   2.660   2.474   1.868  0.3958 -0.5608  0.3327
  693TIP3    H123570   2.712   2.394   1.859  0.8286 -0.3576  1.0012
  693TIP3    H223571   2.685   2.510   1.953 -1.6274 -1.0514  1.2171
  694TIP3   OH223572   5.491   1.464  15.774 -0.3387 -0.6131  0.0331
  694TIP3    H123573   5.512   1.371  15.774  0.4221 -0.4593 -0.8478
  694TIP3    H223574   5.518   1.495  15.861  2.8793 -0.5125 -0.8765
  695TIP3   OH223575   4.744   4.267   0.604 -0.6907 -0.0558 -0.3368
  695TIP3    H123576   4.716   4.343   0.654 -0.5408 -1.0252  1.2766
  695TIP3    H223577   4.702   4.193   0.646  1.5665 -1.1909  0.0745
  696TIP3   OH223578   2.476   2.714   6.027 -0.3333 -0.3740  0.1631
  696TIP3    H123579   2.511   2.715   6.115  0.4764  2.9532 -0.0480
  696TIP3    H223580   2.549   2.686   5.972  0.6928  1.9102  0.2120
  697TIP3   OH223581   5.037   5.821  11.456  0.0408 -0.3064  0.7416
  697TIP3    H123582   4.964   5.767  11.487 -0.8095  1.5796  2.2127
  697TIP3    H223583   5.004   5.862  11.376  0.0801 -0.6712  0.5365
  698TIP3   OH223584   4.600   4.828  14.816  0.1241  0.4192 -0.1103
  698TIP3    H123585   4.668   4.880  14.859 -0.2439  1.2157 -0.4724
  698TIP3    H223586   4.627   4.737  14.829  2.8568  0.6979 -2.7953
  699TIP3   OH223587   2.068   0.425  12.554  0.4913  0.0997 -0.7627
  699TIP3    H123588   1.999   0.366  12.523 -0.0861  0.5887 -0.4366
  699TIP3    H223589   2.145   0.403  12.502 -0.3175  0.5804 -2.2044
  700TIP3   OH223590   0.548   1.032  13.767  0.9002 -0.2166  0.3793
  700TIP3    H123591   0.577   1.079  13.689  0.4434  0.3407  0.5461
  700TIP3    H223592   0.563   1.093  13.839  0.4429 -0.3822  0.6166
  701TIP3   OH223593   1.128   5.497   3.418  0.3179  0.3598  0.5354
  701TIP3    H123594   1.105   5.569   3.358  0.6226  0.7856  0.9175
  701TIP3    H223595   1.047   5.447   3.427  0.0239  0.8093  0.4628
  702TIP3   OH223596   3.843   6.817   1.307 -0.2377 -0.1145  0.4872
  702TIP3    H123597   3.849   6.909   1.334  0.3511 -0.4586  1.5878
  702TIP3    H223598   3.865   6.767   1.386 -0.5966 -1.2075 -0.0806
  703TIP3   OH223599   4.840   4.369   0.939 -0.2517  0.4925  0.3935
  703TIP3    H123600   4.852   4.421   0.859 -1.2068  0.4845  0.2303
  703TIP3    H223601   4.775   4.304   0.915 -1.0966  0.9396  1.3853
  704TIP3   OH223602   4.486   2.010   3.496 -0.1457  0.5302  0.1775
  704TIP3    H123603   4.500   2.102   3.518  2.2301  0.3029 -0.1195
  704TIP3    H223604   4.563   1.965   3.531 -0.1898 -1.0284 -1.5541
  705TIP3   OH223605   3.326   4.988  10.617 -0.2035  0.0585 -0.3220
  705TIP3    H123606   3.402   4.940  10.649 -0.2466 -0.0520 -0.3832
  705TIP3    H223607   3.329   4.977  10.522 -1.2695 -1.4260 -0.2230
  706TIP3   OH223608   0.925   2.486  12.609 -0.1188 -0.0168  0.5034
  706TIP3    H123609   0.855   2.541  12.574 -0.0662  1.0301  1.9626
  706TIP3    H223610   1.004   2.538  12.598  0.2343 -0.6093  0.1685
  707TIP3   OH223611   0.386   5.306   3.650  0.2292 -0.0252 -0.2803
  707TIP3    H123612   0.445   5.327   3.723  1.0070  0.8189 -1.1263
  707TIP3    H223613   0.402   5.375   3.586 -2.3057  0.7004 -0.2081
  708TIP3   OH223614   5.319   1.463   0.589 -0.6942  0.2108 -0.1302
  708TIP3    H123615   5.358   1.458   0.676 -0.5556  1.2018 -0.1163
  708TIP3    H223616   5.284   1.552   0.584  1.9519  1.2671 -2.1790
  709TIP3   OH223617   6.707   2.256   4.124 -0.0248  0.5968 -0.0418
  709TIP3    H123618   6.635   2.250   4.186  0.0370  1.4449  0.1179
  709TIP3    H223619   6.741   2.166   4.118  0.1659  0.5576  1.3703
  710TIP3   OH223620   1.097   0.979  13.292  0.2494  0.2883  0.2342
  710TIP3    H123621   1.188   0.951  13.281 -0.1776 -1.4975  0.9039
  710TIP3    H223622   1.102   1.056  13.348  1.3159 -0.2275  0.8723
  711TIP3   OH223623   1.564   4.612   2.012 -0.0323  0.1321 -0.0940
  711TIP3    H123624   1.659   4.624   2.016  0.0748 -0.9182  1.6131
  711TIP3    H223625   1.548   4.532   2.062 -1.5332 -1.6023 -3.0579
  712TIP3   OH223626   4.403   5.082   3.384  0.4409 -0.2182 -0.0448
  712TIP3    H123627   4.433   5.001   3.342 -0.1337  0.3951 -1.7304
  712TIP3    H223628   4.411   5.149   3.316 -1.3613  0.6606  0.5363
  713TIP3   OH223629   6.225   5.011   4.937 -0.0971 -0.4431  0.0016
  713TIP3    H123630   6.300   5.030   4.993 -0.2374 -1.2425  0.4837
  713TIP3    H223631   6.228   4.916   4.924  0.6256 -0.1546 -2.3863
  714TIP3   OH223632   5.413   4.022  11.992 -0.2652  0.1736 -0.3661
  714TIP3    H123633   5.461   3.940  11.977 -1.8828 -1.3728  2.1910
  714TIP3    H223634   5.479   4.090  11.986  1.4933 -1.4831 -0.7481
  715TIP3   OH223635   3.030   5.348  14.331  0.1623 -0.1018 -0.3320
  715TIP3    H123636   3.089   5.408  14.286 -0.3161  0.0815 -0.7222
  715TIP3    H223637   2.973   5.404  14.383  0.0429 -0.2495 -0.3014
  716TIP3   OH223638   5.393   0.794   6.020  0.0457  0.5751 -0.3520
  716TIP3    H123639   5.462   0.782   6.086  1.3883  0.1019 -1.7810
  716TIP3    H223640   5.372   0.706   5.991 -0.4075  0.7904 -0.6875
  717TIP3   OH223641   6.306   0.464  17.062 -0.1514 -0.1864  0.0357
  717TIP3    H123642   6.391   0.466  17.106 -0.3949  2.0852  0.4960
  717TIP3    H223643   6.243   0.489  17.130 -0.9728 -0.1098 -0.7337
  718TIP3   OH223644   5.218   4.533  13.696  0.3305  0.3358  0.1301
  718TIP3    H123645   5.132   4.561  13.728  0.5019  0.7048  0.2719
  718TIP3    H223646   5.275   4.607  13.714  0.5338  0.3584 -0.6103
  719TIP3   OH223647   2.028   6.205   2.095  0.0098 -0.0536  0.3935
  719TIP3    H123648   2.040   6.136   2.159 -2.2330 -0.8431  0.0769
  719TIP3    H223649   2.058   6.167   2.012  1.9826  0.6197  0.7539
  720TIP3   OH223650   4.661   3.783  11.630 -0.1736  0.0800 -0.0696
  720TIP3    H123651   4.743   3.747  11.663 -0.2997 -0.5088 -0.3761
  720TIP3    H223652   4.594   3.743  11.687 -0.6027 -2.6283 -2.2264
  721TIP3   OH223653   2.587   5.872   5.095  0.3454  0.1320 -0.0163
  721TIP3    H123654   2.562   5.930   5.167  0.1137 -1.5633  1.3293
  721TIP3    H223655   2.504   5.837   5.062  0.5766 -1.1478  0.6999
  722TIP3   OH223656   4.661   4.212  14.005  0.1341 -1.0057  0.5541
  722TIP3    H123657   4.681   4.231  14.096  1.0849  0.6687  0.0324
  722TIP3    H223658   4.627   4.294  13.970  1.0982 -1.2019 -0.9399
  723TIP3   OH223659   1.966   6.699   0.143  0.2811  0.5260 -0.2396
  723TIP3    H123660   1.879   6.723   0.176  0.5065  1.3720 -0.2158
  723TIP3    H223661   2.002   6.641   0.210 -0.5062 -0.3399 -0.5504
  724TIP3   OH223662   3.800   6.006  16.934 -0.3529  0.4072  0.0541
  724TIP3    H123663   3.791   5.992  17.028 -0.2594 -0.2050 -0.0249
  724TIP3    H223664   3.778   5.922  16.895 -0.8650  0.7961 -0.5034
  725TIP3   OH223665   3.067   2.529   1.850 -0.1873 -0.7700 -0.4300
  725TIP3    H123666   3.031   2.497   1.767  0.5748 -0.4249 -0.9023
  725TIP3    H223667   3.161   2.513   1.844 -0.0330 -0.1148  0.0824
  726TIP3   OH223668   1.192   5.343   4.863  0.2443 -0.0497  0.0784
  726TIP3    H123669   1.262   5.342   4.928  1.4515  0.8221 -1.1564
  726TIP3    H223670   1.229   5.297   4.788  0.0567  1.6542 -1.1082
  727TIP3   OH223671   4.630   3.096   0.870  0.2733 -0.5439  0.4327
  727TIP3    H123672   4.686   3.076   0.795  1.4228  1.5130  0.6597
  727TIP3    H223673   4.593   3.182   0.850  1.2324  0.4276  2.4920
  728TIP3   OH223674   5.770   2.497   3.581  0.4079 -0.7817  0.1937
  728TIP3    H123675   5.858   2.492   3.544  0.9138 -1.3902  1.4419
  728TIP3    H223676   5.725   2.421   3.543  0.6823 -0.9573  0.2110
  729TIP3   OH223677   5.840   0.071   3.897 -0.1443  0.5122  0.6124
  729TIP3    H123678   5.904   0.075   3.826 -0.9750 -0.8419 -0.2713
  729TIP3    H223679   5.782  -0.001   3.872 -1.3488  0.9837  1.9334
  730TIP3   OH223680   5.088   1.277  14.607 -0.0510  0.1751 -0.5779
  730TIP3    H123681   5.002   1.237  14.623 -0.9586  1.8728 -1.0046
  730TIP3    H223682   5.149   1.220  14.653 -1.5864 -0.2092  1.1284
  731TIP3   OH223683   4.497   4.452  15.675 -0.4229  0.7522  0.3114
  731TIP3    H123684   4.581   4.481  15.712 -0.9006  2.0426  0.4101
  731TIP3    H223685   4.498   4.484  15.585  0.3110 -1.5438 -0.5747
  732TIP3   OH223686   6.150   3.121   3.258 -0.1762 -1.1050  0.6398
  732TIP3    H123687   6.243   3.145   3.263 -0.2806  0.3706 -2.3867
  732TIP3    H223688   6.107   3.181   3.319  0.6135  0.0808  0.0752
  733TIP3   OH223689   0.975   1.336   5.304 -0.4186  0.5375 -0.2231
  733TIP3    H123690   0.893   1.386   5.310  0.0199  1.2030  0.4466
  733TIP3    H223691   0.947   1.246   5.291 -1.2251  1.0606 -2.5180
  734TIP3   OH223692   2.404   4.842   5.750 -0.8961 -0.3473 -0.0245
  734TIP3    H123693   2.321   4.827   5.796 -0.2134  0.1349  1.4467
  734TIP3    H223694   2.422   4.935   5.764  0.0711 -0.5255  0.0170
  735TIP3   OH223695   3.392   0.393   4.889 -0.3127  0.0125 -0.1624
  735TIP3    H123696   3.456   0.323   4.879 -0.7722 -0.5546  0.7607
  735TIP3    H223697   3.313   0.350   4.922  0.6729  1.3807  4.8309
  736TIP3   OH223698   2.459   4.813   4.889  0.0414  0.3939 -0.1151
  736TIP3    H123699   2.548   4.838   4.864  1.2424 -3.3261 -0.1291
  736TIP3    H223700   2.408   4.825   4.809  1.5109 -1.2329 -1.3939
  737TIP3   OH223701   0.011   1.470   2.685  0.2501  0.1897 -0.2512
  737TIP3    H123702  -0.008   1.475   2.592  0.3013 -1.6199 -0.3916
  737TIP3    H223703   0.096   1.425   2.690 -0.4591 -1.1215  0.6767
  738TIP3   OH223704   0.118   3.261  17.037  0.0150  0.5557  0.5295
  738TIP3    H123705   0.036   3.229  16.999 -0.4605  0.9877  1.1599
  738TIP3    H223706   0.185   3.203  17.001 -0.5439  0.2935 -0.1217
  739TIP3   OH223707   5.072   2.631   1.477  0.0072 -0.0468  0.0279
  739TIP3    H123708   5.011   2.689   1.522 -0.6896 -0.4013 -0.4461
  739TIP3    H223709   5.080   2.668   1.389  1.5806  0.8070  0.4804
  740TIP3   OH223710   5.802   0.008  15.350 -0.6018  0.1598  0.1744
  740TIP3    H123711   5.726   0.003  15.291  0.8965 -0.8817 -1.8106
  740TIP3    H223712   5.856  -0.067  15.326  1.0527  0.8360  1.5480
  741TIP3   OH223713   0.695   2.058  16.308 -0.3190 -0.1212  0.0847
  741TIP3    H123714   0.612   2.106  16.315  0.0543  0.5612 -0.0300
  741TIP3    H223715   0.682   1.979  16.361 -1.4661 -0.6418 -0.9339
  742TIP3   OH223716   6.228   6.129  12.767  0.5858 -0.0498  0.1416
  742TIP3    H123717   6.285   6.053  12.752  0.0395 -0.3551 -0.4661
  742TIP3    H223718   6.283   6.192  12.813  1.6476 -0.0432 -1.0708
  743TIP3   OH223719   3.362   0.543  16.937 -0.3694 -0.0840  0.2023
  743TIP3    H123720   3.397   0.574  17.020 -0.2614  0.4297 -0.0292
  743TIP3    H223721   3.439   0.526  16.883 -0.4609  1.1914 -0.3592
  744TIP3   OH223722   4.266   1.118  13.084  0.1153 -0.1797 -0.1861
  744TIP3    H123723   4.280   1.211  13.100  0.6676 -0.4117  0.7927
  744TIP3    H223724   4.348   1.087  13.045  0.4435 -0.5119  0.7392
  745TIP3   OH223725   4.226   6.095  15.564 -0.4570 -0.1263  0.8569
  745TIP3    H123726   4.163   6.025  15.578  0.2352 -0.7377  0.9566
  745TIP3    H223727   4.179   6.175  15.589 -0.7907 -0.6918  2.1160
  746TIP3   OH223728   1.921   6.059  13.718  0.1157 -0.3806  0.0110
  746TIP3    H123729   1.859   5.988  13.739 -1.8113  0.9772 -0.8020
  746TIP3    H223730   1.971   6.025  13.643 -0.6393 -0.9942 -0.2370
  747TIP3   OH223731   0.801   0.799   2.289  0.2524  0.4428 -0.0948
  747TIP3    H123732   0.816   0.825   2.199  1.1597 -0.8224 -0.3371
  747TIP3    H223733   0.835   0.710   2.295 -1.8991 -0.3898  0.9056
  748TIP3   OH223734   0.915   5.777  12.836  0.1312 -0.0728 -0.5722
  748TIP3    H123735   0.920   5.786  12.741 -2.4829 -2.0156 -0.9973
  748TIP3    H223736   0.898   5.865  12.868  0.3991  0.5105 -1.9633
  749TIP3   OH223737   2.443   1.535   6.079 -0.2345 -0.0741  0.1517
  749TIP3    H123738   2.428   1.627   6.099 -0.2028 -0.0104 -0.1211
  749TIP3    H223739   2.521   1.534   6.024 -0.4878 -0.2256 -0.2056
  750TIP3   OH223740   3.668   0.033  13.665 -0.2503  0.1088  0.5518
  750TIP3    H123741   3.599  -0.033  13.659  0.7592 -0.8487 -2.3918
  750TIP3    H223742   3.747  -0.017  13.688  0.0407  0.6817  0.8095
  751TIP3   OH223743   0.661   5.643   3.778  0.7761 -0.8484  0.1636
  751TIP3    H123744   0.704   5.588   3.712  2.1939  0.4956 -0.0942
  751TIP3    H223745   0.620   5.713   3.727  3.0690  1.0023  0.6977
  752TIP3   OH223746   3.123   5.314   6.629  0.5915  0.2841  0.6817
  752TIP3    H123747   3.127   5.262   6.710  1.0215  0.7521  0.9667
  752TIP3    H223748   3.089   5.253   6.564 -2.5571  0.6753  1.8223
  753TIP3   OH223749   6.715   6.837   0.278 -0.2159  0.2036 -0.8022
  753TIP3    H123750   6.780   6.775   0.245  1.1576  1.3452 -0.3351
  753TIP3    H223751   6.637   6.784   0.293  0.2715 -1.0308 -2.3042
  754TIP3   OH223752   0.673   4.844  15.786 -0.2321  0.2815  0.2876
  754TIP3    H123753   0.636   4.898  15.855 -2.2885  0.2892 -0.7406
  754TIP3    H223754   0.662   4.754  15.816 -1.7509  0.2529 -0.2608
  755TIP3   OH223755   6.279   2.752   1.900  0.2885  0.2204 -0.4489
  755TIP3    H123756   6.325   2.835   1.904 -0.8365  1.0005 -2.3060
  755TIP3    H223757   6.243   2.740   1.987 -0.8430  2.4935 -0.5430
  756TIP3   OH223758   4.903   1.616   2.346 -0.0011 -0.2383  0.2294
  756TIP3    H123759   4.948   1.645   2.425  0.9991 -0.9648 -0.0429
  756TIP3    H223760   4.857   1.536   2.373 -0.0834 -0.1989  0.2051
  757TIP3   OH223761   6.444   6.788  12.838  0.3602 -0.3483  0.0740
  757TIP3    H123762   6.487   6.813  12.919 -1.1696 -1.6121  1.3396
  757TIP3    H223763   6.489   6.709  12.809  1.7174  0.7789 -1.0413
  758TIP3   OH223764   2.707   4.534   1.204 -0.2418 -0.3391  0.7731
  758TIP3    H123765   2.795   4.497   1.195 -0.3456 -0.3576 -0.2312
  758TIP3    H223766   2.702   4.601   1.136 -0.1560  1.3787  2.3782
  759TIP3   OH223767   0.380   5.670  11.942 -0.5622  0.1787  0.2853
  759TIP3    H123768   0.423   5.709  12.018  0.3657 -0.7967  0.2791
  759TIP3    H223769   0.452   5.637  11.888 -1.2975 -1.4753  0.2595
  760TIP3   OH223770   3.183   4.914   3.224  0.5294  0.1059 -0.6098
  760TIP3    H123771   3.105   4.918   3.279  0.8317 -0.1182 -0.1585
  760TIP3    H223772   3.172   4.985   3.161 -1.0253 -1.2019 -1.8938
  761TIP3   OH223773   5.167   3.731   2.337  0.4306 -0.2625  0.3258
  761TIP3    H123774   5.223   3.807   2.351  0.5611 -0.1960 -0.5205
  761TIP3    H223775   5.078   3.765   2.349  0.4363  0.2474 -0.9795
  762TIP3   OH223776   5.889   5.568  15.453  0.1706 -0.4349 -0.0677
  762TIP3    H123777   5.971   5.603  15.418  0.1682 -0.4049 -0.0432
  762TIP3    H223778   5.834   5.556  15.375 -0.1061  0.3551 -0.0042
  763TIP3   OH223779   0.228   6.734   5.631  0.3895  0.1183  0.1392
  763TIP3    H123780   0.320   6.722   5.610  0.7731  1.6725  0.8008
  763TIP3    H223781   0.227   6.799   5.701 -1.2013 -0.0198  0.2920
  764TIP3   OH223782   1.176   4.835  15.255 -0.0337 -0.0725 -0.2772
  764TIP3    H123783   1.177   4.820  15.349  1.1258 -1.3672 -0.4777
  764TIP3    H223784   1.159   4.749  15.216  1.0906  0.1416 -1.2975
  765TIP3   OH223785   3.021   3.911   3.605 -0.2938 -0.0358 -0.1727
  765TIP3    H123786   3.089   3.975   3.626 -2.0688  1.6566  0.8198
  765TIP3    H223787   3.051   3.869   3.525  0.6371  2.6218 -1.3326
  766TIP3   OH223788   3.536   0.148   6.370  0.8204  0.4955 -0.1339
  766TIP3    H123789   3.626   0.139   6.340  0.3190 -0.4907 -1.4392
  766TIP3    H223790   3.520   0.070   6.425  0.4410  0.0848 -0.8123
  767TIP3   OH223791   4.963   0.083   5.324  0.1207 -0.6371 -0.1144
  767TIP3    H123792   4.999   0.172   5.329 -1.1153 -0.0382 -1.1768
  767TIP3    H223793   4.915   0.071   5.406 -1.8438  0.7095 -0.9754
  768TIP3   OH223794   6.644   1.579   0.048 -0.5632  0.1740  0.5314
  768TIP3    H123795   6.597   1.656   0.016 -0.1404 -0.0820 -0.7686
  768TIP3    H223796   6.599   1.555   0.129 -1.6679  0.8648  0.1381
  769TIP3   OH223797   0.091   1.109  14.901 -0.5417  0.0633  0.3133
  769TIP3    H123798   0.053   1.027  14.870 -1.7598  0.9383 -0.6145
  769TIP3    H223799   0.033   1.138  14.971  2.0620 -1.7777  3.4938
  770TIP3   OH223800   5.555   0.804   2.779  0.2837 -0.2367 -0.0348
  770TIP3    H123801   5.470   0.814   2.822 -0.4730 -0.1016 -1.4916
  770TIP3    H223802   5.575   0.891   2.745  2.2756  0.3762  2.4645
  771TIP3   OH223803   0.119   6.220  12.304 -0.2325 -0.0159 -0.0397
  771TIP3    H123804   0.051   6.275  12.344  0.7587  1.8715 -0.8174
  771TIP3    H223805   0.185   6.210  12.373 -0.1039  0.3625 -0.1034
  772TIP3   OH223806   5.960   5.724   1.726  0.8394  0.2045 -0.1131
  772TIP3    H123807   5.958   5.629   1.741  0.7072  0.2640  0.2633
  772TIP3    H223808   6.002   5.760   1.804 -1.1508  0.6442  0.8322
  773TIP3   OH223809   5.447   6.693   3.407 -0.7274  0.3980 -0.2464
  773TIP3    H123810   5.375   6.750   3.435 -2.2071 -0.9894 -1.0501
  773TIP3    H223811   5.409   6.639   3.337  1.5796  0.7315 -1.8550
  774TIP3   OH223812   6.664   1.932  14.998  0.3611 -0.2189 -0.8635
  774TIP3    H123813   6.705   1.856  15.038  1.3074  0.7679  0.1213
  774TIP3    H223814   6.624   1.979  15.072 -0.6411 -0.0082 -1.5162
  775TIP3   OH223815   0.882   1.539  16.220  0.2225  0.6471  0.2599
  775TIP3    H123816   0.882   1.519  16.126  0.6901 -0.8724  0.5513
  775TIP3    H223817   0.968   1.509  16.250 -0.2695  0.2823  1.3348
  776TIP3   OH223818   6.211   4.061   3.851  0.6634  1.0209 -0.1479
  776TIP3    H123819   6.227   4.072   3.757 -0.9979  0.0161 -0.5793
  776TIP3    H223820   6.210   3.966   3.864  0.9858  1.1529  0.9227
  777TIP3   OH223821   1.309   5.567  13.545  0.0128  0.2947  0.3677
  777TIP3    H123822   1.299   5.609  13.459  1.4567  0.5197  0.2860
  777TIP3    H223823   1.220   5.547  13.572 -0.5142  0.8152 -0.8941
  778TIP3   OH223824   0.470   5.193   5.447 -0.0461  0.2986  0.1197
  778TIP3    H123825   0.439   5.116   5.400  0.0747  0.7164 -0.6572
  778TIP3    H223826   0.498   5.159   5.533 -0.1293 -0.4945 -0.1585
  779TIP3   OH223827   0.612   1.757  12.768 -0.1401 -0.1633  0.4974
  779TIP3    H123828   0.530   1.750  12.817  0.2510 -0.8707  1.0812
  779TIP3    H223829   0.630   1.668  12.739  0.2412  0.0509  0.0653
  780TIP3   OH223830   0.770   5.961   1.422 -0.5457  0.1034  0.2265
  780TIP3    H123831   0.853   5.916   1.441  0.1454  1.5067  0.6283
  780TIP3    H223832   0.712   5.891   1.394  0.8496 -0.8863 -0.3285
  781TIP3   OH223833   2.540   1.428  14.218 -0.1389  0.0160 -0.5856
  781TIP3    H123834   2.558   1.483  14.294 -0.9393  1.0809 -1.1467
  781TIP3    H223835   2.626   1.396  14.191  0.0872 -1.0977  1.2646
  782TIP3   OH223836   3.504   1.805   6.213 -0.0646 -0.1761  0.3098
  782TIP3    H123837   3.458   1.845   6.287 -0.5784 -3.1594  1.7160
  782TIP3    H223838   3.597   1.814   6.234 -0.0865  1.4891 -0.1417
  783TIP3   OH223839   0.875   4.008   0.063 -0.0383 -0.2714  0.2578
  783TIP3    H123840   0.849   4.053  -0.018  2.3992  1.0793  0.1413
  783TIP3    H223841   0.822   4.051   0.131  0.6605  1.3122 -0.1475
  784TIP3   OH223842   0.313   3.869  14.506  0.1034 -0.7402 -0.1135
  784TIP3    H123843   0.283   3.924  14.434  1.3319 -0.9613 -0.8242
  784TIP3    H223844   0.283   3.914  14.585  0.3928  0.5334 -0.7033
  785TIP3   OH223845   4.376   0.066   2.510  0.0883  0.5624  0.4205
  785TIP3    H123846   4.421   0.150   2.518  0.5053  0.5282 -1.1733
  785TIP3    H223847   4.445   0.004   2.489 -0.3253 -0.0433  0.8271
  786TIP3   OH223848   5.419   4.884   2.414  0.0092  0.0760 -0.3612
  786TIP3    H123849   5.478   4.944   2.458 -0.1668  0.7017 -0.9552
  786TIP3    H223850   5.395   4.820   2.481  0.8146  0.2077  0.0638
  787TIP3   OH223851   6.560   3.969   0.995  0.5651  0.5286  0.6987
  787TIP3    H123852   6.474   3.931   1.012  0.8346  0.6577  2.5998
  787TIP3    H223853   6.622   3.908   1.036  1.3301  0.7708 -0.0693
  788TIP3   OH223854   3.540   6.475  13.717 -0.3623 -0.2527  0.0724
  788TIP3    H123855   3.534   6.417  13.794  1.5762  0.4095  0.8082
  788TIP3    H223856   3.592   6.425  13.654 -1.6265 -0.6428 -0.6759
  789TIP3   OH223857   0.471   6.094  12.256  0.0574 -0.2297 -0.2571
  789TIP3    H123858   0.443   6.089  12.164 -2.3733  0.5271  0.3792
  789TIP3    H223859   0.509   6.182  12.265 -0.9968  0.2352 -0.2329
  790TIP3   OH223860   3.788   5.550   0.724  0.2651  0.2529 -0.8244
  790TIP3    H123861   3.822   5.534   0.635 -0.6966  1.0882 -1.3622
  790TIP3    H223862   3.866   5.573   0.775  0.7322  0.5744 -1.6521
  791TIP3   OH223863   5.577   6.384  15.977  0.1309 -0.0231  0.4173
  791TIP3    H123864   5.623   6.370  16.059  1.4086  0.8762 -0.1217
  791TIP3    H223865   5.574   6.479  15.966  0.3050 -0.1267 -0.7353
  792TIP3   OH223866   2.580   3.855  15.621  0.2053 -0.6257  0.2800
  792TIP3    H123867   2.658   3.907  15.641 -1.7328  1.8158  2.2100
  792TIP3    H223868   2.564   3.869  15.528 -0.2375  2.3694  0.7300
  793TIP3   OH223869   4.709   3.971  11.889 -0.6991 -0.1431 -0.6493
  793TIP3    H123870   4.683   3.970  11.981  0.0614  0.4269 -0.4222
  793TIP3    H223871   4.804   3.960  11.890 -0.5006  1.2876 -1.2763
  794TIP3   OH223872   0.485   4.138  14.765 -0.2819  0.1411  0.3241
  794TIP3    H123873   0.507   4.083  14.840  1.5368  0.0574 -0.2208
  794TIP3    H223874   0.555   4.120  14.701 -1.1674  1.0430 -0.9468
  795TIP3   OH223875   1.523   0.001   3.859  0.0284  0.4468 -0.0290
  795TIP3    H123876   1.453  -0.061   3.879  0.3256  0.0045 -0.3696
  795TIP3    H223877   1.601  -0.035   3.902  0.2223  0.5391 -0.3047
  796TIP3   OH223878   0.260   3.015   5.343  0.1018  0.1764  0.5179
  796TIP3    H123879   0.294   3.102   5.363 -2.3669  1.1410  0.9353
  796TIP3    H223880   0.297   2.994   5.257  2.0510  0.8817  1.1544
  797TIP3   OH223881   5.055   5.581  15.295  0.4434  0.0834 -0.7465
  797TIP3    H123882   5.019   5.587  15.384  0.4442 -1.5751 -0.6043
  797TIP3    H223883   4.979   5.592  15.238  0.1502 -0.6427 -0.5002
  798TIP3   OH223884   4.698   2.259   3.818 -0.6056 -0.1810  0.3570
  798TIP3    H123885   4.632   2.192   3.834 -2.7971  1.2312 -1.9340
  798TIP3    H223886   4.667   2.335   3.867 -0.0763  0.1782  0.1440
  799TIP3   OH223887   0.839   1.650   4.387 -0.0963 -0.5272  0.3407
  799TIP3    H123888   0.893   1.685   4.316 -1.0361 -0.5391 -0.3921
  799TIP3    H223889   0.896   1.655   4.465  0.4858  0.7453 -0.1385
  800TIP3   OH223890   5.652   0.577  16.503 -0.1648 -0.1949 -0.3054
  800TIP3    H123891   5.649   0.559  16.409  1.1395 -2.1858 -0.0178
  800TIP3    H223892   5.731   0.534  16.533 -1.4908 -1.1835  2.0281
  801TIP3   OH223893   5.153   1.825  15.126 -0.5611  0.1307  0.1795
  801TIP3    H123894   5.097   1.899  15.106  0.7608  1.7501  2.0586
  801TIP3    H223895   5.114   1.786  15.205 -0.6018 -0.4872 -0.1359
  802TIP3   OH223896   6.831   0.907  15.830 -0.3928  0.3478  0.2060
  802TIP3    H123897   6.877   0.934  15.751  0.2727  0.4239  0.6112
  802TIP3    H223898   6.877   0.828  15.859 -0.2710  0.6458  0.8296
  803TIP3   OH223899   5.929   2.159  13.866 -0.1933 -0.2772 -0.0278
  803TIP3    H123900   5.891   2.152  13.778  0.0944  1.6721 -0.3361
  803TIP3    H223901   5.873   2.222  13.911  2.0026  1.8752 -0.1480
  804TIP3   OH223902   6.177   2.759  14.859 -0.2406  0.0024 -0.5712
  804TIP3    H123903   6.151   2.672  14.889 -1.9732  0.5529 -0.3303
  804TIP3    H223904   6.094   2.806  14.849  0.6736  1.7548 -0.3102
  805TIP3   OH223905   2.055   6.020  14.868  0.1362  0.4487  0.0556
  805TIP3    H123906   1.977   6.075  14.858 -0.1075  0.2009  0.5242
  805TIP3    H223907   2.077   6.027  14.961 -0.1320 -0.5352  0.2133
  806TIP3   OH223908   5.676   0.028  14.802  0.0065 -0.6926 -0.2024
  806TIP3    H123909   5.669   0.116  14.840 -1.3148 -0.8759  0.0279
  806TIP3    H223910   5.758   0.030  14.753  0.5743  0.3003  0.7356
  807TIP3   OH223911   6.077   3.457  14.916  0.2828  0.7415 -0.2271
  807TIP3    H123912   6.050   3.398  14.986  0.2415  0.7682 -0.2197
  807TIP3    H223913   6.023   3.432  14.841 -0.7446  1.6605  0.1616
  808TIP3   OH223914   5.979   0.971  15.151  0.5700  0.0595 -0.1009
  808TIP3    H123915   5.926   0.999  15.226  3.0803  0.1576  1.7481
  808TIP3    H223916   5.936   0.890  15.121 -0.9523  0.4523  0.9210
  809TIP3   OH223917   3.404   0.192  12.795  0.2036 -0.0628 -0.5491
  809TIP3    H123918   3.343   0.174  12.867  0.1303 -1.1638 -0.8590
  809TIP3    H223919   3.350   0.188  12.717  0.6974 -1.3495 -0.8536
  810TIP3   OH223920   3.873   6.566   0.692 -0.2460 -0.6205 -0.2343
  810TIP3    H123921   3.891   6.550   0.785 -2.7974 -0.4939  0.3656
  810TIP3    H223922   3.795   6.622   0.692 -0.7601 -1.2294 -2.4525
  811TIP3   OH223923   3.572   2.722  16.382  0.0708 -0.3278  0.1221
  811TIP3    H123924   3.636   2.779  16.425  0.1834 -0.2106 -0.1943
  811TIP3    H223925   3.487   2.761  16.403  0.1126 -0.3752  0.3859
  812TIP3   OH223926   4.075   6.605   4.871 -0.6754 -0.0256  0.0188
  812TIP3    H123927   4.118   6.585   4.954 -1.6464  1.8609  1.0399
  812TIP3    H223928   4.099   6.532   4.814  2.0571 -0.1530  1.1593
  813TIP3   OH223929   5.212   5.692  16.623 -0.1596 -0.2448 -0.4651
  813TIP3    H123930   5.169   5.706  16.538 -0.2178 -1.1232 -0.5850
  813TIP3    H223931   5.259   5.610  16.613  1.7804  0.8005 -0.4224
  814TIP3   OH223932   4.283   6.154   4.400  0.2933  0.1239  0.5328
  814TIP3    H123933   4.360   6.100   4.420 -0.0614 -0.7884 -0.4248
  814TIP3    H223934   4.293   6.175   4.307  0.3661  1.6646  0.8623
  815TIP3   OH223935   3.432   2.446  12.656  0.3921  0.4122 -0.1828
  815TIP3    H123936   3.365   2.382  12.632  1.4954 -0.6634 -0.5017
  815TIP3    H223937   3.486   2.455  12.577 -0.1716  2.3179 -0.3815
  816TIP3   OH223938   5.476   2.484  11.403 -0.2974  0.0326  0.2297
  816TIP3    H123939   5.500   2.575  11.384 -0.4708 -0.1501 -0.9649
  816TIP3    H223940   5.384   2.488  11.429 -0.6265  0.0863 -0.9065
  817TIP3   OH223941   1.388   5.357   5.063 -0.3850  0.1093 -0.1661
  817TIP3    H123942   1.385   5.450   5.086  0.3852 -0.3105  1.8475
  817TIP3    H223943   1.482   5.338   5.054 -0.5321 -0.5078 -0.4455
  818TIP3   OH223944   6.330   0.712  16.668  0.3276 -0.0295  0.8058
  818TIP3    H123945   6.343   0.773  16.741 -0.2073 -0.6894  1.4659
  818TIP3    H223946   6.305   0.630  16.710 -2.9260  0.3313 -0.1945
  819TIP3   OH223947   0.965   5.693  15.196  0.5449 -0.2450  0.2187
  819TIP3    H123948   0.937   5.715  15.107  0.7149  0.4604  0.3320
  819TIP3    H223949   0.905   5.624  15.224  1.0868 -1.1609 -0.7894
  820TIP3   OH223950   0.335   2.842   2.378  0.2089  0.9544 -0.2049
  820TIP3    H123951   0.283   2.774   2.423 -0.7646  1.9079  0.1517
  820TIP3    H223952   0.353   2.804   2.292  0.4097 -0.1012  0.2845
  821TIP3   OH223953   5.715   4.537   4.462 -0.1552  0.1829  0.3741
  821TIP3    H123954   5.736   4.444   4.458  2.5604  0.7265 -0.1540
  821TIP3    H223955   5.763   4.575   4.388  0.5310  2.2804  1.8229
  822TIP3   OH223956   1.008   2.210   3.703 -0.2151  0.1657 -0.4699
  822TIP3    H123957   1.027   2.191   3.611 -0.1800 -0.8972 -0.2561
  822TIP3    H223958   0.976   2.127   3.738  0.7153  0.2850  0.7204
  823TIP3   OH223959   6.082   2.270  12.413 -0.1311 -0.6931  0.5514
  823TIP3    H123960   6.033   2.344  12.377 -0.1215  0.0305  1.9586
  823TIP3    H223961   6.015   2.205  12.435 -0.1829 -0.9095 -0.2140
  824TIP3   OH223962   0.976   5.575  10.784  0.0901 -0.0758  0.0603
  824TIP3    H123963   1.020   5.495  10.756  1.3115  0.8690 -0.8354
  824TIP3    H223964   0.895   5.545  10.825  0.9501 -1.8046  0.5773
  825TIP3   OH223965   4.711   1.579   4.710  0.5256  0.1845  0.0151
  825TIP3    H123966   4.739   1.508   4.652  2.4591  0.9300 -0.0442
  825TIP3    H223967   4.620   1.596   4.685  1.1409  0.1439 -2.4539
  826TIP3   OH223968   1.178   6.684  14.922 -0.7412 -0.1938 -0.1812
  826TIP3    H123969   1.250   6.624  14.901 -1.6689 -1.1369 -0.7106
  826TIP3    H223970   1.214   6.739  14.992  0.8481  0.0325 -1.1215
  827TIP3   OH223971   3.277   1.388  12.917 -0.5925 -0.4239 -0.2076
  827TIP3    H123972   3.241   1.447  12.983 -0.2506 -1.9519  1.4238
  827TIP3    H223973   3.324   1.446  12.856 -2.2117  1.1731 -0.0164
  828TIP3   OH223974   5.421   4.588  14.300 -0.0148  0.5230  0.2218
  828TIP3    H123975   5.333   4.588  14.338  0.1724 -0.0136  0.6731
  828TIP3    H223976   5.418   4.655  14.232 -2.2119 -2.6408 -3.1344
  829TIP3   OH223977   6.087   1.951   5.430 -0.2131  0.4224  0.2554
  829TIP3    H123978   6.027   2.021   5.456 -0.7520 -0.3122  1.0230
  829TIP3    H223979   6.154   1.949   5.499 -0.7944 -0.5069  0.8245
  830TIP3   OH223980   3.036   5.625  11.186 -0.1061  0.2556 -0.5520
  830TIP3    H123981   3.074   5.564  11.123 -0.2773  1.0464 -1.4236
  830TIP3    H223982   2.942   5.624  11.167 -0.1732  0.4307 -0.2413
  831TIP3   OH223983   0.292   3.415   2.435  0.4633  0.5778  0.4985
  831TIP3    H123984   0.272   3.442   2.345 -2.0661 -0.3089  0.7065
  831TIP3    H223985   0.283   3.495   2.487  4.1393  1.6284 -0.1682
  832TIP3   OH223986   3.161   6.593   3.572  0.1194  0.2878 -0.1647
  832TIP3    H123987   3.088   6.654   3.559  0.6010  0.6094 -1.4629
  832TIP3    H223988   3.126   6.508   3.546 -0.0837  0.2681  0.1646
  833TIP3   OH223989   3.854   5.732   0.258  0.0230 -0.0081 -0.0972
  833TIP3    H123990   3.948   5.725   0.275  0.1121  2.1635  0.6382
  833TIP3    H223991   3.832   5.651   0.212  2.1673 -0.7378  0.0318
  834TIP3   OH223992   0.746   1.014  11.554 -0.0010  0.4658  0.1828
  834TIP3    H123993   0.823   1.060  11.522 -0.6109 -1.3842 -4.7148
  834TIP3    H223994   0.677   1.080  11.556  0.2117  0.8356 -2.1766
  835TIP3   OH223995   6.548   5.392  10.788 -0.1873  0.1879 -0.0806
  835TIP3    H123996   6.642   5.376  10.782 -0.0931  0.3460  0.8647
  835TIP3    H223997   6.516   5.379  10.699  0.6633 -0.2770 -0.3278
  836TIP3   OH223998   0.581   6.026  12.508  0.0577  0.1582  0.5153
  836TIP3    H123999   0.575   6.121  12.519 -2.5259 -0.0478  1.5687
  836TIP3    H224000   0.536   6.008  12.426  2.3553 -0.0526 -0.7831
  837TIP3   OH224001   4.510   6.203   6.064  0.1735 -0.7926  1.3675
  837TIP3    H124002   4.507   6.122   6.115 -0.4328 -0.5975  1.6510
  837TIP3    H224003   4.534   6.270   6.128  0.5394 -0.7230  1.1611
  838TIP3   OH224004   3.236   3.986  13.983  0.4474 -0.1671 -0.0734
  838TIP3    H124005   3.212   4.078  13.998  2.3402  0.4833 -0.6410
  838TIP3    H224006   3.161   3.936  14.015 -1.0143  1.5967 -0.5650
  839TIP3   OH224007   1.552   0.320  11.884  0.5186 -0.0087 -0.0976
  839TIP3    H124008   1.615   0.392  11.896 -0.1606  1.3484 -3.5051
  839TIP3    H224009   1.584   0.274  11.807 -0.5983 -1.7065  0.4099
  840TIP3   OH224010   4.622   6.701  13.301 -0.2714  0.4487  0.1804
  840TIP3    H124011   4.594   6.742  13.219 -1.5474 -0.7246  0.0023
  840TIP3    H224012   4.545   6.707  13.358  0.4796  0.9049  1.1693
  841TIP3   OH224013   1.827   4.893   4.665  0.2949  0.6171 -0.2003
  841TIP3    H124014   1.750   4.841   4.640 -0.0861 -0.4900  2.9033
  841TIP3    H224015   1.901   4.833   4.654  0.2980  0.5787  0.0374
  842TIP3   OH224016   0.823   5.945   1.829  0.2722 -0.2205  0.3848
  842TIP3    H124017   0.733   5.973   1.846 -0.1379 -1.4164  0.2693
  842TIP3    H224018   0.854   6.006   1.762 -1.0256 -0.7702 -0.7859
  843TIP3   OH224019   4.985   4.514  15.991 -0.2708 -0.0475  0.0246
  843TIP3    H124020   5.075   4.521  16.023  0.5186 -2.5820 -1.3814
  843TIP3    H224021   4.939   4.587  16.033  2.3762  1.2503  0.8813
  844TIP3   OH224022   5.387   4.866  17.082 -0.0449  0.3978  0.4940
  844TIP3    H124023   5.404   4.780  17.044  1.4316  1.1160 -0.5818
  844TIP3    H224024   5.471   4.892  17.120 -0.6540  1.0922  1.3986
  845TIP3   OH224025   4.211   3.236  15.728  0.4609  0.7713  0.0277
  845TIP3    H124026   4.292   3.287  15.734  0.6766  0.3082  1.5423
  845TIP3    H224027   4.196   3.225  15.634  2.1903  0.8044 -0.2801
  846TIP3   OH224028   4.513   3.125   3.724  0.0461 -0.4307  0.1506
  846TIP3    H124029   4.587   3.095   3.671  2.1329 -0.1149  2.6893
  846TIP3    H224030   4.471   3.044   3.753 -0.8565 -0.6102 -1.5397
  847TIP3   OH224031   1.157   5.040  11.645 -0.4179  0.3169 -1.0924
  847TIP3    H124032   1.119   5.022  11.559  0.6857  1.2080 -1.7885
  847TIP3    H224033   1.081   5.054  11.702 -1.1524  0.2149 -2.0288
  848TIP3   OH224034   3.912   1.834   0.392 -0.0211  0.3521  0.2232
  848TIP3    H124035   3.895   1.928   0.388 -0.0366  0.3849  0.8905
  848TIP3    H224036   3.976   1.818   0.322 -0.3336  0.7831 -0.1666
  849TIP3   OH224037   3.011   4.285  16.413 -0.0718 -0.3431 -0.5203
  849TIP3    H124038   3.098   4.302  16.377  0.2268 -1.4427 -0.3615
  849TIP3    H224039   3.022   4.296  16.507  0.1420 -1.3867 -0.4089
  850TIP3   OH224040   1.940   5.079  14.540 -0.4618  0.0611 -0.2897
  850TIP3    H124041   1.912   5.107  14.627  0.3569 -2.9381  1.0436
  850TIP3    H224042   1.861   5.045  14.499 -0.9585  1.9464 -0.9978
  851TIP3   OH224043   0.315   1.577  12.414 -0.2310 -0.2001  0.4717
  851TIP3    H124044   0.326   1.667  12.382 -1.3402  0.1755  1.0679
  851TIP3    H224045   0.240   1.582  12.473 -0.2120 -1.4988  0.6392
  852TIP3   OH224046   0.850   5.708  10.576  0.1344  0.0795  0.6700
  852TIP3    H124047   0.918   5.715  10.509  0.2476 -0.3565  0.7363
  852TIP3    H224048   0.892   5.661  10.648 -0.0416  0.3840  0.9753
  853TIP3   OH224049   0.222   1.007  15.353  0.4250  0.1406  0.1544
  853TIP3    H124050   0.281   0.947  15.306 -0.9941 -0.3278 -1.0901
  853TIP3    H224051   0.274   1.086  15.365  1.2553 -0.1837 -1.0849
  854TIP3   OH224052   1.217   0.947   0.657  0.2114  0.3373  0.0983
  854TIP3    H124053   1.198   0.981   0.744  2.1539  0.8647  0.3623
  854TIP3    H224054   1.309   0.922   0.660 -0.7570 -3.9738 -0.4361
  855TIP3   OH224055   0.751   4.802   2.705  0.0522 -0.0085 -0.1068
  855TIP3    H124056   0.778   4.711   2.710  0.6152  0.1422 -0.3054
  855TIP3    H224057   0.718   4.813   2.616  0.5568  0.1334 -0.2782
  856TIP3   OH224058   5.424   0.079  15.272 -0.1140 -0.3491  0.4615
  856TIP3    H124059   5.454  -0.009  15.248  0.6380 -0.9016  3.1077
  856TIP3    H224060   5.481   0.138  15.223  0.0326 -1.3342 -0.5905
  857TIP3   OH224061   2.576   2.383  15.577 -0.9512 -0.0370  0.3502
  857TIP3    H124062   2.540   2.415  15.494 -0.4997  0.0669  0.1879
  857TIP3    H224063   2.660   2.428  15.585 -0.3449 -1.1032  0.1631
  858TIP3   OH224064   5.811   6.706  16.575 -0.2012  0.4484  0.6851
  858TIP3    H124065   5.715   6.701  16.576 -0.1447 -1.0960  0.4075
  858TIP3    H224066   5.836   6.700  16.667 -0.3714  1.7603  0.8472
  859TIP3   OH224067   5.110   3.043  12.133  0.1928 -0.9871 -0.1892
  859TIP3    H124068   5.113   3.029  12.228  0.5521  0.2516  0.0060
  859TIP3    H224069   5.198   3.020  12.103 -0.5375 -3.5372 -0.5969
  860TIP3   OH224070   2.629   0.014  11.997  0.3204  0.3475  0.2128
  860TIP3    H124071   2.589   0.057  11.922  0.7348 -0.1206 -0.2749
  860TIP3    H224072   2.711  -0.022  11.964  0.7193  0.5098  0.9869
  861TIP3   OH224073   2.637   2.009   2.332  0.1481  0.1650  0.1302
  861TIP3    H124074   2.594   1.948   2.391 -0.0481  0.6470  0.4934
  861TIP3    H224075   2.571   2.075   2.313  0.9864  1.4667  1.4882
  862TIP3   OH224076   2.959   6.419  11.249  0.1828 -0.6063  0.0987
  862TIP3    H124077   2.986   6.417  11.340  0.2058 -2.1818  0.0835
  862TIP3    H224078   3.017   6.357  11.205 -0.4675 -0.6103 -0.8011
  863TIP3   OH224079   3.472   2.308   0.703 -0.0542  0.2526  0.9815
  863TIP3    H124080   3.477   2.268   0.790 -0.2817  0.8244  1.2672
  863TIP3    H224081   3.529   2.254   0.648 -0.7132 -0.7249  1.2395
  864TIP3   OH224082   0.463   6.623   4.964  0.0794 -0.0927 -0.1402
  864TIP3    H124083   0.528   6.690   4.944  1.6858 -0.5017  3.0159
  864TIP3    H224084   0.379   6.669   4.960  0.8875  1.4103 -0.6658
  865TIP3   OH224085   5.398   6.076   4.825 -0.6495 -0.0893  0.3134
  865TIP3    H124086   5.342   5.999   4.839 -0.9047 -0.5071 -2.3928
  865TIP3    H224087   5.487   6.043   4.833 -0.7690 -0.3720  0.4758
  866TIP3   OH224088   6.762   2.867   4.780  0.7771  0.5432 -0.1837
  866TIP3    H124089   6.818   2.937   4.816 -0.6666  1.1148  1.0780
  866TIP3    H224090   6.673   2.900   4.792  0.1308 -0.5946 -1.6097
  867TIP3   OH224091   1.482   5.618  14.655 -0.3426  0.4926 -0.2800
  867TIP3    H124092   1.418   5.658  14.596  0.6034  2.1719 -0.2122
  867TIP3    H224093   1.468   5.661  14.740  0.9256  0.9755 -0.2900
  868TIP3   OH224094   2.327   5.171  11.042  0.7101 -0.2126 -0.5881
  868TIP3    H124095   2.414   5.169  11.080  0.6956 -0.8904 -0.5727
  868TIP3    H224096   2.339   5.215  10.957  1.3801 -1.7288 -1.3185
  869TIP3   OH224097   6.329   3.917   0.247 -0.2384  0.5632  0.9526
  869TIP3    H124098   6.246   3.908   0.294 -1.0171 -1.0094 -0.6086
  869TIP3    H224099   6.396   3.906   0.315 -1.2981  0.7837  2.0655
  870TIP3   OH224100   4.033   6.683  16.604 -0.4604 -0.3951  0.1671
  870TIP3    H124101   4.067   6.729  16.527  0.9762 -0.7682  0.5463
  870TIP3    H224102   4.052   6.742  16.677 -1.7656 -0.0668  0.2645
  871TIP3   OH224103   3.442   4.119   2.917 -0.1140  0.0816 -0.2461
  871TIP3    H124104   3.510   4.065   2.876 -0.7654 -1.4083  0.5601
  871TIP3    H224105   3.367   4.061   2.925 -1.6770  1.8080 -1.4833
  872TIP3   OH224106   1.063   3.021  15.741 -0.4504  0.2762 -0.1520
  872TIP3    H124107   1.032   3.080  15.672 -1.4747  0.4909  0.4694
  872TIP3    H224108   0.985   2.974  15.769  0.2538 -0.9851 -0.2429
  873TIP3   OH224109   6.525   0.763   4.473  0.5581 -0.4648 -0.5199
  873TIP3    H124110   6.458   0.725   4.416  0.4479  0.1093 -0.7776
  873TIP3    H224111   6.483   0.770   4.559 -0.0365  0.7398 -0.8857
  874TIP3   OH224112   0.617   3.845  10.206  0.3331 -0.4655 -0.5390
  874TIP3    H124113   0.588   3.768  10.158 -0.6689  0.0993 -0.8809
  874TIP3    H224114   0.541   3.903  10.207  1.4143  1.0414 -1.3614
  875TIP3   OH224115   4.011   2.552  12.628 -0.0714  0.6640 -0.1709
  875TIP3    H124116   3.918   2.574  12.614 -0.1850  0.9291  0.9424
  875TIP3    H224117   4.056   2.636  12.619 -0.1387  0.8271  0.9453
  876TIP3   OH224118   1.120   3.182   3.057  0.4823  0.1583 -0.1179
  876TIP3    H124119   1.033   3.218   3.041  0.5609 -0.5656 -2.8036
  876TIP3    H224120   1.174   3.258   3.078 -0.8341  0.5552  2.2052
  877TIP3   OH224121   0.561   5.069   0.156 -0.1799  0.4587  0.0095
  877TIP3    H124122   0.626   5.000   0.169 -0.9077  0.1553  2.6365
  877TIP3    H224123   0.613   5.148   0.138  0.7788 -0.1924 -0.1389
  878TIP3   OH224124   3.467   3.068  11.714 -0.1039 -0.3513 -0.5757
  878TIP3    H124125   3.459   3.150  11.665 -1.0410  0.1450  0.3554
  878TIP3    H224126   3.489   3.096  11.803 -0.5556 -1.0959 -0.2257
  879TIP3   OH224127   0.335   3.311   5.372 -0.6651 -0.0750 -0.5634
  879TIP3    H124128   0.342   3.389   5.427 -1.7119  0.1949 -0.7771
  879TIP3    H224129   0.406   3.320   5.308  1.9438 -1.4543  1.9397
  880TIP3   OH224130   1.976   2.554  13.415 -0.1046 -0.4613 -0.9311
  880TIP3    H124131   1.898   2.562  13.469 -0.0363 -0.7438 -0.7872
  880TIP3    H224132   2.008   2.465  13.433  1.8979  0.5920  1.2781
  881TIP3   OH224133   4.219   4.286  16.009  0.1806  0.3003  0.5897
  881TIP3    H124134   4.214   4.382  16.013 -1.4795  0.1975  2.3946
  881TIP3    H224135   4.276   4.262  16.083  0.3420 -0.1220  0.3311
  882TIP3   OH224136   3.967   0.721   2.894 -0.4315  0.2896  0.0081
  882TIP3    H124137   3.969   0.798   2.836  0.1836 -0.3387 -0.8271
  882TIP3    H224138   3.890   0.672   2.864  0.7531 -0.8233 -1.3643
  883TIP3   OH224139   4.727   0.061  13.520 -0.1659 -0.7422  0.2986
  883TIP3    H124140   4.781   0.138  13.503  1.0585 -1.4584  0.7956
  883TIP3    H224141   4.661   0.062  13.451  0.8051 -0.1311 -0.6534
  884TIP3   OH224142   3.610   1.473  11.529 -0.1219  0.6592 -0.3494
  884TIP3    H124143   3.660   1.391  11.529  0.9347  1.2275  1.5100
  884TIP3    H224144   3.672   1.539  11.498  0.7061  1.5219  2.7844
  885TIP3   OH224145   5.560   6.698  11.372  0.5041 -0.6990  0.2111
  885TIP3    H124146   5.498   6.753  11.420 -0.2559 -0.6323 -0.8193
  885TIP3    H224147   5.520   6.686  11.286  0.3478 -3.3696  0.5718
  886TIP3   OH224148   3.537   1.636  12.298 -0.4244  0.3138 -0.6094
  886TIP3    H124149   3.605   1.701  12.316  2.0969 -1.5818 -2.3642
  886TIP3    H224150   3.483   1.635  12.376  1.9605  1.5539  1.1971
  887TIP3   OH224151   1.721   4.813   4.167  0.0972 -0.1368 -0.1701
  887TIP3    H124152   1.691   4.875   4.101 -0.5611 -0.1652  0.0981
  887TIP3    H224153   1.642   4.766   4.195  0.3838 -0.2216  0.5323
  888TIP3   OH224154   2.821   3.819   5.472 -0.2948 -0.3931  0.3151
  888TIP3    H124155   2.755   3.824   5.402 -1.0569 -0.5431  1.0073
  888TIP3    H224156   2.775   3.776   5.545  0.2774  0.3535  1.1364
  889TIP3   OH224157   4.884   4.257   5.189  0.2207  0.3717  0.2384
  889TIP3    H124158   4.850   4.172   5.219  0.3631 -0.4186 -1.7088
  889TIP3    H224159   4.892   4.248   5.094  2.3374  1.8376  0.2141
  890TIP3   OH224160   1.242   3.564   1.794 -0.2286  0.9079 -0.0584
  890TIP3    H124161   1.326   3.603   1.814  0.3765 -0.3690  0.0117
  890TIP3    H224162   1.183   3.638   1.778  1.2743  1.8233 -1.6990
  891TIP3   OH224163   1.435   5.989  14.918 -0.5162  0.2084 -0.0598
  891TIP3    H124164   1.488   6.042  14.858 -0.0128 -2.2280 -1.9191
  891TIP3    H224165   1.344   6.008  14.892 -0.3967  1.0429  0.1120
  892TIP3   OH224166   1.414   1.143   0.874  0.3506  0.1116  0.3656
  892TIP3    H124167   1.337   1.097   0.906  1.1773 -1.6520 -0.0530
  892TIP3    H224168   1.425   1.217   0.934  0.1368 -1.3860  2.3558
  893TIP3   OH224169   4.518   5.136   5.322 -0.1181 -0.3172  0.1496
  893TIP3    H124170   4.524   5.211   5.263 -0.2080 -0.4366 -0.0096
  893TIP3    H224171   4.519   5.175   5.410  0.5270 -0.1747  0.0834
  894TIP3   OH224172   4.670   6.433  11.957  0.5216  0.6206 -0.4848
  894TIP3    H124173   4.587   6.388  11.969  0.0784  1.7785  1.1624
  894TIP3    H224174   4.649   6.507  11.899 -0.2120  2.2621  1.7145
  895TIP3   OH224175   0.529   6.796   1.552  0.4662  0.5522 -0.0470
  895TIP3    H124176   0.447   6.844   1.539  0.9203  1.4337  0.2587
  895TIP3    H224177   0.596   6.851   1.511  0.9502 -0.0173 -0.0368
  896TIP3   OH224178   6.378   1.204  15.560  0.1514  0.1123  0.1281
  896TIP3    H124179   6.322   1.152  15.617  2.6164 -1.0780  1.6363
  896TIP3    H224180   6.396   1.147  15.485 -1.0150  0.7035 -0.6333
  897TIP3   OH224181   1.853   3.583   1.315 -0.4062  0.1962  0.3594
  897TIP3    H124182   1.836   3.597   1.222 -1.3119 -0.7774  0.3676
  897TIP3    H224183   1.767   3.581   1.355  0.0115  2.9452  1.6146
  898TIP3   OH224184   1.716   5.917   2.457  0.4889 -0.3330 -0.1656
  898TIP3    H124185   1.785   5.968   2.416  1.2069  0.3823  1.8108
  898TIP3    H224186   1.636   5.968   2.443  0.3907 -0.9139 -2.0090
  899TIP3   OH224187   5.334   1.771  11.774  0.2924  0.0522 -0.0226
  899TIP3    H124188   5.263   1.835  11.771 -0.4769 -0.7819 -0.2012
  899TIP3    H224189   5.295   1.691  11.740  1.0593 -0.6792  0.7655
  900TIP3   OH224190   5.778   6.153  11.495  0.6642  0.0034  0.2919
  900TIP3    H124191   5.803   6.162  11.587  1.1585  2.2606 -0.0073
  900TIP3    H224192   5.771   6.243  11.463 -1.2214 -0.6929 -1.4441
  901TIP3   OH224193   1.229   2.281  14.747 -0.5653  0.2826 -0.5093
  901TIP3    H124194   1.315   2.258  14.780 -0.7918  0.4806  0.2264
  901TIP3    H224195   1.241   2.368  14.707 -0.7499  1.0200  0.9844
  902TIP3   OH224196   1.769   4.605  16.225  0.1134 -0.1623  0.0004
  902TIP3    H124197   1.824   4.627  16.150  0.3045  0.5239  0.3352
  902TIP3    H224198   1.695   4.557  16.188  0.8430 -0.9509 -0.4763
  903TIP3   OH224199   1.793   4.304   0.462 -0.0903 -0.4069  0.0227
  903TIP3    H124200   1.743   4.237   0.509  0.9671 -1.9321 -0.9412
  903TIP3    H224201   1.863   4.328   0.523 -1.3137  0.9520  0.9515
  904TIP3   OH224202   6.504   5.759   3.673  0.4277  0.3746  0.2847
  904TIP3    H124203   6.582   5.742   3.620  0.5370  0.7517  0.3249
  904TIP3    H224204   6.434   5.774   3.609  0.8863  2.4148  0.2116
  905TIP3   OH224205   3.495   0.711  15.380  0.0260 -0.7328  0.5348
  905TIP3    H124206   3.520   0.801  15.363 -0.3761 -0.5914  0.6827
  905TIP3    H224207   3.563   0.659  15.338 -0.2157 -0.3742 -0.3098
  906TIP3   OH224208   2.795   3.119  15.948 -0.0714 -0.0148 -0.3847
  906TIP3    H124209   2.745   3.039  15.931 -1.6571  0.5956  1.1431
  906TIP3    H224210   2.734   3.190  15.930  1.5845  0.9668 -2.6129
  907TIP3   OH224211   4.076   6.104  15.136  0.2863  0.1458  0.4559
  907TIP3    H124212   4.079   6.184  15.084  2.0649  0.4795  1.0231
  907TIP3    H224213   4.136   6.044  15.092 -1.2152 -1.0040 -0.1110
  908TIP3   OH224214   4.592   6.407   1.299 -0.3236  0.8155  0.1371
  908TIP3    H124215   4.654   6.394   1.227 -0.5033 -2.3099  0.4267
  908TIP3    H224216   4.548   6.489   1.277  2.2601  1.9664 -1.2698
  909TIP3   OH224217   5.523   6.423  14.345  0.0233 -0.2023  0.7845
  909TIP3    H124218   5.449   6.476  14.315  0.3225  0.4825  1.2057
  909TIP3    H224219   5.562   6.475  14.416  1.4357 -0.1173 -0.0028
  910TIP3   OH224220   4.228   6.209   1.046  0.1424 -0.3078 -0.5012
  910TIP3    H124221   4.208   6.293   1.086  2.9376  0.1222  0.1946
  910TIP3    H224222   4.186   6.144   1.102 -0.6306  0.5469 -0.0811
  911TIP3   OH224223   1.234   6.592   5.255 -0.5153  0.3017  0.3717
  911TIP3    H124224   1.296   6.575   5.326 -0.1864 -1.4403 -0.2923
  911TIP3    H224225   1.288   6.629   5.185 -0.8175  1.8917  0.9358
  912TIP3   OH224226   0.845   5.308  11.833 -0.4582 -0.7246 -0.5116
  912TIP3    H124227   0.872   5.221  11.804  0.0819 -0.1148 -1.9290
  912TIP3    H224228   0.806   5.348  11.755 -0.8742  0.2343  0.1703
  913TIP3   OH224229   6.214   6.680   0.450  0.5592 -0.2993 -0.2645
  913TIP3    H124230   6.153   6.688   0.523  0.9708  0.1767  0.0443
  913TIP3    H224231   6.300   6.670   0.492  0.9900  1.4171 -0.6503
  914TIP3   OH224232   0.105   4.295  14.496  0.2088  0.2610 -0.6788
  914TIP3    H124233   0.041   4.253  14.438  0.2314 -0.9234  0.1186
  914TIP3    H224234   0.057   4.368  14.536 -0.7551 -0.7881  0.1301
  915TIP3   OH224235   2.194   1.787  16.948  0.9106  0.0466 -0.3224
  915TIP3    H124236   2.156   1.717  16.894 -1.1000  1.1847 -0.4855
  915TIP3    H224237   2.204   1.861  16.887 -0.8164  1.1576  0.6525
  916TIP3   OH224238   5.791   6.513   2.844 -0.3302 -0.5265 -0.1851
  916TIP3    H124239   5.803   6.608   2.854  1.3011 -0.8292  1.1278
  916TIP3    H224240   5.778   6.501   2.750 -0.1795  0.9726 -0.4292
  917TIP3   OH224241   0.061   0.792   2.252  0.4527  0.6040 -0.0450
  917TIP3    H124242   0.137   0.744   2.285  0.3233  1.9376  2.3784
  917TIP3    H224243   0.083   0.811   2.160  1.6717 -1.6340 -0.2737
  918TIP3   OH224244   3.482   1.013  10.268 -0.1579 -0.9893 -0.3369
  918TIP3    H124245   3.566   1.049  10.298 -0.4540  0.1662 -0.8598
  918TIP3    H224246   3.507   0.944  10.206  0.4010 -0.9852 -0.1245
  919TIP3   OH224247   6.340   0.332   0.832  0.1587 -0.3267  0.1516
  919TIP3    H124248   6.273   0.399   0.847  1.0451  0.8394 -0.8782
  919TIP3    H224249   6.291   0.254   0.806 -0.8402  0.2501  0.2629
  920TIP3   OH224250   6.290   5.644  11.823 -0.4713  0.1435 -0.4231
  920TIP3    H124251   6.264   5.721  11.772 -1.1856 -0.3302 -0.7882
  920TIP3    H224252   6.317   5.580  11.758  0.0197  0.0392 -0.1225
  921TIP3   OH224253   3.658   3.310   0.326 -0.0891  0.6796  0.6082
  921TIP3    H124254   3.587   3.355   0.279  0.3467 -0.5776 -1.3599
  921TIP3    H224255   3.617   3.281   0.408 -2.4207 -1.4076 -1.1257
  922TIP3   OH224256   2.742   1.636   4.999 -0.0035 -0.2558 -0.2292
  922TIP3    H124257   2.748   1.713   5.055  0.8663 -1.0401  0.7865
  922TIP3    H224258   2.719   1.671   4.913 -1.1586  0.9873  0.5398
  923TIP3   OH224259   6.230   5.585  10.737 -0.1540  0.3724 -0.0098
  923TIP3    H124260   6.190   5.668  10.763 -0.8946 -0.1069  0.4247
  923TIP3    H224261   6.302   5.610  10.680 -2.1342  1.2614 -2.3272
  924TIP3   OH224262   2.022   3.424   2.350  0.2258 -0.4565 -0.0748
  924TIP3    H124263   2.089   3.478   2.308 -1.3578  0.5693 -1.3825
  924TIP3    H224264   2.010   3.465   2.436  0.9679 -0.4157  0.0206
  925TIP3   OH224265   6.115   6.701   5.621  0.4787 -0.1942 -0.4505
  925TIP3    H124266   6.088   6.620   5.578  2.0659 -1.1533  0.2826
  925TIP3    H224267   6.158   6.752   5.552  1.6520 -1.0600 -0.3877
  926TIP3   OH224268   3.570   2.351  11.677  0.3477 -0.1664 -0.0397
  926TIP3    H124269   3.573   2.265  11.636  2.6068 -0.8182  1.2643
  926TIP3    H224270   3.489   2.352  11.728 -0.9593 -0.4909 -2.0044
  927TIP3   OH224271   4.277   1.973  11.028 -0.5993 -0.1538  0.5675
  927TIP3    H124272   4.293   2.046  11.086  0.0116  0.0535  0.1406
  927TIP3    H224273   4.253   2.013  10.944 -1.2122 -0.4463  0.5960
  928TIP3   OH224274   2.634   3.578  13.963  0.2695 -0.3794 -0.2668
  928TIP3    H124275   2.602   3.528  13.888  0.0820 -0.4576 -0.1339
  928TIP3    H224276   2.596   3.665  13.952 -2.1656 -1.1554  1.2751
  929TIP3   OH224277   1.729   3.442  13.475  0.4260 -0.3632  0.3048
  929TIP3    H124278   1.789   3.391  13.421  0.4417  1.8962 -2.0019
  929TIP3    H224279   1.785   3.482  13.542  0.7209 -1.7170  0.8905
  930TIP3   OH224280   0.055   2.233  15.823  0.2410  0.1167 -0.4299
  930TIP3    H124281   0.125   2.227  15.758  0.6616  0.0420  0.0287
  930TIP3    H224282   0.043   2.143  15.853 -1.3490 -0.2059 -1.8519
  931TIP3   OH224283   2.322   0.198  11.984  0.3978 -0.0776  0.1246
  931TIP3    H124284   2.404   0.246  11.973  0.0105  0.9337  1.4708
  931TIP3    H224285   2.260   0.243  11.927  0.5103 -0.1607 -0.0627
  932TIP3   OH224286   5.028   4.550   5.448 -0.2233 -0.1301 -0.3822
  932TIP3    H124287   4.940   4.522   5.421 -0.3978  0.9789 -1.0387
  932TIP3    H224288   5.016   4.582   5.538 -0.2699 -0.9745 -0.0839
  933TIP3   OH224289   3.273   1.220  14.444  0.1084 -0.1875 -0.0523
  933TIP3    H124290   3.182   1.212  14.475 -0.2438 -0.7627 -1.1728
  933TIP3    H224291   3.273   1.299  14.390  0.1815 -0.3592 -0.3085
  934TIP3   OH224292   6.099   5.547  12.776  0.2279  0.9278  0.1878
  934TIP3    H124293   6.050   5.519  12.699  1.1901 -2.3003  0.6079
  934TIP3    H224294   6.188   5.514  12.762 -0.0080 -1.5643  3.4157
  935TIP3   OH224295   1.761   0.375  15.833  0.0448  0.0057  0.6341
  935TIP3    H124296   1.785   0.454  15.786  1.3776 -0.7197  0.0429
  935TIP3    H224297   1.669   0.388  15.856  0.3861  1.9581  1.0682
  936TIP3   OH224298   0.326   0.711  15.029  0.3303 -0.5136 -0.2642
  936TIP3    H124299   0.353   0.764  15.104  0.3330 -1.5346  0.4791
  936TIP3    H224300   0.378   0.631  15.036 -0.9882 -1.4173 -0.2880
  937TIP3   OH224301   5.945   5.324  14.644  0.4436  0.5198  0.2647
  937TIP3    H124302   5.956   5.274  14.725  0.8753  1.5409  0.8599
  937TIP3    H224303   5.880   5.391  14.666  1.9264  1.9929  0.3828
  938TIP3   OH224304   3.611   3.363   2.332  0.4490 -0.0454 -0.0304
  938TIP3    H124305   3.679   3.329   2.391 -1.5142 -0.8274  1.9137
  938TIP3    H224306   3.549   3.291   2.324 -1.1696  1.3071 -0.1046
  939TIP3   OH224307   5.122   0.923   1.225  0.2361 -0.4967 -0.0167
  939TIP3    H124308   5.151   0.862   1.292 -0.9520 -1.5057 -0.3867
  939TIP3    H224309   5.031   0.941   1.247  0.2093  0.1657 -0.6324
  940TIP3   OH224310   5.948   3.222  11.339 -0.6602 -0.0734 -0.5093
  940TIP3    H124311   6.019   3.159  11.350 -0.1810  0.1851 -1.9965
  940TIP3    H224312   5.985   3.292  11.287 -1.0380  1.7573  1.5359
  941TIP3   OH224313   6.314   2.388  14.762  0.5437  0.9743 -0.3374
  941TIP3    H124314   6.383   2.329  14.791  0.1428  0.1099 -1.1149
  941TIP3    H224315   6.344   2.475  14.790  0.2294  0.2673  2.5772
  942TIP3   OH224316   2.867   4.788   2.155  0.2526 -0.3981 -0.0023
  942TIP3    H124317   2.915   4.742   2.086  1.3182 -0.6287  0.8625
  942TIP3    H224318   2.834   4.719   2.212 -0.4071 -0.1971 -0.1293
  943TIP3   OH224319   2.917   2.256   4.326  0.3941 -0.3090  0.1719
  943TIP3    H124320   2.916   2.238   4.232 -2.7288 -0.9873  0.2108
  943TIP3    H224321   2.851   2.324   4.339  0.6247 -0.3489  1.8861
  944TIP3   OH224322   0.172   0.712  15.545  0.2521 -0.1054  0.1948
  944TIP3    H124323   0.116   0.739  15.472  1.2586 -0.0660 -0.5872
  944TIP3    H224324   0.111   0.689  15.615 -0.7166  0.7673 -0.3330
  945TIP3   OH224325   1.478   3.794  13.485 -0.8600  0.1958 -0.2252
  945TIP3    H124326   1.565   3.818  13.453  0.0852 -2.3874  0.1628
  945TIP3    H224327   1.481   3.812  13.579 -1.2676  1.4144 -0.4293
  946TIP3   OH224328   0.253   2.031  16.053 -0.4789 -0.4123 -0.0565
  946TIP3    H124329   0.258   1.936  16.063  0.2454 -0.4732 -0.8416
  946TIP3    H224330   0.187   2.059  16.116  1.1429 -1.1407  2.1242
  947TIP3   OH224331   6.144   0.798   5.508  0.4834  0.2141 -0.0495
  947TIP3    H124332   6.190   0.770   5.587 -0.7825  0.5817  0.8482
  947TIP3    H224333   6.061   0.750   5.510  0.3887  0.2989 -1.1208
  948TIP3   OH224334   1.856   3.269   4.644 -0.7373 -0.3742  0.1793
  948TIP3    H124335   1.794   3.255   4.716  0.3721 -0.9177  1.0622
  948TIP3    H224336   1.876   3.362   4.647 -2.3674  0.0522 -0.8618
  949TIP3   OH224337   4.910   2.884   1.914  0.7677 -0.1344 -0.3314
  949TIP3    H124338   5.003   2.858   1.912  1.0920  0.9019  0.4378
  949TIP3    H224339   4.906   2.953   1.980 -0.7053 -0.6870  0.1941
  950TIP3   OH224340   2.217   0.290  12.367 -0.3933 -0.4996  0.0802
  950TIP3    H124341   2.148   0.225  12.355 -2.2013  1.3311 -0.0563
  950TIP3    H224342   2.209   0.347  12.291  2.8698 -1.5053 -1.1837
  951TIP3   OH224343   6.458   4.675   2.693  0.3328 -0.3365  0.4434
  951TIP3    H124344   6.374   4.719   2.703  0.8240  0.9164 -0.6383
  951TIP3    H224345   6.486   4.655   2.782 -0.5890  0.2272  0.8665
  952TIP3   OH224346   1.942   3.672   1.966  0.4010 -0.2070  0.2315
  952TIP3    H124347   2.014   3.695   2.024  1.7090 -0.8487 -1.0634
  952TIP3    H224348   1.885   3.617   2.019  1.5902 -0.8440  0.8882
  953TIP3   OH224349   1.191   0.868   1.860 -0.1753 -0.1604 -0.3369
  953TIP3    H124350   1.248   0.827   1.925  0.0834 -1.2853 -1.2461
  953TIP3    H224351   1.241   0.943   1.828  0.1078 -0.1933  0.0153
  954TIP3   OH224352   0.237   0.147  11.062 -0.1094  0.1876  0.3952
  954TIP3    H124353   0.225   0.056  11.089  0.2296 -0.4328 -1.3762
  954TIP3    H224354   0.184   0.156  10.983  0.6529  1.2132 -0.0315
  955TIP3   OH224355   1.835   3.575   0.051  0.0388  0.2956 -0.4102
  955TIP3    H124356   1.834   3.669   0.030 -0.8247  0.5480  0.6759
  955TIP3    H224357   1.880   3.569   0.135 -0.5539 -0.1662 -0.1138
  956TIP3   OH224358   3.375   6.617  16.364 -0.1890  0.2586 -0.3727
  956TIP3    H124359   3.399   6.526  16.349 -1.1841 -0.1244  0.2717
  956TIP3    H224360   3.333   6.645  16.282  0.1656  0.1662 -0.5886
  957TIP3   OH224361   3.243   4.482   3.595  0.5989  0.2200  0.4745
  957TIP3    H124362   3.307   4.471   3.525  1.6850 -0.0816  1.4940
  957TIP3    H224363   3.158   4.476   3.551  1.2266 -1.6610 -0.5758
  958TIP3   OH224364   3.877   1.334  14.376 -0.2046 -0.6976  0.2974
  958TIP3    H124365   3.861   1.343  14.282 -1.9233 -0.8164  0.5499
  958TIP3    H224366   3.861   1.421  14.411  2.1262 -0.2162  0.3030
  959TIP3   OH224367   2.180   5.562  12.948  0.7092  0.4778  0.9909
  959TIP3    H124368   2.134   5.551  13.032 -0.5723 -2.4911  0.0033
  959TIP3    H224369   2.264   5.602  12.972 -1.4944  4.5421  3.0662
  960TIP3   OH224370   2.621   5.515  13.574  0.0529  0.9194  0.1296
  960TIP3    H124371   2.714   5.502  13.591 -0.3469 -0.8668  1.1641
  960TIP3    H224372   2.577   5.453  13.631 -1.7641  1.2644 -0.8222
  961TIP3   OH224373   3.193   2.827   4.036  0.2323  0.9143 -0.0426
  961TIP3    H124374   3.225   2.745   3.998 -1.0940  0.8340 -1.0487
  961TIP3    H224375   3.130   2.800   4.103 -0.6852  1.0994 -0.8141
  962TIP3   OH224376   1.215   0.381  13.532  0.0429  0.4013  0.8621
  962TIP3    H124377   1.172   0.308  13.576  0.2828 -0.2218  0.0959
  962TIP3    H224378   1.308   0.360  13.537  0.1293  0.7917  0.8751
  963TIP3   OH224379   5.073   6.203   6.462  0.3872  0.2693  0.0378
  963TIP3    H124380   5.057   6.171   6.551  0.6391 -1.4193 -0.4809
  963TIP3    H224381   5.003   6.266   6.446 -0.3031 -0.2099  1.0553
  964TIP3   OH224382   5.627   0.702  14.470  0.5301  0.1077  0.5224
  964TIP3    H124383   5.660   0.726  14.384 -0.1149 -0.5679  0.0703
  964TIP3    H224384   5.623   0.607  14.469 -1.4330  0.1361  0.5148
  965TIP3   OH224385   1.632   1.232   3.008  0.1637  0.2313  0.0863
  965TIP3    H124386   1.567   1.286   2.962  0.2239 -0.6855 -1.1196
  965TIP3    H224387   1.696   1.210   2.941  0.3249 -1.0428  0.6363
  966TIP3   OH224388   5.162   1.559  11.350 -0.0775 -0.1130  0.3450
  966TIP3    H124389   5.251   1.590  11.369  0.3045  0.8872 -2.5781
  966TIP3    H224390   5.175   1.485  11.291 -1.1901 -1.9586  2.2895
  967TIP3   OH224391   5.061   0.663  16.210 -0.3611 -0.3857 -0.1762
  967TIP3    H124392   5.046   0.603  16.283 -0.7082 -2.3814 -1.7990
  967TIP3    H224393   5.017   0.622  16.136  1.6840  0.4757 -1.9919
  968TIP3   OH224394   1.062   1.712  13.800  0.8067  0.6555  0.3199
  968TIP3    H124395   1.031   1.760  13.723  1.9263  1.2399  0.2130
  968TIP3    H224396   0.983   1.698  13.853 -0.2693 -1.1246 -1.6155
  969TIP3   OH224397   6.558   6.758   2.628 -0.1668 -0.4298  0.6221
  969TIP3    H124398   6.518   6.843   2.608  1.7836  0.8181  1.6600
  969TIP3    H224399   6.510   6.726   2.704  1.6590  1.8013  2.8657
  970TIP3   OH224400   5.037   6.570   6.189 -0.1234 -0.2876 -0.2104
  970TIP3    H124401   5.035   6.664   6.171  0.3209 -0.4459 -1.1911
  970TIP3    H224402   5.079   6.562   6.274  0.0573  0.3909 -0.2324
  971TIP3   OH224403   1.153   6.405  16.534  0.4090 -0.0985 -0.1398
  971TIP3    H124404   1.115   6.471  16.477  1.2348 -0.4355 -1.1030
  971TIP3    H224405   1.105   6.415  16.617  0.5474  1.7301 -0.2349
  972TIP3   OH224406   3.633   5.183  11.980 -0.4697 -0.2089 -0.1036
  972TIP3    H124407   3.565   5.184  12.048 -0.2309 -0.1817  0.1348
  972TIP3    H224408   3.703   5.130  12.016 -0.3234 -0.1601 -0.3134
  973TIP3   OH224409   0.717   2.967  15.183  0.3655  0.4158  0.8129
  973TIP3    H124410   0.665   2.970  15.103  0.7904  0.6390  0.5426
  973TIP3    H224411   0.658   2.931  15.249 -0.1568  0.7602  0.5326
  974TIP3   OH224412   3.009   2.255  13.574  0.1806 -0.2592 -0.3064
  974TIP3    H124413   2.953   2.269  13.498  2.2299 -2.3400 -2.3481
  974TIP3    H224414   2.952   2.213  13.638 -1.0131 -0.8103 -1.6697
  975TIP3   OH224415   3.936   5.671  10.557  0.2797  0.2428 -0.2641
  975TIP3    H124416   3.885   5.721  10.621  0.1405  1.3589 -1.1950
  975TIP3    H224417   3.999   5.622  10.609 -1.8697 -1.3864  0.9479
  976TIP3   OH224418   4.142   2.529  11.170  0.0342 -0.5066  0.2941
  976TIP3    H124419   4.121   2.437  11.154 -1.9253 -0.3743  1.7603
  976TIP3    H224420   4.211   2.549  11.107  1.5034 -3.3232  0.8704
  977TIP3   OH224421   3.540   0.478  13.746  0.1028 -0.4359  0.1551
  977TIP3    H124422   3.633   0.479  13.767 -0.0458 -0.6781  0.8709
  977TIP3    H224423   3.525   0.394  13.703  0.1112 -0.6523  0.5692
  978TIP3   OH224424   3.331   1.662  11.922 -0.1540 -0.4832 -0.2433
  978TIP3    H124425   3.328   1.593  11.988  2.8710  0.9842  1.6385
  978TIP3    H224426   3.239   1.680  11.903 -1.1131 -2.4216  2.0082
  979TIP3   OH224427   3.105   4.464  11.837 -0.7280 -0.6031  0.3405
  979TIP3    H124428   3.014   4.437  11.850 -0.6056 -0.6605  1.1340
  979TIP3    H224429   3.128   4.510  11.918 -0.6323  1.1035 -0.6156
  980TIP3   OH224430   1.340   4.565   3.207  0.4666 -0.2838  0.1733
  980TIP3    H124431   1.381   4.640   3.249 -1.3665  0.4350  0.8020
  980TIP3    H224432   1.260   4.601   3.168 -1.0727 -2.0808  1.5022
  981TIP3   OH224433   3.014   3.664   5.798  0.5030  0.4374  0.0136
  981TIP3    H124434   3.040   3.593   5.739  1.6903  2.4686 -2.1005
  981TIP3    H224435   3.095   3.688   5.844  0.4145  1.1425 -0.1762
  982TIP3   OH224436   3.507   1.121  16.284 -0.0695  0.1512  0.2978
  982TIP3    H124437   3.443   1.050  16.274  0.3387 -0.1212 -0.5264
  982TIP3    H224438   3.471   1.177  16.352 -0.3208 -0.9413  1.0909
  983TIP3   OH224439   5.707   5.226   5.835  0.3017 -0.0535  0.1383
  983TIP3    H124440   5.698   5.146   5.784  0.8488  0.8808 -1.4751
  983TIP3    H224441   5.795   5.258   5.815 -0.4316  1.7272 -0.4262
  984TIP3   OH224442   1.732   0.640  16.013 -0.6868  0.0454 -0.1917
  984TIP3    H124443   1.794   0.629  16.085 -1.1059 -0.8961  0.0447
  984TIP3    H224444   1.743   0.731  15.984 -0.7180  0.5258  1.2401
  985TIP3   OH224445   2.854   5.689   0.659  0.0180 -0.4252 -0.2226
  985TIP3    H124446   2.868   5.778   0.692 -0.2517 -0.4724  0.0354
  985TIP3    H224447   2.934   5.667   0.612  0.3744 -0.3086  0.3153
  986TIP3   OH224448   4.062   1.774   2.537 -0.2494  0.6526 -0.1104
  986TIP3    H124449   4.066   1.696   2.593 -1.1586  0.5121 -0.2399
  986TIP3    H224450   4.053   1.847   2.598 -1.5474  0.4759 -0.0605
  987TIP3   OH224451   6.736   0.045   4.656  0.3790  0.3406  0.0205
  987TIP3    H124452   6.649   0.034   4.693  1.3463 -0.9483  2.0940
  987TIP3    H224453   6.747  -0.030   4.597  0.6762 -0.4758  1.0807
  988TIP3   OH224454   0.363   5.296   4.074 -0.7347  0.4459 -0.1475
  988TIP3    H124455   0.300   5.366   4.093 -1.3496  0.0995 -0.8504
  988TIP3    H224456   0.346   5.230   4.141 -0.0255  1.0348  0.6335
  989TIP3   OH224457   2.640   4.685   1.417 -0.2874  0.2611 -0.0315
  989TIP3    H124458   2.661   4.639   1.498 -0.3363 -1.4261 -0.9358
  989TIP3    H224459   2.674   4.628   1.347  1.2505  2.4421 -1.1754
  990TIP3   OH224460   5.015   2.209   5.088 -0.1707  0.0950 -0.3206
  990TIP3    H124461   4.965   2.243   5.162 -0.3535 -1.5034  0.3192
  990TIP3    H224462   4.952   2.159   5.037  0.7868 -2.4360  0.7979
  991TIP3   OH224463   3.469   5.237   3.174  0.3474  0.9008 -0.3230
  991TIP3    H124464   3.406   5.281   3.117 -0.2032 -0.2987 -0.6832
  991TIP3    H224465   3.539   5.300   3.186 -0.1860  1.6882 -1.2072
  992TIP3   OH224466   2.153   6.214  13.843 -0.0478  0.2908  0.2809
  992TIP3    H124467   2.139   6.301  13.805  3.3379 -0.0703 -2.2542
  992TIP3    H224468   2.113   6.153  13.781 -1.4703 -0.0887  1.5106
  993TIP3   OH224469   5.466   1.010   0.446 -0.4352  0.1013 -0.0614
  993TIP3    H124470   5.432   0.928   0.482  0.0379 -0.5357 -1.0448
  993TIP3    H224471   5.387   1.062   0.427 -0.7027  0.4998  1.9215
  994TIP3   OH224472   0.963   4.724  16.546  0.2773 -0.5004 -0.1008
  994TIP3    H124473   1.031   4.727  16.614 -1.9692  0.7688  2.2310
  994TIP3    H224474   0.892   4.672  16.584 -1.0873  0.2626 -1.4758
  995TIP3   OH224475   6.636   5.947  13.762 -0.8990  0.0139  0.4180
  995TIP3    H124476   6.562   5.941  13.822 -0.1326  0.5944  1.4649
  995TIP3    H224477   6.704   5.893  13.802 -0.2063  0.8193  0.3546
  996TIP3   OH224478   1.227   5.314   3.739 -0.5652 -0.4108 -0.1772
  996TIP3    H124479   1.306   5.277   3.779  0.0460  2.9371  2.0743
  996TIP3    H224480   1.258   5.390   3.691 -2.2649  0.1507 -0.4257
  997TIP3   OH224481   1.899   1.104  15.981  0.0711 -0.6719 -0.4908
  997TIP3    H124482   1.932   1.191  15.957  1.3975 -1.1096 -0.3329
  997TIP3    H224483   1.804   1.111  15.970  0.3042  0.2444 -2.2564
  998TIP3   OH224484   6.553   3.085  16.977  0.4787  1.0031  0.3585
  998TIP3    H124485   6.559   3.129  16.892  1.2221  1.5884  0.7034
  998TIP3    H224486   6.492   3.012  16.962 -0.7130  2.0733 -0.2586
  999TIP3   OH224487   0.351   0.079   0.449  0.2657 -0.0683  0.2082
  999TIP3    H124488   0.345   0.029   0.530  0.4337 -0.5398 -0.0640
  999TIP3    H224489   0.430   0.133   0.459  0.6623 -0.6167  0.0935
 1000TIP3   OH224490   4.641   5.842  14.395 -0.3947  0.0996 -0.7687
 1000TIP3    H124491   4.735   5.844  14.412 -0.5604 -0.6803  0.3229
 1000TIP3    H224492   4.635   5.827  14.301  0.6026 -1.8688 -0.5774
 1001TIP3   OH224493   0.526   6.730   2.739  0.0061  0.3558 -0.8741
 1001TIP3    H124494   0.485   6.814   2.759 -0.8073 -0.0295 -0.8502
 1001TIP3    H224495   0.584   6.748   2.665  0.2912  1.0491 -0.4942
 1002TIP3   OH224496   3.906   3.287   0.028 -0.2108  0.5679 -0.8457
 1002TIP3    H124497   3.890   3.373   0.068 -1.9940  0.0744 -0.4061
 1002TIP3    H224498   3.971   3.246   0.084  0.6131  1.6049 -1.0228
 1003TIP3   OH224499   3.072   2.536   4.501 -0.1701 -0.5643  0.0278
 1003TIP3    H124500   3.156   2.582   4.501 -0.1892 -0.5286  0.2737
 1003TIP3    H224501   3.094   2.447   4.530  0.0562 -1.0666 -1.6035
 1004TIP3   OH224502   4.025   5.367   3.067 -1.0340 -0.5052  0.1906
 1004TIP3    H124503   4.021   5.455   3.031 -0.4615  0.0848  1.4818
 1004TIP3    H224504   4.073   5.316   3.002  0.0865  0.5438  0.1529
 1005TIP3   OH224505   5.711   3.062   3.321 -0.2387 -0.4138 -0.1758
 1005TIP3    H124506   5.689   3.146   3.280 -0.8526 -0.0843  0.8107
 1005TIP3    H224507   5.797   3.041   3.285 -0.5753  0.0571 -1.3274
 1006TIP3   OH224508   1.089   0.531   1.209 -0.4737  0.5584 -0.2315
 1006TIP3    H124509   1.073   0.457   1.151  0.2623 -0.3438  0.6865
 1006TIP3    H224510   1.058   0.607   1.160 -1.0132 -0.3213 -1.2895
 1007TIP3   OH224511   4.794   1.049  12.315  0.3470 -0.3582 -0.2298
 1007TIP3    H124512   4.840   0.971  12.347 -3.7370 -2.5156  1.0581
 1007TIP3    H224513   4.779   1.031  12.222  1.6657  0.2072 -0.5779
 1008TIP3   OH224514   2.332   3.412  15.591  0.0699 -0.4920  0.1520
 1008TIP3    H124515   2.275   3.397  15.667  0.6061 -0.7195  0.5161
 1008TIP3    H224516   2.419   3.385  15.621 -0.0517 -2.5864 -1.2026
 1009TIP3   OH224517   4.525   1.484  14.962 -0.5979  0.3582 -0.2178
 1009TIP3    H124518   4.486   1.570  14.979  0.2357  0.5997  0.6275
 1009TIP3    H224519   4.454   1.431  14.927 -0.9706  1.5740 -1.3746
 1010TIP3   OH224520   3.983   0.977  16.769 -0.1848 -0.2483  0.3682
 1010TIP3    H124521   3.944   1.052  16.813 -1.5008 -0.8543  0.2846
 1010TIP3    H224522   3.917   0.950  16.704  0.0530 -1.7373  0.6994
 1011TIP3   OH224523   2.982   4.809   5.678  0.3248  0.3086 -0.2638
 1011TIP3    H124524   2.928   4.738   5.644 -0.2484  0.3349  0.5431
 1011TIP3    H224525   2.919   4.874   5.709  0.5965 -0.8978  3.4291
 1012TIP3   OH224526   4.399   3.350  11.667 -0.1592 -0.1193  0.6460
 1012TIP3    H124527   4.376   3.363  11.575 -1.9430 -0.3045  1.0184
 1012TIP3    H224528   4.490   3.378  11.674 -0.2083  0.5486 -1.0300
 1013TIP3   OH224529   4.917   6.477  11.894 -0.6296  0.1922  0.2468
 1013TIP3    H124530   4.906   6.567  11.923 -1.0141  0.4447 -0.6655
 1013TIP3    H224531   4.834   6.434  11.913 -1.2294  0.6062 -1.3205
 1014TIP3   OH224532   6.493   1.934  14.725 -0.5343  0.2863 -0.1934
 1014TIP3    H124533   6.554   1.868  14.756 -0.4534  0.6151  0.3655
 1014TIP3    H224534   6.407   1.904  14.757 -0.3759  0.9272  0.8906
 1015TIP3   OH224535   1.868   1.433  12.918  0.0010  0.4895 -0.3605
 1015TIP3    H124536   1.961   1.447  12.903 -0.0376  0.6449 -0.4594
 1015TIP3    H224537   1.825   1.481  12.847 -0.2021  1.8122  0.6197
 1016TIP3   OH224538   0.722   5.243   2.296 -0.2064 -0.1501 -0.5923
 1016TIP3    H124539   0.800   5.254   2.242  0.1486  0.8127  0.0952
 1016TIP3    H224540   0.712   5.327   2.341 -0.3352 -1.0048  1.0466
 1017TIP3   OH224541   2.320   6.356   0.897 -0.3295  0.1373  0.4241
 1017TIP3    H124542   2.344   6.438   0.939 -1.3254  1.1372 -0.8452
 1017TIP3    H224543   2.402   6.309   0.885  0.5555  1.8155 -0.5316
 1018TIP3   OH224544   0.652   0.127  12.031  0.3970  0.0667 -0.1972
 1018TIP3    H124545   0.687   0.177  12.104 -0.0747  2.1124 -1.2707
 1018TIP3    H224546   0.728   0.107  11.976  0.4271  0.9135 -0.4799
 1019TIP3   OH224547   2.492   0.527   0.509  0.3529 -0.4106  0.1764
 1019TIP3    H124548   2.584   0.550   0.525 -0.2874  2.1867  0.4562
 1019TIP3    H224549   2.446   0.554   0.588 -1.0143  0.8288 -0.9887
 1020TIP3   OH224550   2.159   0.378   0.753  1.0205 -0.0140 -0.3431
 1020TIP3    H124551   2.228   0.440   0.731  1.8898 -1.2832 -1.3933
 1020TIP3    H224552   2.196   0.323   0.821 -0.9706  2.6496  3.2170
 1021TIP3   OH224553   5.918   1.150  14.162  0.2228  0.4311  0.6205
 1021TIP3    H124554   5.856   1.092  14.116  0.3507  0.5423  0.3037
 1021TIP3    H224555   5.863   1.213  14.208  0.0911  0.2935  0.6515
 1022TIP3   OH224556   1.893   3.949   0.188  0.4687 -0.3308  0.3247
 1022TIP3    H124557   1.828   4.019   0.187 -0.9329 -1.5465 -1.5890
 1022TIP3    H224558   1.960   3.979   0.248 -1.8634  1.0051  2.4561
 1023TIP3   OH224559   6.126   6.371   5.844  0.0471 -0.0329  0.2073
 1023TIP3    H124560   6.041   6.340   5.814  0.2736 -1.3700  0.8865
 1023TIP3    H224561   6.119   6.373   5.939  0.6531  0.1956  0.2506
 1024TIP3   OH224562   3.743   1.967   0.153 -0.4363 -0.5706  0.0053
 1024TIP3    H124563   3.828   1.988   0.115 -0.9472  0.3052 -0.6881
 1024TIP3    H224564   3.722   2.042   0.208 -1.4207 -0.1211 -0.9774
 1025TIP3   OH224565   5.319   0.798   3.350  0.0535  0.1609 -0.7535
 1025TIP3    H124566   5.273   0.847   3.418  0.0906 -1.9329  0.8830
 1025TIP3    H224567   5.253   0.781   3.283 -1.1066 -1.0701  0.6247
 1026TIP3   OH224568   0.362   0.363   0.891 -0.5587 -0.7587 -0.1593
 1026TIP3    H124569   0.319   0.279   0.873  0.6153 -1.1424 -1.2409
 1026TIP3    H224570   0.391   0.356   0.982 -1.3054 -1.1344  0.0606
 1027TIP3   OH224571   2.561   2.688   3.513 -0.4354  0.1064  0.2140
 1027TIP3    H124572   2.609   2.656   3.438 -0.4509  0.8862 -0.1407
 1027TIP3    H224573   2.520   2.769   3.483  1.2675  1.5824  1.6442
 1028TIP3   OH224574   3.463   2.108   4.957 -0.5059 -0.7829 -0.1340
 1028TIP3    H124575   3.535   2.163   4.988 -1.4662 -0.5477  1.7922
 1028TIP3    H224576   3.456   2.038   5.022 -2.6365 -0.2496  0.2813
 1029TIP3   OH224577   4.408   6.168   3.470 -0.5123 -0.2328  0.0125
 1029TIP3    H124578   4.461   6.247   3.457  1.3943 -1.4069  0.1588
 1029TIP3    H224579   4.377   6.144   3.383 -0.3812  0.2003 -0.1533
 1030TIP3   OH224580   0.926   5.350   4.591 -0.2848 -0.0209 -1.0326
 1030TIP3    H124581   0.925   5.319   4.682  0.8961 -0.3549 -1.1247
 1030TIP3    H224582   0.906   5.272   4.539 -1.5299  0.2875 -1.0459
 1031TIP3   OH224583   1.764   5.067   1.991  0.3803 -0.1104 -0.1634
 1031TIP3    H124584   1.852   5.067   1.952  0.1175  0.1112 -0.7672
 1031TIP3    H224585   1.705   5.080   1.917 -0.2024 -0.8638  0.1542
 1032TIP3   OH224586   3.455   4.350   7.638  0.5202  0.3709 -0.2258
 1032TIP3    H124587   3.444   4.387   7.550 -0.8918  0.5327  0.0065
 1032TIP3    H224588   3.494   4.264   7.623 -1.3026 -0.3375 -1.1486
 1033TIP3   OH224589   4.135   1.678   2.971 -0.4283  0.1581 -0.3189
 1033TIP3    H124590   4.063   1.740   2.980 -1.1578 -0.7694  0.3918
 1033TIP3    H224591   4.120   1.635   2.887 -0.6154  0.0807 -0.2457
 1034TIP3   OH224592   0.208   5.475   5.689 -0.0682 -0.3035 -0.2542
 1034TIP3    H124593   0.186   5.382   5.684 -0.5185 -0.1410 -2.0216
 1034TIP3    H224594   0.126   5.518   5.712  0.0072 -0.2875 -0.0111
 1035TIP3   OH224595   3.083   6.733   5.735 -0.2736 -0.1741  0.3537
 1035TIP3    H124596   3.167   6.712   5.695  0.4482  1.7322  0.7591
 1035TIP3    H224597   3.100   6.734   5.829 -0.3610  1.5728  0.3892
 1036TIP3   OH224598   0.505   2.336   0.985 -0.3565  0.4585  0.1832
 1036TIP3    H124599   0.530   2.383   0.905  1.0477  1.8868  1.3811
 1036TIP3    H224600   0.588   2.323   1.031 -1.0713 -0.8738  1.1452
 1037TIP3   OH224601   1.605   3.490   1.490  0.2767  0.0265  0.5386
 1037TIP3    H124602   1.683   3.475   1.543 -0.7450 -1.5332  1.6976
 1037TIP3    H224603   1.532   3.472   1.550 -0.9595  0.5898 -0.7501
 1038TIP3   OH224604   0.080   4.003  13.422 -0.4032 -0.2832  0.3166
 1038TIP3    H124605   0.081   3.922  13.371 -1.3333 -0.3398  0.3640
 1038TIP3    H224606   0.002   3.995  13.477  0.6528 -0.3036  1.8792
 1039TIP3   OH224607   3.527   3.687   6.712 -0.8113  0.2845 -0.2126
 1039TIP3    H124608   3.591   3.753   6.684 -0.5098  0.6299  1.2257
 1039TIP3    H224609   3.560   3.605   6.675  0.2339  0.5307  0.1172
 1040TIP3   OH224610   5.473   2.144  14.994 -0.0345 -0.3828  0.1578
 1040TIP3    H124611   5.466   2.048  14.991  1.1127 -0.4826  0.0355
 1040TIP3    H224612   5.515   2.162  15.078 -2.4663  0.2121  1.3283
 1041TIP3   OH224613   5.835   0.140   5.006 -0.2321 -0.6246 -0.9537
 1041TIP3    H124614   5.911   0.161   5.060 -2.1908 -0.4283  1.9240
 1041TIP3    H224615   5.848   0.190   4.925  0.7980  2.7024  1.0649
 1042TIP3   OH224616   1.715   1.846   3.494  0.0904 -0.6592  0.1088
 1042TIP3    H124617   1.631   1.800   3.497 -0.6330  0.5464 -0.4750
 1042TIP3    H224618   1.764   1.813   3.569 -1.3591 -0.5688  1.1401
 1043TIP3   OH224619   1.677   4.201  16.672 -0.3572 -0.3642  0.0173
 1043TIP3    H124620   1.741   4.209  16.743 -0.1774 -0.3509 -0.1462
 1043TIP3    H224621   1.650   4.291  16.654 -0.0485 -0.3253 -0.2548
 1044TIP3   OH224622   0.289   2.362  14.453  0.1781 -0.1476 -0.0083
 1044TIP3    H124623   0.307   2.346  14.360  1.4063 -2.2735  0.5131
 1044TIP3    H224624   0.211   2.309  14.472 -0.6218  0.9933  0.0156
 1045TIP3   OH224625   1.796   3.920   3.632  0.5413 -0.0247  0.0905
 1045TIP3    H124626   1.723   3.860   3.614 -0.0435  0.5730  0.4419
 1045TIP3    H224627   1.843   3.924   3.549  1.0144 -1.5212  0.2504
 1046TIP3   OH224628   4.143   0.782   0.484  0.4398  0.2474 -0.0412
 1046TIP3    H124629   4.156   0.693   0.453 -2.9198 -1.0694  1.7718
 1046TIP3    H224630   4.087   0.823   0.418 -0.9269 -0.2258  0.7867
 1047TIP3   OH224631   5.811   4.929  12.290 -0.9870  0.1989 -0.1522
 1047TIP3    H124632   5.885   4.990  12.294 -0.3971 -0.5164  0.0954
 1047TIP3    H224633   5.736   4.985  12.269  0.1221  0.5751 -3.9379
 1048TIP3   OH224634   2.656   2.369  11.692  0.5194 -0.8071 -0.1214
 1048TIP3    H124635   2.591   2.435  11.718 -0.0925 -1.5761  0.3287
 1048TIP3    H224636   2.698   2.407  11.615  1.9516  1.2702  1.5605
 1049TIP3   OH224637   5.676   4.830   4.569  0.2496 -0.2027  0.1963
 1049TIP3    H124638   5.583   4.841   4.592  0.5806 -0.0480  1.5181
 1049TIP3    H224639   5.680   4.854   4.476 -0.8722  0.6979  0.3545
 1050TIP3   OH224640   4.284   1.511  16.987 -0.0843 -0.3926  0.3721
 1050TIP3    H124641   4.330   1.483  16.909  0.2129 -0.7478  0.6721
 1050TIP3    H224642   4.350   1.556  17.040 -0.7713  1.8694 -0.5661
 1051TIP3   OH224643   5.552   2.423   6.431 -0.7302  0.0724 -0.6008
 1051TIP3    H124644   5.648   2.429   6.432 -0.6843  0.0236  1.9386
 1051TIP3    H224645   5.534   2.330   6.444 -1.1306  0.1866 -0.3352
 1052TIP3   OH224646   4.287   3.192  12.768  0.3221  0.0532  0.1398
 1052TIP3    H124647   4.252   3.132  12.701  1.6045 -1.0662  0.4117
 1052TIP3    H224648   4.210   3.231  12.808 -0.5299 -0.6867 -0.7183
 1053TIP3   OH224649   0.058   6.724  11.066  0.0215 -0.5202  0.5291
 1053TIP3    H124650   0.029   6.637  11.093  1.2354 -1.3728 -0.7663
 1053TIP3    H224651   0.079   6.715  10.973 -2.1351  1.8091 -0.3010
 1054TIP3   OH224652   6.656   1.369   2.149  0.1448 -0.1918 -0.0130
 1054TIP3    H124653   6.663   1.294   2.208  0.3451 -2.0932 -2.2645
 1054TIP3    H224654   6.567   1.364   2.115  0.0816  0.7636  0.0042
 1055TIP3   OH224655   6.033   4.176   0.518 -0.2134  0.1510 -0.0082
 1055TIP3    H124656   5.981   4.108   0.562  0.9848 -1.4726 -0.9653
 1055TIP3    H224657   6.093   4.208   0.586 -0.1263 -0.4861  0.2283
 1056TIP3   OH224658   2.482   1.202   5.725  0.7731 -0.3598  0.0322
 1056TIP3    H124659   2.449   1.285   5.690  2.7810  1.1172  1.3427
 1056TIP3    H224660   2.407   1.143   5.724 -1.1643  1.9268  0.4073
 1057TIP3   OH224661   5.092   1.477  12.638  0.3450  0.0915 -0.3242
 1057TIP3    H124662   5.051   1.398  12.673 -0.1082  0.2212 -0.5548
 1057TIP3    H224663   5.142   1.447  12.562  0.5931 -0.0504 -0.1063
 1058TIP3   OH224664   5.954   2.619   5.117 -0.4257 -0.5136  0.0216
 1058TIP3    H124665   5.989   2.708   5.111  1.5373 -1.2545 -0.2901
 1058TIP3    H224666   5.911   2.615   5.202 -1.5177  1.0333 -0.4134
 1059TIP3   OH224667   4.635   3.293  14.729 -0.1042  0.2005  0.1196
 1059TIP3    H124668   4.706   3.357  14.727 -0.4563  0.5830 -1.0959
 1059TIP3    H224669   4.587   3.314  14.810  0.5597  0.5975  0.4218
 1060TIP3   OH224670   5.478   6.780   2.495  0.3860 -1.0147  0.1129
 1060TIP3    H124671   5.509   6.844   2.431 -0.8200 -0.0944  0.4175
 1060TIP3    H224672   5.410   6.826   2.544 -0.1885 -2.3863  0.6505
 1061TIP3   OH224673   4.370   5.556  16.977  0.7320  0.0758 -0.3260
 1061TIP3    H124674   4.357   5.463  16.998  2.0759  0.0912  0.6820
 1061TIP3    H224675   4.446   5.557  16.920  2.1912  0.7036  1.5273
 1062TIP3   OH224676   0.219   5.312  11.416  0.4787  0.4639  0.0570
 1062TIP3    H124677   0.290   5.369  11.444  1.4760 -0.4607 -0.4917
 1062TIP3    H224678   0.214   5.245  11.484  0.3993  0.3115 -0.0976
 1063TIP3   OH224679   6.796   0.815  11.900  0.4959  0.1528 -0.3415
 1063TIP3    H124680   6.865   0.752  11.877  2.2694  1.8891 -0.0214
 1063TIP3    H224681   6.743   0.769  11.965  0.3770 -1.8073 -1.7500
 1064TIP3   OH224682   6.631   3.207   0.376  0.0063 -0.2358 -0.2214
 1064TIP3    H124683   6.724   3.220   0.355  0.2956  0.2634  1.2404
 1064TIP3    H224684   6.615   3.116   0.354  1.1648 -0.6566  0.5451
 1065TIP3   OH224685   1.117   4.539  13.343  0.3335  0.0853  0.3326
 1065TIP3    H124686   1.025   4.567  13.348  0.7387  1.8136 -0.8092
 1065TIP3    H224687   1.144   4.564  13.254  1.7474 -0.9578  0.4368
 1066TIP3   OH224688   1.726   2.736   1.922  0.6277 -0.5143  0.2852
 1066TIP3    H124689   1.777   2.707   1.846  0.1310 -0.6167 -0.0132
 1066TIP3    H224690   1.737   2.665   1.986  0.3594 -0.8195 -0.0068
 1067TIP3   OH224691   1.338   3.336   5.192  0.7140  0.0987 -1.0766
 1067TIP3    H124692   1.338   3.259   5.135 -1.2048 -0.1997 -0.7316
 1067TIP3    H224693   1.382   3.306   5.272  0.3468 -0.5220 -1.1019
 1068TIP3   OH224694   0.093   3.921   5.516  0.5472  0.1157  0.4463
 1068TIP3    H124695   0.070   3.873   5.595  1.2151 -0.7118  0.1610
 1068TIP3    H224696   0.185   3.897   5.499  0.0353 -0.7799 -1.2946
 1069TIP3   OH224697   5.722   6.572   2.569  0.0807 -0.4125  0.2418
 1069TIP3    H124698   5.710   6.599   2.478 -0.3820 -3.3416 -0.6815
 1069TIP3    H224699   5.675   6.638   2.620  1.5107  2.0826 -1.4561
 1070TIP3   OH224700   4.958   6.343   5.908 -0.3761 -0.1649 -0.2979
 1070TIP3    H124701   4.927   6.287   5.980 -0.6494 -1.5557 -1.4498
 1070TIP3    H224702   5.052   6.351   5.924 -0.6673  0.9523  1.1165
 1071TIP3   OH224703   2.734   5.814   2.379  0.3668 -0.2829  0.2034
 1071TIP3    H124704   2.693   5.792   2.295 -1.4178 -1.5274  1.3066
 1071TIP3    H224705   2.680   5.768   2.444  0.7748  1.8383  2.1690
 1072TIP3   OH224706   1.020   3.067   5.152 -0.3107  0.1887  0.8946
 1072TIP3    H124707   0.978   2.982   5.159  0.6702 -0.3199  0.7326
 1072TIP3    H224708   1.033   3.080   5.058 -2.3179  1.4660  0.7386
 1073TIP3   OH224709   4.340   2.067   1.187  0.2416  0.1048  0.3794
 1073TIP3    H124710   4.287   2.103   1.258  0.1370  0.4316  0.1351
 1073TIP3    H224711   4.361   2.143   1.132 -0.3000 -0.2673 -0.3468
 1074TIP3   OH224712   6.047   6.152   5.009 -0.0082  0.7858  0.1774
 1074TIP3    H124713   5.978   6.196   5.058  1.9066  3.3600  0.7532
 1074TIP3    H224714   6.077   6.218   4.946  0.4830 -1.0182 -1.5838
 1075TIP3   OH224715   4.495   6.497  11.554  0.6522 -0.1618 -0.0248
 1075TIP3    H124716   4.405   6.469  11.572  0.0778  1.2457 -0.5943
 1075TIP3    H224717   4.533   6.513  11.640 -0.6576  2.1978  0.2094
 1076TIP3   OH224718   4.754   5.130  14.114  0.1305  0.0731  0.1326
 1076TIP3    H124719   4.821   5.076  14.156  1.0900  1.4945  0.5048
 1076TIP3    H224720   4.766   5.115  14.020  2.2859  1.7132  0.0652
 1077TIP3   OH224721   4.620   1.566   3.152  0.1905 -0.2960  0.1113
 1077TIP3    H124722   4.649   1.533   3.237 -1.6640  0.0356  0.9273
 1077TIP3    H224723   4.670   1.647   3.139  1.6704 -1.1751  0.0818
 1078TIP3   OH224724   3.407   4.959  12.371 -0.0530  0.0038  0.4179
 1078TIP3    H124725   3.481   5.002  12.414 -1.2065  1.2583  1.2115
 1078TIP3    H224726   3.329   4.995  12.415 -1.1450 -1.1992 -0.4607
 1079TIP3   OH224727   0.400   2.380  15.855  0.0326  0.1591  0.2425
 1079TIP3    H124728   0.320   2.428  15.874  0.5518  0.4666  1.8566
 1079TIP3    H224729   0.430   2.348  15.941  1.4786 -0.1790 -0.3497
 1080TIP3   OH224730   3.625   2.795   2.609 -0.5364  0.2867 -0.0938
 1080TIP3    H124731   3.612   2.858   2.539  3.4969  0.4836 -0.9072
 1080TIP3    H224732   3.622   2.710   2.566 -1.1540  0.1976  0.1127
 1081TIP3   OH224733   1.596   1.511  14.020  0.1138  0.2914 -0.1339
 1081TIP3    H124734   1.684   1.488  14.052  0.1852  0.3736 -0.2665
 1081TIP3    H224735   1.608   1.523  13.926 -0.1221 -0.0874 -0.2162
 1082TIP3   OH224736   4.990   5.024   2.359 -0.3557 -0.9477 -0.3452
 1082TIP3    H124737   4.934   5.042   2.283  1.8118  0.3585 -1.7521
 1082TIP3    H224738   4.947   5.068   2.432 -0.9512  0.4287 -1.4758
 1083TIP3   OH224739   5.295   2.385  13.333  1.0451 -0.4974  0.7060
 1083TIP3    H124740   5.258   2.467  13.365 -0.8131 -0.3064 -1.6728
 1083TIP3    H224741   5.297   2.395  13.238  1.0698 -3.0843  0.3631
 1084TIP3   OH224742   3.283   1.299  13.717  0.3864  0.3066  0.1961
 1084TIP3    H124743   3.298   1.259  13.631  3.2230  1.9266 -0.1954
 1084TIP3    H224744   3.297   1.227  13.779 -3.3274 -1.3131 -0.5602
 1085TIP3   OH224745   1.228   6.591   3.750 -0.4739 -0.2388  0.1991
 1085TIP3    H124746   1.293   6.543   3.698  0.3534  0.8568  0.1783
 1085TIP3    H224747   1.272   6.606   3.834  0.4257  2.8253 -0.6975
 1086TIP3   OH224748   5.200   2.913  14.912 -0.0393  0.4741 -0.2118
 1086TIP3    H124749   5.256   2.983  14.946 -0.1661  0.0546  0.9117
 1086TIP3    H224750   5.261   2.845  14.884  0.0706  0.8705 -0.9626
 1087TIP3   OH224751   0.039   5.014  14.367 -0.6059 -0.2078  0.9000
 1087TIP3    H124752   0.092   4.976  14.437  0.2619  0.7715  0.8076
 1087TIP3    H224753   0.098   5.017  14.291 -0.9751  0.3531  0.6267
 1088TIP3   OH224754   5.246   4.391   3.671  0.1008  0.1696  0.1240
 1088TIP3    H124755   5.337   4.363   3.663  0.2577  0.9758 -1.2770
 1088TIP3    H224756   5.248   4.484   3.648 -1.0196  0.3034  0.5134
 1089TIP3   OH224757   0.914   2.438  12.090  0.0432 -0.0592 -0.0486
 1089TIP3    H124758   0.837   2.463  12.039  0.5921  0.6132 -0.5666
 1089TIP3    H224759   0.888   2.357  12.135 -0.7030 -0.2559 -0.8083
 1090TIP3   OH224760   5.116   3.107  13.578 -0.0028  0.3979  0.5021
 1090TIP3    H124761   5.079   3.049  13.645 -1.7907  2.0500  1.0492
 1090TIP3    H224762   5.156   3.178  13.627 -0.6773  1.2521 -0.1631
 1091TIP3   OH224763   0.105   4.316   1.876 -0.5324 -0.6739 -0.6528
 1091TIP3    H124764   0.063   4.266   1.945 -0.3476  0.2236  0.1431
 1091TIP3    H224765   0.116   4.255   1.804 -0.6731 -1.6513  0.1413
 1092TIP3   OH224766   0.965   2.892   1.762 -0.1116  0.2946 -0.1103
 1092TIP3    H124767   0.918   2.855   1.837 -0.2024  0.8266  0.1030
 1092TIP3    H224768   1.047   2.843   1.759 -0.2614  0.0264  0.1178
 1093TIP3   OH224769   1.034   5.696   5.366 -0.2654 -0.3235  0.0898
 1093TIP3    H124770   0.965   5.634   5.345 -0.6880 -0.0858  0.7537
 1093TIP3    H224771   0.988   5.774   5.397  0.3008 -0.4547  1.3254
 1094TIP3   OH224772   1.263   1.707  12.483  0.0376 -0.5541 -0.1853
 1094TIP3    H124773   1.270   1.787  12.534 -1.2057 -1.5148  1.5921
 1094TIP3    H224774   1.353   1.678  12.470  0.3975 -0.4971  1.8957
 1095TIP3   OH224775   5.647   4.851  14.113  0.1313 -0.1390  0.0907
 1095TIP3    H124776   5.702   4.773  14.110  1.2429  0.5998  0.8094
 1095TIP3    H224777   5.706   4.923  14.095 -1.2607  0.4232 -2.9009
 1096TIP3   OH224778   5.840   2.851   2.142 -0.3537 -0.0058  0.5253
 1096TIP3    H124779   5.777   2.787   2.176 -0.6603  0.0938  0.1489
 1096TIP3    H224780   5.830   2.847   2.047  0.1059  0.1180  0.4671
 1097TIP3   OH224781   5.794   1.586   3.735 -0.7479  0.0376  0.2293
 1097TIP3    H124782   5.785   1.680   3.723 -0.0928  0.1946  0.9647
 1097TIP3    H224783   5.888   1.571   3.740 -0.8364 -0.6902 -0.1223
 1098TIP3   OH224784   6.173   6.710  10.897 -0.0096 -0.0605 -0.0665
 1098TIP3    H124785   6.128   6.755  10.826  0.2226 -0.1450 -0.2679
 1098TIP3    H224786   6.154   6.617  10.883  0.2643 -0.1016 -0.1811
 1099TIP3   OH224787   2.506   5.218  15.366 -0.5215  0.1501  0.0452
 1099TIP3    H124788   2.545   5.292  15.320  0.2699  0.4200  1.1032
 1099TIP3    H224789   2.550   5.218  15.452 -0.9427 -1.1748  0.2757
 1100TIP3   OH224790   2.835   1.882  15.334 -0.3214  0.4993 -0.6872
 1100TIP3    H124791   2.760   1.934  15.366  0.5850  0.8128  1.0804
 1100TIP3    H224792   2.798   1.828  15.264 -2.2057  0.6909  0.0760
 1101TIP3   OH224793   3.895   0.821   1.386  0.2451 -0.0968  0.0664
 1101TIP3    H124794   3.822   0.804   1.327  0.5541 -5.1772  0.6810
 1101TIP3    H224795   3.856   0.818   1.474  0.8729 -0.6321  0.3341
 1102TIP3   OH224796   2.914   0.407   2.333 -0.5841  0.6635 -0.3876
 1102TIP3    H124797   2.851   0.432   2.265 -0.1142  0.3657 -0.9478
 1102TIP3    H224798   2.937   0.316   2.312  1.3294  1.2841 -1.2559
 1103TIP3   OH224799   0.941   5.776   0.954 -0.0653 -0.4763  0.8519
 1103TIP3    H124800   0.864   5.723   0.975  0.0588 -0.0359  2.5513
 1103TIP3    H224801   0.906   5.850   0.905 -0.3110 -1.7760 -1.0526
 1104TIP3   OH224802   4.117   1.596  14.690  0.3253  0.2432 -0.0470
 1104TIP3    H124803   4.156   1.668  14.641  0.3093 -1.3292 -2.5436
 1104TIP3    H224804   4.046   1.637  14.739  0.5468  1.9847 -1.0824
 1105TIP3   OH224805   3.556   6.712  14.853  0.2841  0.0845 -0.1963
 1105TIP3    H124806   3.522   6.624  14.837 -0.1880  0.1318  0.4979
 1105TIP3    H224807   3.651   6.703  14.845  0.3395 -0.7680  1.0829
 1106TIP3   OH224808   6.056   5.938   3.550 -0.5694 -0.2882 -0.6593
 1106TIP3    H124809   5.997   6.013   3.549  0.3596  0.4861 -0.0708
 1106TIP3    H224810   6.006   5.868   3.591 -2.1873 -0.6611 -3.1249
 1107TIP3   OH224811   5.009   4.104   2.187 -0.0584 -0.0272 -0.2338
 1107TIP3    H124812   4.956   4.172   2.146  0.0470  0.0067 -0.3149
 1107TIP3    H224813   4.965   4.086   2.270 -2.0875 -2.2849 -1.6735
 1108TIP3   OH224814   0.971   2.282  15.174 -0.1916  0.0319  0.1299
 1108TIP3    H124815   0.963   2.335  15.095 -0.9425  1.6723  1.2505
 1108TIP3    H224816   1.063   2.258  15.178  0.4843  2.4196  0.2632
 1109TIP3   OH224817   2.010   5.598   0.726  0.6583 -0.1494 -0.1135
 1109TIP3    H124818   2.044   5.509   0.725  1.3636  0.0805  1.2033
 1109TIP3    H224819   2.081   5.651   0.691  1.5383  0.2556  2.0915
 1110TIP3   OH224820   6.645   1.116  11.643  0.5049  0.4103 -0.3126
 1110TIP3    H124821   6.707   1.104  11.715 -1.3759  1.4256  1.5512
 1110TIP3    H224822   6.592   1.036  11.643  0.5087  0.4056 -0.5961
 1111TIP3   OH224823   5.952   3.309  15.531 -0.5277 -0.2922 -0.2197
 1111TIP3    H124824   5.920   3.399  15.543 -0.2497 -0.1666 -0.3915
 1111TIP3    H224825   5.929   3.264  15.612  2.6336  0.9096  1.5532
 1112TIP3   OH224826   5.762   4.359   2.652 -0.3687 -0.0230  0.1433
 1112TIP3    H124827   5.797   4.277   2.687 -0.7247 -0.8568 -1.3360
 1112TIP3    H224828   5.811   4.373   2.571 -1.8170  0.0084 -0.7733
 1113TIP3   OH224829   2.246   5.797  14.912  0.6897  0.5135  0.0882
 1113TIP3    H124830   2.195   5.874  14.937  0.0293 -0.8117  3.2136
 1113TIP3    H224831   2.327   5.803  14.964  0.4857 -1.0305  0.6329
 1114TIP3   OH224832   2.825   5.498   0.080  0.0745  0.0922 -0.4498
 1114TIP3    H124833   2.739   5.539   0.069 -0.7989 -1.2943  0.7900
 1114TIP3    H224834   2.842   5.457  -0.005 -1.2691 -0.9626 -0.2551
 1115TIP3   OH224835   2.151   6.194  14.292 -0.0541  0.2571 -0.6555
 1115TIP3    H124836   2.088   6.137  14.336  0.1266  0.3615 -0.2622
 1115TIP3    H224837   2.224   6.201  14.353 -0.4696  1.6644 -0.2749
 1116TIP3   OH224838   1.155   6.744  16.733 -0.2906  0.0395 -0.1527
 1116TIP3    H124839   1.119   6.732  16.645 -0.4394 -0.4031 -0.0356
 1116TIP3    H224840   1.098   6.693  16.789 -0.6536  0.9353  0.3150
 1117TIP3   OH224841   2.267   1.616   6.444 -0.3587  0.1540  0.5488
 1117TIP3    H124842   2.291   1.686   6.383 -1.2316 -0.5297 -0.6162
 1117TIP3    H224843   2.333   1.548   6.429  1.2793  1.1514  2.5967
 1118TIP3   OH224844   2.819   1.050  13.410  0.1488 -0.2128 -0.0765
 1118TIP3    H124845   2.742   1.056  13.353 -1.1638  0.0340  1.6506
 1118TIP3    H224846   2.861   0.967  13.385 -1.2352 -0.8418 -0.4124
 1119TIP3   OH224847   2.828   2.380   4.972 -0.5541  0.1683  0.2539
 1119TIP3    H124848   2.797   2.465   4.943  0.2898  0.5373  0.4253
 1119TIP3    H224849   2.919   2.375   4.944 -0.1054 -0.0059  1.6343
 1120TIP3   OH224850   6.664   0.907   2.254 -0.0858  0.0009 -0.0007
 1120TIP3    H124851   6.745   0.857   2.269  0.5697  0.7597 -0.9345
 1120TIP3    H224852   6.594   0.844   2.272  0.7232 -1.1244 -0.6800
 1121TIP3   OH224853   1.037   6.827  15.712 -0.5832  0.0652 -0.6826
 1121TIP3    H124854   0.957   6.880  15.717  0.4078  1.5655  0.4341
 1121TIP3    H224855   1.008   6.737  15.724 -2.0746  0.6229  0.1326
 1122TIP3   OH224856   5.722   4.331   3.912  0.2125 -0.1918  0.3184
 1122TIP3    H124857   5.806   4.363   3.879 -1.5022  2.4225 -1.9577
 1122TIP3    H224858   5.704   4.387   3.988 -0.2205  0.3978 -0.2158
 1123TIP3   OH224859   3.016   0.517   1.720  1.0117  0.3150 -0.0277
 1123TIP3    H124860   3.096   0.545   1.676  0.9466  0.2621 -0.1806
 1123TIP3    H224861   2.958   0.489   1.649  1.0957 -0.2537  0.1236
 1124TIP3   OH224862   1.221   0.644  13.381  0.3170  0.1065 -0.0493
 1124TIP3    H124863   1.222   0.558  13.424 -2.3227  0.7664  1.5862
 1124TIP3    H224864   1.236   0.625  13.289  0.1453 -2.0814  0.3215
 1125TIP3   OH224865   1.419   0.274   2.125  0.2957  0.4833 -0.3995
 1125TIP3    H124866   1.465   0.200   2.086 -0.6125 -0.3745  0.1003
 1125TIP3    H224867   1.485   0.343   2.131  2.0342 -1.1958  1.7872
 1126TIP3   OH224868   0.485   1.681   1.070  0.0370 -0.1682 -0.1884
 1126TIP3    H124869   0.571   1.641   1.082 -0.8485 -1.6591  1.7831
 1126TIP3    H224870   0.504   1.774   1.054  2.0209 -0.0545  2.2149
 1127TIP3   OH224871   5.030   4.240   1.342 -0.3828  0.5816  0.2333
 1127TIP3    H124872   4.959   4.300   1.321  0.8094  2.1057  0.4420
 1127TIP3    H224873   5.103   4.267   1.286  1.2819  1.5891  2.7508
 1128TIP3   OH224874   0.498   2.375  12.149 -0.1977  0.3961 -0.4392
 1128TIP3    H124875   0.450   2.299  12.117  2.5620 -2.2066  1.1136
 1128TIP3    H224876   0.575   2.381  12.093  0.4771  0.9491  0.5074
 1129TIP3   OH224877   3.652   6.836  16.871 -0.8614  0.6704 -0.0776
 1129TIP3    H124878   3.603   6.876  16.942  2.4459  0.4063  2.5774
 1129TIP3    H224879   3.655   6.743  16.893  1.2314  0.7579  0.1817
 1130TIP3   OH224880   5.256   1.378  15.540  0.2136 -0.7898 -0.0533
 1130TIP3    H124881   5.281   1.444  15.605  0.1179 -1.3637  0.5766
 1130TIP3    H224882   5.169   1.349  15.566 -0.9165  0.7406 -1.8815
 1131TIP3   OH224883   6.294   4.735   1.143 -0.3023 -0.5584 -0.9320
 1131TIP3    H124884   6.269   4.670   1.208  1.4741 -0.9781 -0.6060
 1131TIP3    H224885   6.228   4.727   1.074 -1.9388 -0.4489  0.5605
 1132TIP3   OH224886   5.602   4.280  13.423  0.2515  0.3276  0.0050
 1132TIP3    H124887   5.643   4.195  13.440  1.2962  0.8252  0.0116
 1132TIP3    H224888   5.620   4.331  13.502  0.1086  0.7407 -0.2299
 1133TIP3   OH224889   0.043   1.257   2.424 -0.2643  0.4366  0.4569
 1133TIP3    H124890  -0.044   1.233   2.392 -0.5752  0.3548  1.3272
 1133TIP3    H224891   0.082   1.308   2.353 -0.9094  0.2293 -0.0545
 1134TIP3   OH224892   4.604   6.539  12.905  0.6331 -0.3079  0.4047
 1134TIP3    H124893   4.652   6.459  12.886  0.6035 -0.0506 -0.8259
 1134TIP3    H224894   4.582   6.575  12.819 -2.6328 -0.9116  0.8260
 1135TIP3   OH224895   4.060   4.950  13.993 -0.2391 -0.5041  0.3820
 1135TIP3    H124896   4.147   4.928  14.024 -0.0979 -1.3210 -0.5222
 1135TIP3    H224897   4.075   5.008  13.918 -0.5266  0.5056  1.0990
 1136TIP3   OH224898   6.091   1.592  13.379 -0.4006  0.3696 -0.0564
 1136TIP3    H124899   6.146   1.657  13.335  0.0142 -0.3730 -0.6447
 1136TIP3    H224900   6.002   1.626  13.369 -0.1250  1.2920  0.4163
 1137TIP3   OH224901   0.518   5.603   1.121  0.1035  0.0055  0.0125
 1137TIP3    H124902   0.554   5.547   1.052  1.3820 -1.6769  1.9445
 1137TIP3    H224903   0.427   5.573   1.130  0.5430 -1.2532  0.4786
 1138TIP3   OH224904   3.353   6.670   4.327 -0.8210 -0.4618  0.3893
 1138TIP3    H124905   3.348   6.584   4.368 -2.8127 -0.3392  0.5211
 1138TIP3    H224906   3.320   6.730   4.393 -0.1763  0.3167  0.0263
 1139TIP3   OH224907   5.189   2.068  12.813 -0.0287  0.1375 -0.1795
 1139TIP3    H124908   5.221   1.984  12.781  1.0043 -0.1033  1.3289
 1139TIP3    H224909   5.141   2.105  12.740  1.5655 -0.6704 -1.7263
 1140TIP3   OH224910   0.191   5.271   2.874  0.5629  0.3333  0.0775
 1140TIP3    H124911   0.153   5.305   2.793  1.9869  1.3847 -0.1657
 1140TIP3    H224912   0.240   5.193   2.847  0.7079  0.4531 -0.0015
 1141TIP3   OH224913   3.064   2.294   2.375  0.1093 -0.7072 -0.6083
 1141TIP3    H124914   3.075   2.383   2.342 -1.4715 -0.3221 -0.1621
 1141TIP3    H224915   3.000   2.254   2.316 -0.6474 -0.8985  0.3088
 1142TIP3   OH224916   6.844   6.346   3.254  0.2904  0.0877 -0.0432
 1142TIP3    H124917   6.854   6.268   3.199 -2.0017  0.3086 -0.9162
 1142TIP3    H224918   6.872   6.419   3.198  0.6247  0.0552  0.0840
 1143TIP3   OH224919   1.429   2.653   0.114 -0.7223 -0.1482  0.5080
 1143TIP3    H124920   1.478   2.731   0.088 -0.6601 -0.7423 -1.2618
 1143TIP3    H224921   1.496   2.592   0.146 -0.3885 -0.5376 -0.8557
 1144TIP3   OH224922   6.113   3.751  12.874 -0.5551 -0.2927  0.2189
 1144TIP3    H124923   6.134   3.747  12.781  0.5346 -2.5353  0.5058
 1144TIP3    H224924   6.189   3.792  12.914  0.1617 -1.7536  0.4020
 1145TIP3   OH224925   2.896   5.289  12.437  0.4864 -0.5804 -0.0163
 1145TIP3    H124926   2.976   5.238  12.449  1.3273  0.5709 -0.5828
 1145TIP3    H224927   2.915   5.347  12.363  0.2884  1.9099  1.7638
 1146TIP3   OH224928   3.857   0.796  15.216 -0.8199  0.1834  0.0413
 1146TIP3    H124929   3.908   0.851  15.156  1.2357 -1.7463 -0.0720
 1146TIP3    H224930   3.792   0.754  15.159 -0.1824 -0.0956 -0.5046
 1147TIP3   OH224931   6.619   3.476  16.209  0.5508 -0.3167  0.2177
 1147TIP3    H124932   6.679   3.531  16.159 -2.0938  1.4831 -1.1534
 1147TIP3    H224933   6.561   3.437  16.144 -1.9422  0.7608  1.6431
 1148TIP3   OH224934   5.530   6.185  13.918 -1.1532 -0.1512  0.0482
 1148TIP3    H124935   5.586   6.119  13.876 -0.7249 -0.7757  1.5255
 1148TIP3    H224936   5.586   6.223  13.985 -1.7070  1.0767 -0.1686
 1149TIP3   OH224937   2.852   4.655   0.628  0.0895 -1.0426 -0.1015
 1149TIP3    H124938   2.872   4.604   0.549  0.3842  0.6541 -1.1669
 1149TIP3    H224939   2.766   4.695   0.610  0.5166 -0.0150  0.0966
 1150TIP3   OH224940   2.490   4.635   6.070  0.1691 -0.3856  0.4724
 1150TIP3    H124941   2.577   4.647   6.033  0.6137  0.3563  1.6920
 1150TIP3    H224942   2.505   4.635   6.165 -1.0891 -0.8232  0.6863
 1151TIP3   OH224943   1.397   3.632  14.662  0.6283 -0.1552 -0.2758
 1151TIP3    H124944   1.388   3.633  14.757  0.3760 -1.1531 -0.2758
 1151TIP3    H224945   1.430   3.544  14.642 -1.0409 -0.6099 -1.2316
 1152TIP3   OH224946   4.629   6.300   4.229  0.1438  0.3247 -0.8494
 1152TIP3    H124947   4.687   6.282   4.156  0.8516 -0.0159 -0.2194
 1152TIP3    H224948   4.548   6.254   4.208 -0.3106  1.6839 -2.2456
 1153TIP3   OH224949   6.846   5.015   0.256 -0.0316 -0.1482 -0.1691
 1153TIP3    H124950   6.915   5.042   0.317  0.0792  1.6643 -1.0390
 1153TIP3    H224951   6.779   5.082   0.265 -0.6334 -0.6202 -1.0358
 1154TIP3   OH224952   6.840   5.760   5.468 -0.0909  0.4505  0.0173
 1154TIP3    H124953   6.919   5.714   5.440 -0.6287 -0.5183  0.0564
 1154TIP3    H224954   6.870   5.849   5.488  0.8510  0.2946 -0.6540
 1155TIP3   OH224955   2.220   3.525  12.164 -0.1987  0.1413  0.0515
 1155TIP3    H124956   2.244   3.534  12.072 -1.3219  0.6171 -0.2135
 1155TIP3    H224957   2.193   3.613  12.191  1.1898  0.2557  1.1702
 1156TIP3   OH224958   1.667   0.603   6.011 -0.2802  0.2918 -0.4924
 1156TIP3    H124959   1.653   0.543   6.084  1.0209  0.5644  0.0151
 1156TIP3    H224960   1.612   0.679   6.030 -0.5008  0.0477 -0.1636
 1157TIP3   OH224961   5.816   6.103   2.317 -0.0774  0.0941  0.2911
 1157TIP3    H124962   5.769   6.179   2.350 -1.6181 -0.5945 -0.2208
 1157TIP3    H224963   5.769   6.028   2.352  0.6604 -0.6367 -0.2270
 1158TIP3   OH224964   4.569   1.266  13.676 -0.2822  0.0204  0.2520
 1158TIP3    H124965   4.600   1.240  13.763 -1.1671  0.0767  0.5920
 1158TIP3    H224966   4.591   1.359  13.669 -0.1347 -0.0051  0.3814
 1159TIP3   OH224967   0.756   2.695   4.612  0.3755  0.0634  0.3197
 1159TIP3    H124968   0.799   2.778   4.632  0.8544 -0.4618  1.5755
 1159TIP3    H224969   0.662   2.715   4.620  0.4782  0.5347  0.3903
 1160TIP3   OH224970   5.702   3.824   5.539  0.9079  0.0544  0.2271
 1160TIP3    H124971   5.655   3.745   5.511  0.7203 -0.5323  2.0528
 1160TIP3    H224972   5.633   3.888   5.556  0.9778  0.2006 -0.0392
 1161TIP3   OH224973   4.182   4.755  17.047  0.0647  0.3226 -0.4440
 1161TIP3    H124974   4.120   4.701  17.095  0.2456  0.4475 -0.0627
 1161TIP3    H224975   4.204   4.826  17.108  0.2788  0.4954 -0.7193
 1162TIP3   OH224976   2.763   5.647  15.293 -0.1064 -0.0614  0.6841
 1162TIP3    H124977   2.747   5.677  15.383  1.4595 -1.3731  1.4558
 1162TIP3    H224978   2.846   5.600  15.298 -1.1644 -2.2812 -0.9293
 1163TIP3   OH224979   2.434   5.279   3.137 -0.7962 -0.2059  0.4770
 1163TIP3    H124980   2.381   5.353   3.107 -2.8956 -1.4126  1.0458
 1163TIP3    H224981   2.515   5.320   3.169 -1.1383  1.6644 -0.8222
 1164TIP3   OH224982   2.875   4.069   0.782 -0.3201  0.0303  0.2913
 1164TIP3    H124983   2.866   4.154   0.738  0.8420 -0.9650 -2.1032
 1164TIP3    H224984   2.953   4.079   0.837 -0.2147  0.5520  0.0584
 1165TIP3   OH224985   6.586   0.839  13.940 -0.6915 -0.2979 -0.3292
 1165TIP3    H124986   6.562   0.928  13.915 -1.4266 -0.8894 -1.8143
 1165TIP3    H224987   6.602   0.845  14.034  1.7815  1.9370 -0.7483
 1166TIP3   OH224988   6.739   3.593  16.735 -0.2165 -0.1414  0.7770
 1166TIP3    H124989   6.825   3.566  16.703 -0.1677  1.5185 -0.6108
 1166TIP3    H224990   6.754   3.677  16.779 -0.9916 -0.3037  1.3950
 1167TIP3   OH224991   4.048   4.185   2.696 -0.0158 -0.4171 -0.3505
 1167TIP3    H124992   4.070   4.271   2.731  1.4872 -1.6086  1.8280
 1167TIP3    H224993   4.075   4.189   2.604 -0.9873  1.7458 -0.6010
 1168TIP3   OH224994   3.823   3.193  15.581  0.4457  0.5426  0.4790
 1168TIP3    H124995   3.853   3.238  15.660 -0.0016  0.2235  0.8347
 1168TIP3    H224996   3.818   3.101  15.607 -0.3863  0.5307  0.2921
 1169TIP3   OH224997   0.788   3.485  13.003 -0.4461 -0.1812 -0.5311
 1169TIP3    H124998   0.715   3.484  13.065 -0.1838  0.4089 -0.2071
 1169TIP3    H224999   0.824   3.573  13.009  0.4570 -0.5354 -0.5019
 1170TIP3   OH225000   5.698   1.318   0.700 -0.4137 -0.0531  0.3016
 1170TIP3    H125001   5.689   1.380   0.627 -0.9786 -0.4586  0.0221
 1170TIP3    H225002   5.789   1.328   0.728 -1.1905  3.1705  2.2939
 1171TIP3   OH225003   3.369   0.568  13.953  0.5871  0.6942  0.2875
 1171TIP3    H125004   3.448   0.542  13.907  0.3776 -1.2007  0.8686
 1171TIP3    H225005   3.376   0.523  14.038 -1.8228 -0.9266 -0.2644
 1172TIP3   OH225006   4.678   4.008   0.327  0.0530  0.2504  0.2257
 1172TIP3    H125007   4.709   3.984   0.240 -0.6675 -0.2012  0.0806
 1172TIP3    H225008   4.690   4.103   0.332 -0.3191  0.3483 -0.5481
 1173TIP3   OH225009   4.143   1.343   4.620  0.1727  0.3171  0.6794
 1173TIP3    H125010   4.056   1.356   4.582  0.7280 -0.1193 -0.7800
 1173TIP3    H225011   4.203   1.350   4.546  1.3963  0.5849  1.6611
 1174TIP3   OH225012   6.156   0.156  13.218  0.9339  0.0991 -0.1304
 1174TIP3    H125013   6.226   0.183  13.158  1.0875 -0.0048  0.0001
 1174TIP3    H225014   6.116   0.238  13.247  0.7348  0.1435 -0.5180
 1175TIP3   OH225015   5.703   6.364  14.885  0.0678  0.3481  0.5983
 1175TIP3    H125016   5.774   6.395  14.828  1.1806 -0.2034  1.6468
 1175TIP3    H225017   5.661   6.444  14.917  0.2461  0.6804  0.0156
 1176TIP3   OH225018   0.969   6.515  11.007 -0.8307  0.2148 -0.4679
 1176TIP3    H125019   1.018   6.544  11.084 -1.0879  1.7330 -0.8330
 1176TIP3    H225020   1.022   6.447  10.968 -0.7480 -0.6692  1.1100
 1177TIP3   OH225021   1.753   0.099  10.461  0.6064  0.5048  0.4261
 1177TIP3    H125022   1.698   0.028  10.493 -1.0370  1.7202  0.3945
 1177TIP3    H225023   1.836   0.088  10.509  0.8982 -2.1460 -0.5094
 1178TIP3   OH225024   1.295   5.630   0.318  0.1727 -0.2641  0.3778
 1178TIP3    H125025   1.324   5.576   0.245  0.1168  0.4005 -0.1495
 1178TIP3    H225026   1.337   5.715   0.302 -0.0002 -0.0567  1.0125
 1179TIP3   OH225027   1.539   5.948   4.592  0.1488 -0.1930  0.3712
 1179TIP3    H125028   1.494   5.915   4.670  1.5383 -1.2995  0.7572
 1179TIP3    H225029   1.498   5.902   4.519  2.2663 -3.2437  0.9206
 1180TIP3   OH225030   1.530   0.567   1.464  0.3065 -0.0999 -0.3198
 1180TIP3    H125031   1.594   0.552   1.533 -1.6026 -0.9176  1.3808
 1180TIP3    H225032   1.563   0.517   1.389  1.7462 -0.3265  0.4345
 1181TIP3   OH225033   5.157   5.986  10.849  0.2190  0.6195 -0.2516
 1181TIP3    H125034   5.149   6.071  10.806 -1.9304  0.7853  0.3756
 1181TIP3    H225035   5.074   5.975  10.895  2.0817  0.1441  3.3212
 1182TIP3   OH225036   4.394   3.441  16.745  0.2007 -0.5619 -0.0596
 1182TIP3    H125037   4.334   3.514  16.732  0.3082 -0.6368 -1.0666
 1182TIP3    H225038   4.470   3.463  16.692  0.2908 -1.3349 -0.2614
 1183TIP3   OH225039   2.367   5.417  11.308 -0.2298  0.1215 -0.6932
 1183TIP3    H125040   2.390   5.456  11.224 -1.3993  0.6056 -0.8177
 1183TIP3    H225041   2.450   5.404  11.353  0.2666  2.4718 -0.7981
 1184TIP3   OH225042   0.040   3.297   4.137 -0.3747 -0.3824  0.3694
 1184TIP3    H125043  -0.004   3.329   4.216  3.6277  1.5863  2.0914
 1184TIP3    H225044   0.088   3.219   4.166  1.0011  0.2588 -0.1102
 1185TIP3   OH225045   6.752   3.874   3.412  0.1162 -0.4836 -0.2877
 1185TIP3    H125046   6.822   3.819   3.375  1.2320  1.6310 -1.4773
 1185TIP3    H225047   6.794   3.958   3.428 -1.5832  0.1065  1.3609
 1186TIP3   OH225048   2.859   0.833  11.712  0.1026  0.3681 -0.4559
 1186TIP3    H125049   2.895   0.823  11.625 -0.5700  0.1597 -0.7167
 1186TIP3    H225050   2.899   0.763  11.764  0.1931  0.2399 -0.6992
 1187TIP3   OH225051   5.231   4.745   3.993  0.0409  0.3516  0.5108
 1187TIP3    H125052   5.267   4.657   3.987  0.2454  0.4922 -0.4938
 1187TIP3    H225053   5.302   4.797   4.032  0.7178  0.4924 -0.8527
 1188TIP3   OH225054   3.348   0.840  15.730  0.1363 -0.0541  0.3054
 1188TIP3    H125055   3.427   0.889  15.707 -0.9293  1.5561 -0.1647
 1188TIP3    H225056   3.329   0.866  15.820  0.6537 -1.1841  0.7512
 1189TIP3   OH225057   0.372   5.683  11.143  0.2076 -0.5768 -0.3000
 1189TIP3    H125058   0.404   5.771  11.123  2.4649 -1.2070  0.3353
 1189TIP3    H225059   0.347   5.687  11.235  0.2175 -0.5738 -0.2976
 1190TIP3   OH225060   4.095   4.808   5.911 -0.0374 -0.1988 -0.9489
 1190TIP3    H125061   4.018   4.781   5.860 -0.2033  0.6769 -1.1793
 1190TIP3    H225062   4.153   4.732   5.908 -0.4921 -0.5337 -1.5665
 1191TIP3   OH225063   2.410   1.012  14.215  0.1550  0.4677  0.0093
 1191TIP3    H125064   2.487   1.043  14.264  1.4143  2.9616 -3.1439
 1191TIP3    H225065   2.379   1.090  14.169 -3.0386 -0.9475 -0.4646
 1192TIP3   OH225066   1.340   4.396   4.378 -0.6886 -0.0934 -0.5117
 1192TIP3    H125067   1.309   4.310   4.404  1.2554 -0.0025  2.5701
 1192TIP3    H225068   1.285   4.458   4.425 -0.4492  0.2797 -0.7098
 1193TIP3   OH225069   0.718   1.575  10.397 -0.6099  0.3355  0.2043
 1193TIP3    H125070   0.741   1.508  10.333 -0.6633 -0.4021  0.9389
 1193TIP3    H225071   0.796   1.630  10.404  0.5516 -1.4192  1.7840
 1194TIP3   OH225072   2.853   2.714   4.542 -0.3657  0.1744  0.0864
 1194TIP3    H125073   2.831   2.674   4.457  0.1246  0.9589 -0.4218
 1194TIP3    H225074   2.932   2.668   4.570 -0.8350 -0.4622  0.3903
 1195TIP3   OH225075   4.672   3.205  11.806 -0.6211 -0.1666  1.0542
 1195TIP3    H125076   4.695   3.115  11.784  1.1299  0.2390  1.1383
 1195TIP3    H225077   4.721   3.224  11.886 -0.4937  1.0517  0.7123
 1196TIP3   OH225078   2.829   3.105   0.525  0.4339  0.5180 -0.2268
 1196TIP3    H125079   2.764   3.049   0.567  1.0674 -2.6818 -3.0918
 1196TIP3    H225080   2.913   3.077   0.561  0.8597 -1.3810 -2.4641
 1197TIP3   OH225081   4.401   2.556  11.030 -0.2821  0.4216 -0.3232
 1197TIP3    H125082   4.440   2.478  10.991  1.2911  1.5569 -1.1370
 1197TIP3    H225083   4.449   2.569  11.112 -1.0017  0.1662  0.1445
 1198TIP3   OH225084   4.315   5.264   0.300 -0.2461  0.2239  0.0996
 1198TIP3    H125085   4.342   5.190   0.246 -0.4413 -0.1491  0.5093
 1198TIP3    H225086   4.358   5.340   0.260 -0.9165  0.0563 -0.9761
 1199TIP3   OH225087   6.541   4.459   5.608 -0.5781  0.6075 -0.4139
 1199TIP3    H125088   6.613   4.497   5.658  0.2206 -2.4293  0.9635
 1199TIP3    H225089   6.471   4.523   5.615  0.9276  2.2022  0.9884
 1200TIP3   OH225090   4.717   6.842   0.039  0.3755 -0.4371  0.7688
 1200TIP3    H125091   4.682   6.754   0.028 -2.3415  0.7209 -1.0993
 1200TIP3    H225092   4.715   6.857   0.134  1.3235 -2.4792  1.1636
 1201TIP3   OH225093   5.756   3.921   4.995  0.4549  0.6873 -0.5256
 1201TIP3    H125094   5.848   3.904   5.012  0.3541 -0.5536 -1.1256
 1201TIP3    H225095   5.742   3.891   4.905 -0.4756  1.0735 -0.5174
 1202TIP3   OH225096   5.428   6.746   1.373  0.4982 -0.6099  0.3900
 1202TIP3    H125097   5.372   6.824   1.370 -0.3931 -1.2495  0.1529
 1202TIP3    H225098   5.389   6.691   1.441  1.3889 -0.6670  0.8744
 1203TIP3   OH225099   4.781   2.236  14.859 -0.1911 -0.1609  0.5102
 1203TIP3    H125100   4.790   2.332  14.863  1.6975 -0.3239  1.0584
 1203TIP3    H225101   4.711   2.216  14.920  0.5856  0.7624  1.7499
 1204TIP3   OH225102   0.632   3.669   1.794 -0.3827 -0.7251 -0.3514
 1204TIP3    H125103   0.673   3.670   1.880 -0.1528 -2.0468 -0.4288
 1204TIP3    H225104   0.705   3.658   1.732 -0.7416 -2.2602 -0.5404
 1205TIP3   OH225105   2.367   3.620   5.589 -0.4180  0.6785 -0.3199
 1205TIP3    H125106   2.278   3.583   5.585 -1.0476  1.7460  1.9791
 1205TIP3    H225107   2.388   3.619   5.683  2.3363 -0.2244 -0.8546
 1206TIP3   OH225108   2.280   5.298  12.132  0.7682 -0.6168  0.5421
 1206TIP3    H125109   2.288   5.287  12.227  0.3027  1.3286  0.8459
 1206TIP3    H225110   2.368   5.323  12.103  0.7368 -0.4567  0.5834
 1207TIP3   OH225111   4.949   4.152  10.271  0.3853  0.6246  0.0451
 1207TIP3    H125112   4.964   4.063  10.239  0.5911  1.0159 -0.9762
 1207TIP3    H225113   4.869   4.145  10.323 -0.6246  0.1763 -1.4987
 1208TIP3   OH225114   1.982   2.389   6.068 -0.0792 -0.1719 -0.1700
 1208TIP3    H125115   1.989   2.305   6.113  1.5640 -0.7636 -1.4731
 1208TIP3    H225116   1.966   2.452   6.139  2.4425 -1.0546  1.3016
 1209TIP3   OH225117   0.038   1.770   4.015 -0.2350  0.9270  0.5475
 1209TIP3    H125118   0.107   1.704   4.007  0.7187  1.5333  3.0934
 1209TIP3    H225119  -0.038   1.731   3.970  1.2258 -0.4560 -0.8556
 1210TIP3   OH225120   2.097   4.323  16.359 -0.3314 -0.0466 -0.1803
 1210TIP3    H125121   2.101   4.324  16.264  2.1881  0.7397 -0.1252
 1210TIP3    H225122   2.037   4.395  16.381 -0.3552  0.2483 -1.1549
 1211TIP3   OH225123   2.894   0.863  15.720  0.8763  0.1874  0.3958
 1211TIP3    H125124   2.801   0.884  15.725  0.9473  0.7365 -0.3292
 1211TIP3    H225125   2.937   0.947  15.709  1.6513  0.1357  2.6606
 1212TIP3   OH225126   4.143   0.985  13.800 -0.6929 -0.2850  0.3094
 1212TIP3    H125127   4.168   0.897  13.772  1.2158  0.3212 -0.0649
 1212TIP3    H225128   4.163   1.041  13.724 -1.7572  0.4879  0.5768
 1213TIP3   OH225129   4.204   1.620   3.418 -0.0995 -0.5996 -0.4034
 1213TIP3    H125130   4.239   1.567   3.490 -0.0451  0.4417  0.3620
 1213TIP3    H225131   4.280   1.668   3.385 -0.4629  0.3301  0.0859
 1214TIP3   OH225132   4.006   0.142  12.935 -0.5212  0.0422  0.0638
 1214TIP3    H125133   3.954   0.197  12.876  0.3867 -1.1271 -1.9523
 1214TIP3    H225134   4.046   0.077  12.877  1.0610 -0.7128  1.8957
 1215TIP3   OH225135   4.900   1.950  12.398  1.0470 -0.4923  0.1322
 1215TIP3    H125136   4.835   1.935  12.466  3.1898  1.3242  2.7949
 1215TIP3    H225137   4.956   1.873  12.400  1.1773 -0.3904  0.5548
 1216TIP3   OH225138   3.233   3.818  14.293 -0.3886 -0.2116  0.1818
 1216TIP3    H125139   3.271   3.734  14.268 -1.3634 -0.7746  0.5453
 1216TIP3    H225140   3.274   3.838  14.377 -0.2014 -0.3497  0.1245
 1217TIP3   OH225141   0.970   6.390   5.795  0.3568  0.0634  0.3854
 1217TIP3    H125142   0.998   6.368   5.706  1.6398 -2.2681  1.2622
 1217TIP3    H225143   0.971   6.306   5.841 -1.9252  0.9252  2.2062
 1218TIP3   OH225144   5.945   3.492   1.090 -0.4038  0.3461 -0.7689
 1218TIP3    H125145   5.892   3.412   1.101  1.9726 -1.4074 -1.3090
 1218TIP3    H225146   5.981   3.485   1.002  0.6859  1.4969 -0.4406
 1219TIP3   OH225147   0.277   6.552  13.372 -0.3950  0.3162  0.1559
 1219TIP3    H125148   0.197   6.517  13.333  0.2981  0.1068 -1.1503
 1219TIP3    H225149   0.259   6.646  13.383 -0.5389  0.4407 -0.9523
 1220TIP3   OH225150   4.230   3.425   0.338 -0.3279 -0.4227 -0.5977
 1220TIP3    H125151   4.243   3.338   0.377  1.1801  0.2284  0.4469
 1220TIP3    H225152   4.197   3.479   0.411  1.7731  0.6229 -0.3671
 1221TIP3   OH225153   2.759   4.360  13.529  0.4216 -0.3058 -0.0879
 1221TIP3    H125154   2.847   4.362  13.566  0.6984  0.2102 -0.7347
 1221TIP3    H225155   2.718   4.283  13.567  0.9699 -0.2526  0.6344
 1222TIP3   OH225156   2.196   6.552  10.454  0.3078  0.0799 -0.4674
 1222TIP3    H125157   2.213   6.620  10.519 -0.2322  1.6285 -1.8770
 1222TIP3    H225158   2.270   6.557  10.394 -0.3780  0.3663 -1.3133
 1223TIP3   OH225159   2.625   6.452   1.872  0.9662  0.3349  0.3723
 1223TIP3    H125160   2.702   6.465   1.928  0.3719  0.9678  1.0584
 1223TIP3    H225161   2.657   6.469   1.783  1.6938  0.2544  0.6079
 1224TIP3   OH225162   3.311   1.736   5.592 -0.4358 -0.4203  0.0911
 1224TIP3    H125163   3.298   1.679   5.516 -1.3123 -1.7539  1.2026
 1224TIP3    H225164   3.345   1.678   5.660 -1.4479  0.3384  1.2894
 1225TIP3   OH225165   3.554   2.299   5.836  0.7019 -0.2005 -0.0309
 1225TIP3    H125166   3.630   2.241   5.836  0.6973 -0.2511  1.8675
 1225TIP3    H225167   3.538   2.319   5.928 -0.6400  1.0731 -0.4929
 1226TIP3   OH225168   1.809   6.026  16.920  0.1890  0.1489  0.2045
 1226TIP3    H125169   1.821   6.114  16.884  0.3328 -0.1336 -0.4604
 1226TIP3    H225170   1.851   5.968  16.856  0.5594 -0.3649  0.8938
 1227TIP3   OH225171   6.612   4.913   0.073 -0.4948  0.7288  0.2372
 1227TIP3    H125172   6.706   4.908   0.056 -0.6367  0.1104 -0.4395
 1227TIP3    H225173   6.579   4.973   0.006 -0.5946  0.8669  0.4101
 1228TIP3   OH225174   4.884   1.585  16.789 -0.3655 -0.1293 -0.0580
 1228TIP3    H125175   4.972   1.566  16.756 -0.3312 -1.5116  0.7825
 1228TIP3    H225176   4.845   1.641  16.722  0.5466 -0.9182 -1.2889
 1229TIP3   OH225177   2.651   0.866   5.385 -0.3205 -0.5272 -0.4027
 1229TIP3    H125178   2.669   0.879   5.292 -0.9978 -1.5157 -0.6873
 1229TIP3    H225179   2.559   0.892   5.396 -0.1439 -0.0812  0.0618
 1230TIP3   OH225180   4.998   3.638   4.243 -0.7257 -0.2233  0.0870
 1230TIP3    H125181   4.982   3.683   4.326 -0.0162  1.8893 -0.8487
 1230TIP3    H225182   5.093   3.645   4.230 -1.0074  1.0887 -1.6907
 1231TIP3   OH225183   4.468   4.919  13.564  0.2819  0.3817  0.3529
 1231TIP3    H125184   4.449   5.008  13.537 -2.1154 -0.0922  0.2592
 1231TIP3    H225185   4.563   4.917  13.576  0.5746  2.5046 -1.1120
 1232TIP3   OH225186   4.886   2.401   0.766 -0.1769  0.0998 -0.4145
 1232TIP3    H125187   4.861   2.403   0.673 -1.0276 -0.8108 -0.2228
 1232TIP3    H225188   4.981   2.415   0.765 -0.2643  0.7283 -1.3775
 1233TIP3   OH225189   4.912   5.353   2.641  0.2018 -0.3964 -0.8731
 1233TIP3    H125190   4.966   5.295   2.696 -1.3501  0.4721  1.7523
 1233TIP3    H225191   4.857   5.294   2.591 -0.5419 -1.2850  0.8949
 1234TIP3   OH225192   5.348   2.494  14.284  0.5506 -0.5266 -0.6428
 1234TIP3    H125193   5.284   2.553  14.324  1.4234 -0.1554  0.2651
 1234TIP3    H225194   5.317   2.407  14.307 -0.5944 -0.4366 -1.7526
 1235TIP3   OH225195   2.386   0.291   2.915  0.4121 -0.3503 -0.5008
 1235TIP3    H125196   2.398   0.257   2.827  0.6542 -0.4761 -0.4193
 1235TIP3    H225197   2.459   0.351   2.929  0.8024 -0.9017 -0.1126
 1236TIP3   OH225198   6.637   4.270   1.613 -0.1935 -0.6320 -0.1093
 1236TIP3    H125199   6.705   4.204   1.606  0.1936 -0.3436  0.7888
 1236TIP3    H225200   6.578   4.252   1.540  1.6305  0.0509 -1.8202
 1237TIP3   OH225201   2.145   3.088   4.355 -0.1830  0.7453  0.3901
 1237TIP3    H125202   2.124   3.089   4.262  0.2599  1.5839  0.2895
 1237TIP3    H225203   2.203   3.163   4.368  1.3087 -0.4650  0.9996
 1238TIP3   OH225204   5.137   3.783  16.461  0.0229 -0.3973  0.2170
 1238TIP3    H125205   5.109   3.719  16.526  0.2409  0.5100  1.2395
 1238TIP3    H225206   5.229   3.762  16.445 -0.0266 -0.6145  0.2137
 1239TIP3   OH225207   6.531   2.188  14.822  0.0795 -0.5430  0.1193
 1239TIP3    H125208   6.623   2.211  14.836 -0.2285  1.3555 -0.6139
 1239TIP3    H225209   6.529   2.093  14.823  1.9426 -0.6055  0.7919
 1240TIP3   OH225210   2.426   3.590   3.635 -0.2851 -0.2942  0.3382
 1240TIP3    H125211   2.414   3.513   3.691  1.8979 -0.6062  0.4568
 1240TIP3    H225212   2.460   3.555   3.553 -1.8639  0.3283 -0.6203
 1241TIP3   OH225213   4.099   0.215   5.996 -0.5164 -0.3470 -0.2295
 1241TIP3    H125214   4.117   0.121   6.003 -0.0678 -0.2095  0.6269
 1241TIP3    H225215   4.186   0.255   5.998 -0.7844  0.1882  1.1880
 1242TIP3   OH225216   3.019   0.284   0.589  0.5115 -0.0477  0.2861
 1242TIP3    H125217   3.084   0.259   0.524 -0.5219  1.5292 -1.4524
 1242TIP3    H225218   2.987   0.201   0.624 -0.2261 -1.0850 -2.6151
 1243TIP3   OH225219   4.160   6.732   5.303 -0.1636  0.3767  0.1132
 1243TIP3    H125220   4.087   6.699   5.355 -0.9371 -0.3236 -1.3622
 1243TIP3    H225221   4.123   6.750   5.217  1.2842  0.5845 -0.5103
 1244TIP3   OH225222   2.707   1.598   4.230  0.6415 -0.3058 -0.5469
 1244TIP3    H125223   2.623   1.636   4.254  2.1343  2.4623  0.9047
 1244TIP3    H225224   2.731   1.544   4.305 -0.0807 -1.6322 -1.2439
 1245TIP3   OH225225   4.143   0.018  13.418 -0.0613 -0.0888 -0.2112
 1245TIP3    H125226   4.052  -0.004  13.397 -0.5212  0.3174  1.2372
 1245TIP3    H225227   4.173   0.069  13.343 -0.9576 -0.4090 -0.8064
 1246TIP3   OH225228   4.456   5.757   6.095  0.1827 -0.3409 -0.1283
 1246TIP3    H125229   4.503   5.834   6.127  0.1053 -0.7655  1.0453
 1246TIP3    H225230   4.413   5.787   6.014  2.8752 -0.0927 -1.5784
 1247TIP3   OH225231   3.204   0.321  13.598 -0.3820  0.1971  0.6352
 1247TIP3    H125232   3.235   0.252  13.538  0.3321  0.7863  0.3095
 1247TIP3    H225233   3.189   0.276  13.681  0.8501 -0.2102  0.6470
 1248TIP3   OH225234   6.403   4.998  11.672 -0.2750  0.2686 -0.1509
 1248TIP3    H125235   6.433   4.907  11.675 -1.2906 -0.0610  0.2524
 1248TIP3    H225236   6.433   5.030  11.587  2.1654  0.3064  0.6236
 1249TIP3   OH225237   0.015   5.559  15.569 -0.3146 -0.1732  0.0142
 1249TIP3    H125238   0.045   5.470  15.587 -0.2273 -0.3760 -1.0486
 1249TIP3    H225239   0.095   5.610  15.561 -0.3652  0.5274  2.8549
 1250TIP3   OH225240   6.032   5.981  15.692 -0.3368 -0.4623  0.2330
 1250TIP3    H125241   6.060   5.891  15.710 -2.8051 -1.2587  0.4858
 1250TIP3    H225242   5.941   5.972  15.664  0.1381  1.7540 -2.3528
 1251TIP3   OH225243   3.945   2.100  14.957 -0.3149 -0.6490  0.2702
 1251TIP3    H125244   3.961   2.014  14.918 -0.6383 -1.1725  1.2596
 1251TIP3    H225245   4.028   2.146  14.949 -0.1786 -0.9919 -0.3961
 1252TIP3   OH225246   1.149   2.551  13.964  0.3878  0.4320 -0.2157
 1252TIP3    H125247   1.243   2.553  13.984  0.7501 -1.4025 -1.4102
 1252TIP3    H225248   1.107   2.594  14.038  2.0959  0.2711  0.8991
 1253TIP3   OH225249   1.115   1.856  13.491 -0.1846  0.5994  0.3582
 1253TIP3    H125250   1.071   1.938  13.509  0.7450  1.2056 -0.0308
 1253TIP3    H225251   1.121   1.852  13.396 -0.3019  0.0375  0.3709
 1254TIP3   OH225252   2.025   1.130   1.967 -0.2470 -0.3933 -0.6045
 1254TIP3    H125253   2.073   1.072   2.026 -1.2827 -0.2337  0.4302
 1254TIP3    H225254   2.049   1.218   1.994 -0.0758 -0.3174 -0.9876
 1255TIP3   OH225255   4.022   0.396   1.230 -0.0519  0.0231  0.5405
 1255TIP3    H125256   3.946   0.360   1.276  0.0638 -0.0167  0.7004
 1255TIP3    H225257   4.013   0.491   1.242 -0.1518  0.0264  0.4413
 1256TIP3   OH225258   5.122   3.276   5.574  0.0620  0.2094  0.3953
 1256TIP3    H125259   5.211   3.247   5.595  0.3421  0.5234 -0.3319
 1256TIP3    H225260   5.128   3.307   5.484 -0.9932 -0.6240  0.0239
 1257TIP3   OH225261   5.176   0.382  15.660  0.1905 -0.3330 -0.2624
 1257TIP3    H125262   5.143   0.389  15.570  1.1086 -0.1336 -0.5905
 1257TIP3    H225263   5.179   0.288  15.677  0.4757 -0.3916 -0.6199
 1258TIP3   OH225264   1.507   3.242   0.629  0.2745 -0.3129  0.4172
 1258TIP3    H125265   1.448   3.205   0.564  0.4473 -2.8145  1.5633
 1258TIP3    H225266   1.452   3.257   0.706  0.3558  1.2939  0.1993
 1259TIP3   OH225267   4.276   1.050   1.948  0.2801  0.3549  0.0713
 1259TIP3    H125268   4.344   1.105   1.988  0.4491 -0.2517  0.6321
 1259TIP3    H225269   4.210   1.039   2.017  1.2589 -1.9023  0.7337
 1260TIP3   OH225270   1.281   3.151  13.699 -0.4634 -0.2146 -0.1784
 1260TIP3    H125271   1.285   3.236  13.743  1.4908 -1.2775  1.9328
 1260TIP3    H225272   1.252   3.171  13.610 -0.2995  2.6087  0.3095
 1261TIP3   OH225273   1.545   6.331   3.140 -0.5297  0.3118 -0.3709
 1261TIP3    H125274   1.624   6.283   3.115  0.2367  1.4594 -0.2457
 1261TIP3    H225275   1.578   6.415   3.174 -1.8135  0.9264 -0.5864
 1262TIP3   OH225276   6.646   1.550  12.494  0.2658 -0.2579 -0.3543
 1262TIP3    H125277   6.594   1.485  12.448  0.6105  0.2773 -1.5475
 1262TIP3    H225278   6.607   1.634  12.470 -1.6500 -0.0088  2.9893
 1263TIP3   OH225279   2.320   3.652   0.464 -0.0071  0.1735  0.2559
 1263TIP3    H125280   2.294   3.731   0.416 -2.6035 -0.2811  0.7650
 1263TIP3    H225281   2.332   3.585   0.397 -1.2679  0.1411  0.0434
 1264TIP3   OH225282   6.220   0.765   5.805  0.3613  0.3712 -0.0088
 1264TIP3    H125283   6.125   0.778   5.804  0.5312  2.0604 -2.4790
 1264TIP3    H225284   6.257   0.853   5.807  1.9019 -0.2555  0.5967
 1265TIP3   OH225285   6.754   3.031  11.418  0.0035  0.0958  0.2697
 1265TIP3    H125286   6.791   3.092  11.482  0.8527  2.3425 -2.2186
 1265TIP3    H225287   6.830   2.993  11.374 -0.5692 -1.3361  0.4710
 1266TIP3   OH225288   3.292   6.330  12.155  0.4459 -0.1063 -0.0766
 1266TIP3    H125289   3.278   6.410  12.205 -2.3597 -0.0665 -0.7229
 1266TIP3    H225290   3.284   6.357  12.064 -0.3420 -1.0538 -0.3118
 1267TIP3   OH225291   3.126   1.886   3.322  0.3159  0.1003  0.1021
 1267TIP3    H125292   3.052   1.853   3.272  1.7527 -1.6378 -1.0025
 1267TIP3    H225293   3.191   1.815   3.320  1.3261  0.8149  2.5944
 1268TIP3   OH225294   0.933   5.426  14.667 -0.7410 -0.1467  0.1757
 1268TIP3    H125295   0.868   5.361  14.641 -0.6370 -0.3514  0.4323
 1268TIP3    H225296   1.009   5.375  14.696 -0.3076  0.0924 -0.5083
 1269TIP3   OH225297   3.948   2.774   0.328 -0.5478 -0.1354  0.0338
 1269TIP3    H125298   3.949   2.863   0.293  2.9796 -0.2332 -0.4862
 1269TIP3    H225299   4.039   2.757   0.353 -1.6092 -2.5975  2.8604
 1270TIP3   OH225300   4.755   0.501  16.621 -0.2198  0.3784 -0.3468
 1270TIP3    H125301   4.850   0.486  16.617 -0.1358  1.0242 -0.9976
 1270TIP3    H225302   4.739   0.535  16.709  0.0570 -0.2994 -0.0220
 1271TIP3   OH225303   5.535   4.993  12.889 -0.2427 -0.2586 -0.5994
 1271TIP3    H125304   5.553   4.964  12.799 -1.5083  2.7579 -1.9629
 1271TIP3    H225305   5.457   4.943  12.915 -0.9915  0.1468 -1.9537
 1272TIP3   OH225306   2.281   5.966  12.074  0.0562  0.2115 -0.5690
 1272TIP3    H125307   2.255   6.055  12.050  0.3605  0.3862 -0.2524
 1272TIP3    H225308   2.200   5.915  12.066 -0.0642  0.4639 -0.9943
 1273TIP3   OH225309   0.084   5.909   0.321 -0.1883 -0.3038  0.3850
 1273TIP3    H125310   0.025   5.870   0.257 -0.4865 -0.0002  0.4721
 1273TIP3    H225311   0.158   5.940   0.269 -0.1363 -0.6259  0.2666
 1274TIP3   OH225312   6.694   0.417  13.814 -0.0303 -0.1857 -0.4224
 1274TIP3    H125313   6.772   0.451  13.771  0.2338 -2.2203 -1.6958
 1274TIP3    H225314   6.652   0.364  13.747 -2.0653  0.1569  0.5144
 1275TIP3   OH225315   2.663   0.669   5.932  0.2871  0.2441  0.1803
 1275TIP3    H125316   2.620   0.719   6.001  0.7619  0.3213  0.4182
 1275TIP3    H225317   2.711   0.734   5.881  1.3909 -0.0189  0.8416
 1276TIP3   OH225318   1.692   2.031   1.119 -0.5345 -0.2950  0.2358
 1276TIP3    H125319   1.650   2.105   1.074 -0.6969 -0.1636  0.5944
 1276TIP3    H225320   1.709   2.064   1.207  2.0074  0.2892 -0.3924
 1277TIP3   OH225321   1.517   5.310  13.540 -0.5928 -0.1592 -0.0158
 1277TIP3    H125322   1.479   5.398  13.547  1.1372  0.6018  0.2224
 1277TIP3    H225323   1.527   5.281  13.631 -0.8229 -0.4671 -0.0863
 1278TIP3   OH225324   1.424   3.725   2.804  0.9345  0.3640 -0.3031
 1278TIP3    H125325   1.392   3.695   2.719 -1.6987 -0.2280  0.7886
 1278TIP3    H225326   1.519   3.723   2.796  0.8048  0.9325 -3.4104
 1279TIP3   OH225327   0.638   5.549  13.898 -0.3613 -0.1087 -0.0376
 1279TIP3    H125328   0.587   5.616  13.944  0.6898  1.3590 -0.9370
 1279TIP3    H225329   0.583   5.525  13.824 -0.8685 -0.4580  0.4470
 1280TIP3   OH225330   6.848   6.535   1.424  0.2748 -0.0889 -0.0302
 1280TIP3    H125331   6.771   6.532   1.368  0.7188 -0.6612 -0.6318
 1280TIP3    H225332   6.814   6.546   1.512 -0.4836 -0.1829 -0.3089
 1281TIP3   OH225333   1.546   2.962   0.172 -0.5258  0.0254  0.6765
 1281TIP3    H125334   1.523   3.010   0.092 -0.5042 -1.7724 -0.4731
 1281TIP3    H225335   1.603   3.022   0.221 -0.9730  1.3692 -0.3861
 1282TIP3   OH225336   4.349   6.611  12.982  0.1283 -0.0821 -0.1760
 1282TIP3    H125337   4.298   6.539  13.018 -0.6761  0.1483 -0.8416
 1282TIP3    H225338   4.435   6.572  12.965 -0.0009 -0.6321  0.3603
 1283TIP3   OH225339   5.847   6.626  12.211 -0.1620  0.2773 -0.0838
 1283TIP3    H125340   5.888   6.589  12.289  0.4391 -1.8393 -1.3489
 1283TIP3    H225341   5.754   6.627  12.231  0.0453  0.4181  0.9160
 1284TIP3   OH225342   0.652   1.839  15.821  0.0180 -0.3574 -0.5344
 1284TIP3    H125343   0.622   1.754  15.853  0.4169  0.1037  1.1526
 1284TIP3    H225344   0.571   1.886  15.799 -0.5977  0.5898  3.2158
 1285TIP3   OH225345   2.788   1.246  12.207  0.1815 -0.2545  0.3292
 1285TIP3    H125346   2.846   1.179  12.171  1.2780 -1.1449  3.4576
 1285TIP3    H225347   2.831   1.329  12.184  0.5858 -0.7345 -0.7233
 1286TIP3   OH225348   2.990   3.932   0.531  0.0873 -0.0085  0.0910
 1286TIP3    H125349   2.913   3.941   0.587 -1.2655  2.2562 -1.9542
 1286TIP3    H225350   3.051   3.998   0.564  1.0713 -1.5120  1.4368
 1287TIP3   OH225351   2.276   0.252   0.970 -0.0864  0.3617 -0.2288
 1287TIP3    H125352   2.369   0.236   0.988 -0.4567 -1.1118  0.5042
 1287TIP3    H225353   2.256   0.334   1.015  0.2075 -0.7402  2.0239
 1288TIP3   OH225354   5.841   2.467  12.634 -0.6819  0.1379  0.2157
 1288TIP3    H125355   5.870   2.558  12.631 -1.2722  0.3175 -0.1932
 1288TIP3    H225356   5.905   2.423  12.690 -0.3684  0.7922  0.3763
 1289TIP3   OH225357   2.445   4.906   0.872  0.1171 -0.1852  0.0659
 1289TIP3    H125358   2.386   4.931   0.943  1.1596  0.1488  0.8362
 1289TIP3    H225359   2.403   4.830   0.831 -0.0389 -0.9893  1.6425
 1290TIP3   OH225360   2.684   1.723   2.730  0.0636 -0.1230  1.0006
 1290TIP3    H125361   2.748   1.769   2.785  0.3609  1.4035 -0.5289
 1290TIP3    H225362   2.655   1.649   2.783  1.2889  0.5452  2.6817
 1291TIP3   OH225363   2.370   0.455   4.136 -0.5565  0.1182 -0.8246
 1291TIP3    H125364   2.379   0.398   4.060 -0.5293  0.7854 -1.3396
 1291TIP3    H225365   2.459   0.465   4.170 -0.8388 -2.0388  0.7309
 1292TIP3   OH225366   2.853   0.409   6.216 -0.0117  0.3019 -0.4771
 1292TIP3    H125367   2.938   0.425   6.174 -0.7820  0.8182 -1.9113
 1292TIP3    H225368   2.811   0.342   6.161 -0.4286 -0.1422  0.3709
 1293TIP3   OH225369   2.884   4.727  16.144 -0.2795  0.3266  0.1888
 1293TIP3    H125370   2.804   4.766  16.179  0.6583  2.6701 -0.1235
 1293TIP3    H225371   2.856   4.683  16.064 -1.2921  0.9529  0.1800
 1294TIP3   OH225372   3.666   3.818  14.051 -0.1267  0.8520  0.2450
 1294TIP3    H125373   3.675   3.888  14.116  0.3004  2.0996 -1.0946
 1294TIP3    H225374   3.744   3.827  13.996 -0.6651  0.0575 -0.6661
 1295TIP3   OH225375   2.621   2.994   5.003 -0.4614  0.0483 -0.5037
 1295TIP3    H125376   2.667   3.037   4.931 -1.1644 -0.8139 -1.4918
 1295TIP3    H225377   2.610   3.063   5.069  0.3895  0.7914 -1.1189
 1296TIP3   OH225378   4.677   3.128  11.457  0.1116  0.1418 -0.2242
 1296TIP3    H125379   4.586   3.107  11.478 -1.0491  2.4805 -2.2987
 1296TIP3    H225380   4.716   3.153  11.541 -1.0083 -1.2945  0.7651
 1297TIP3   OH225381   0.510   5.005  15.928 -0.4661 -0.2438  0.1530
 1297TIP3    H125382   0.418   4.982  15.918 -0.1163 -1.7047  0.1209
 1297TIP3    H225383   0.518   5.090  15.885 -1.3543 -1.0697 -1.7249
 1298TIP3   OH225384   5.514   5.641   0.959 -0.0153 -0.8290 -0.1282
 1298TIP3    H125385   5.551   5.553   0.952  0.3554 -0.7275  0.4877
 1298TIP3    H225386   5.542   5.672   1.045  1.6210  0.6863 -1.1203
 1299TIP3   OH225387   0.956   6.356   0.175 -0.0478  0.1882 -0.6325
 1299TIP3    H125388   0.957   6.392   0.264  0.4175 -0.8201 -0.2111
 1299TIP3    H225389   1.046   6.364   0.145  0.4306 -1.9234  0.0477
 1300TIP3   OH225390   2.396   6.473  15.141  0.4464 -0.3725 -0.5181
 1300TIP3    H125391   2.373   6.393  15.188  0.3104 -0.6863 -1.1177
 1300TIP3    H225392   2.487   6.490  15.168  0.7078 -1.1007 -0.9005
 1301TIP3   OH225393   2.578   6.250  15.544  0.0839 -0.7282 -0.0157
 1301TIP3    H125394   2.552   6.250  15.636  1.8914 -1.2357  0.5426
 1301TIP3    H225395   2.511   6.198  15.500 -0.0279 -1.7200  1.2701
 1302TIP3   OH225396   1.487   2.937   1.186  0.2776 -0.0436 -0.0840
 1302TIP3    H125397   1.493   2.975   1.099  2.1864  0.9530  0.4102
 1302TIP3    H225398   1.437   3.001   1.237 -0.0167 -0.1693 -0.2127
 1303TIP3   OH225399   2.551   3.333  11.084  0.0500  0.1589 -0.0385
 1303TIP3    H125400   2.583   3.272  11.018  0.0452  0.6142 -0.4703
 1303TIP3    H225401   2.479   3.380  11.041 -1.2146 -0.8438  0.9141
 1304TIP3   OH225402   0.064   0.264   5.559 -0.7779 -0.3784  0.5417
 1304TIP3    H125403   0.102   0.351   5.572  0.9979 -1.0250 -0.0735
 1304TIP3    H225404  -0.006   0.259   5.625 -1.1204  1.5966  0.4040
 1305TIP3   OH225405   0.002   4.393   3.055 -0.2944  0.3203  0.4337
 1305TIP3    H125406  -0.046   4.391   3.138 -0.2652  0.6958  0.4634
 1305TIP3    H225407  -0.053   4.446   2.998 -2.7867 -3.7082 -1.3448
 1306TIP3   OH225408   3.805   4.175  10.923  0.0339  0.4296 -0.1729
 1306TIP3    H125409   3.850   4.252  10.956  1.0135 -0.2636  0.1573
 1306TIP3    H225410   3.803   4.114  10.997 -1.2005  0.3163 -0.2675
 1307TIP3   OH225411   2.988   4.258   7.525 -0.4599  0.3733  0.0170
 1307TIP3    H125412   3.036   4.295   7.452  0.3215  1.2227  0.9306
 1307TIP3    H225413   2.946   4.334   7.567  2.7007  0.6962  3.0730
 1308TIP3   OH225414   1.452   4.084   2.442 -0.3195 -0.2376  0.0109
 1308TIP3    H125415   1.506   4.130   2.507 -1.7197 -0.8103  1.6507
 1308TIP3    H225416   1.507   4.012   2.411  0.4150  0.1199  0.4657
 1309TIP3   OH225417   3.438   6.055   5.790  0.3224 -0.1344 -0.1214
 1309TIP3    H125418   3.429   6.101   5.707  0.6945  1.6831  0.8032
 1309TIP3    H225419   3.499   6.108   5.841  0.7226 -1.6329  1.0402
 1310TIP3   OH225420   3.058   3.788   3.350 -0.3187 -0.0609  0.1435
 1310TIP3    H125421   3.114   3.775   3.273 -0.5704  1.6703 -0.3757
 1310TIP3    H225422   2.979   3.830   3.316 -0.7853 -0.0081  1.2480
 1311TIP3   OH225423   3.541   3.288  14.770  0.6057 -0.0296  0.0033
 1311TIP3    H125424   3.632   3.261  14.770  0.4648 -0.5193  0.0147
 1311TIP3    H225425   3.525   3.322  14.857  1.2854  1.8391 -0.5627
 1312TIP3   OH225426   1.540   6.420   2.286 -1.0532  0.3510  0.2342
 1312TIP3    H125427   1.589   6.498   2.261  1.4594 -1.3713 -0.6192
 1312TIP3    H225428   1.588   6.385   2.361 -0.3450 -1.8552 -1.1436
 1313TIP3   OH225429   0.472   4.115   1.062 -0.5453  0.2475  0.0167
 1313TIP3    H125430   0.531   4.184   1.030 -0.1815  0.0715  0.3035
 1313TIP3    H225431   0.445   4.145   1.149 -1.2761  0.5686 -0.3187
 1314TIP3   OH225432   2.653   2.657  15.507  0.0213 -0.2044 -0.1445
 1314TIP3    H125433   2.698   2.609  15.438  0.1525 -0.0254 -0.1845
 1314TIP3    H225434   2.694   2.744  15.507  0.7462 -0.5192  0.8386
 1315TIP3   OH225435   1.385   2.203  15.798  0.3813 -0.0746  0.0946
 1315TIP3    H125436   1.411   2.159  15.717 -3.6444  0.4987 -1.7925
 1315TIP3    H225437   1.320   2.144  15.837 -0.5714  1.3820  0.7886
 1316TIP3   OH225438   0.677   4.857   1.261 -0.2956 -0.3329 -0.3337
 1316TIP3    H125439   0.727   4.893   1.188  0.5173  0.3910  0.5588
 1316TIP3    H225440   0.599   4.913   1.267 -1.3949 -1.5792 -1.8468
 1317TIP3   OH225441   0.657   5.018   0.598 -0.5765  0.0345 -1.2243
 1317TIP3    H125442   0.653   5.076   0.522  1.2325  2.2153  0.2265
 1317TIP3    H225443   0.716   4.947   0.571 -0.4644  0.4413 -2.0774
 1318TIP3   OH225444   1.021   6.688   4.607  0.5711  0.2981 -0.1164
 1318TIP3    H125445   0.992   6.628   4.676  1.9014 -0.7763 -0.4458
 1318TIP3    H225446   1.016   6.636   4.527 -0.2894  1.3161 -0.7534
 1319TIP3   OH225447   4.556   3.121  14.053 -0.1786 -0.3775  0.1469
 1319TIP3    H125448   4.507   3.198  14.023  0.7050  0.3683  0.5677
 1319TIP3    H225449   4.492   3.049  14.051 -1.9396  0.9452  2.7374
 1320TIP3   OH225450   1.728   1.584  13.411  0.1369 -0.8897 -0.5216
 1320TIP3    H125451   1.728   1.559  13.319  0.9546 -1.1439 -0.4584
 1320TIP3    H225452   1.659   1.530  13.451 -2.1684  1.1623 -1.4635
 1321TIP3   OH225453   5.270   3.242   6.359 -0.4762  0.1355 -0.1426
 1321TIP3    H125454   5.245   3.332   6.337 -1.9527 -0.0851  0.5386
 1321TIP3    H225455   5.268   3.239   6.455  0.8020 -0.3035 -0.1066
 1322TIP3   OH225456   2.380   2.799   1.627 -0.4760  0.9734  0.1423
 1322TIP3    H125457   2.407   2.839   1.544  0.1534  0.9210  0.3199
 1322TIP3    H225458   2.349   2.873   1.679 -0.3506  1.0826  0.0642
 1323TIP3   OH225459   0.457   4.701  14.472  1.1081  0.2228 -0.7524
 1323TIP3    H125460   0.482   4.717  14.381  3.2954 -0.1331 -0.2706
 1323TIP3    H225461   0.490   4.613  14.491  0.1185  0.0359  0.2046
 1324TIP3   OH225462   6.575   2.459  12.887 -0.6360  0.3024 -0.1799
 1324TIP3    H125463   6.593   2.375  12.930 -1.3802  0.4839  0.5205
 1324TIP3    H225464   6.529   2.510  12.954 -0.4694  1.1537 -0.7075
 1325TIP3   OH225465   3.908   2.019  12.379 -0.5784  0.1754 -0.4230
 1325TIP3    H125466   3.960   1.976  12.311 -2.2258  0.7233 -2.1197
 1325TIP3    H225467   3.825   1.972  12.379 -0.7630  0.4373  0.9870
 1326TIP3   OH225468   6.399   5.379  11.748 -0.4586  0.2101  0.1121
 1326TIP3    H125469   6.321   5.326  11.764 -0.0789 -0.5064 -0.3450
 1326TIP3    H225470   6.469   5.315  11.733 -0.0526  0.8338 -0.7573
 1327TIP3   OH225471   1.391   0.285  14.389  0.3108  0.0932  0.4164
 1327TIP3    H125472   1.353   0.204  14.423 -0.2940 -0.0324 -0.5243
 1327TIP3    H225473   1.485   0.271  14.394  0.2339 -0.1802  1.3913
 1328TIP3   OH225474   3.774   1.127  16.322 -0.3249  0.2621 -0.5913
 1328TIP3    H125475   3.786   1.221  16.309 -0.8566  0.3845 -0.2118
 1328TIP3    H225476   3.681   1.112  16.304 -0.4743 -0.0183  0.3702
 1329TIP3   OH225477   3.833   4.266   0.640 -0.2102 -0.5219  0.0937
 1329TIP3    H125478   3.823   4.355   0.674 -0.0370 -0.5284  0.1585
 1329TIP3    H225479   3.756   4.220   0.673 -0.8274 -0.1373 -0.7619
 1330TIP3   OH225480   0.241   3.551  13.683 -0.3159  0.3790 -0.1243
 1330TIP3    H125481   0.201   3.626  13.727  0.9341  0.4226  1.0090
 1330TIP3    H225482   0.211   3.475  13.733 -0.1895  0.2838 -0.1921
 1331TIP3   OH225483   6.097   4.967  16.360 -0.4416 -0.7655 -0.1578
 1331TIP3    H125484   6.026   4.984  16.421  0.1044  0.8005  0.1009
 1331TIP3    H225485   6.081   4.878  16.328 -1.1138 -1.3790  1.7449
 1332TIP3   OH225486   6.612   3.817  14.296 -0.2582 -0.1355 -0.2220
 1332TIP3    H125487   6.639   3.728  14.274  0.8397 -0.0411  0.6477
 1332TIP3    H225488   6.693   3.861  14.324 -0.6505  1.3562 -1.3171
 1333TIP3   OH225489   2.729   0.519   2.135  0.7011 -0.0907 -0.3976
 1333TIP3    H125490   2.740   0.603   2.180  2.3620  0.4030 -1.6142
 1333TIP3    H225491   2.672   0.468   2.193  0.9924  1.2694  1.1737
 1334TIP3   OH225492   0.384   1.373   4.203  0.0469  0.6230  0.4821
 1334TIP3    H125493   0.338   1.317   4.265  0.1525  1.1333  1.0255
 1334TIP3    H225494   0.434   1.312   4.149  0.5970  0.2301  1.4230
 1335TIP3   OH225495   2.174   4.242   6.551 -0.2987  0.2010 -0.1674
 1335TIP3    H125496   2.119   4.320   6.542 -1.7020  0.0392  4.4707
 1335TIP3    H225497   2.239   4.265   6.617  1.1716 -1.6801 -0.8567
 1336TIP3   OH225498   4.905   3.513   1.467  0.0403  0.0109 -0.4133
 1336TIP3    H125499   4.961   3.442   1.498  0.6689  0.9109  0.6135
 1336TIP3    H225500   4.815   3.482   1.483  0.2868 -0.7650 -0.5026
 1337TIP3   OH225501   3.650   5.954   5.162 -0.0947 -0.0426 -0.1076
 1337TIP3    H125502   3.684   5.931   5.249 -1.7771  0.9871  0.8906
 1337TIP3    H225503   3.579   5.893   5.147  1.3435 -1.4415 -1.6724
 1338TIP3   OH225504   3.622   1.291  15.768 -0.6112  0.1897 -0.5349
 1338TIP3    H125505   3.560   1.258  15.834 -0.8181 -0.2916 -0.9669
 1338TIP3    H225506   3.705   1.247  15.789 -0.3427  1.0101  0.1862
 1339TIP3   OH225507   4.736   2.064  13.641  0.0660  0.1515 -0.1623
 1339TIP3    H125508   4.816   2.014  13.659  0.1357  0.3656  0.1264
 1339TIP3    H225509   4.737   2.078  13.546 -0.6207 -1.5343 -0.4527
 1340TIP3   OH225510   5.447   0.203  16.876 -0.1609  0.2272 -0.5997
 1340TIP3    H125511   5.525   0.248  16.845  0.3197 -0.4086 -0.3549
 1340TIP3    H225512   5.443   0.225  16.969 -1.6055  2.1430 -1.0694
 1341TIP3   OH225513   1.265   3.871   4.359 -0.3081  0.2981 -0.2741
 1341TIP3    H125514   1.354   3.844   4.335 -0.3501 -0.0137 -0.0856
 1341TIP3    H225515   1.218   3.788   4.374 -0.6829  0.4537 -0.5568
 1342TIP3   OH225516   4.113   0.515  14.507  0.0454  0.4726  0.3310
 1342TIP3    H125517   4.104   0.543  14.416 -2.6496  1.0725  0.6873
 1342TIP3    H225518   4.088   0.423  14.506 -2.5591  1.0845  0.7198
 1343TIP3   OH225519   6.825   5.245   5.801 -0.2836  0.2561 -0.2194
 1343TIP3    H125520   6.742   5.198   5.804 -0.5158  0.3323 -2.7372
 1343TIP3    H225521   6.889   5.183   5.836 -0.9512 -1.0414 -1.1995
 1344TIP3   OH225522   6.545   6.622  16.487 -0.0343  0.0135 -0.7554
 1344TIP3    H125523   6.596   6.611  16.567 -0.3035  0.4720 -0.5185
 1344TIP3    H225524   6.593   6.688  16.436 -1.9391  2.8353  0.8218
 1345TIP3   OH225525   3.584   0.445   6.381 -0.2156  0.2668  0.0315
 1345TIP3    H125526   3.513   0.385   6.359 -0.9547  1.1986 -0.1802
 1345TIP3    H225527   3.540   0.526   6.408  0.7629  1.2011 -1.0818
 1346TIP3   OH225528   2.090   4.687  15.350 -0.2518 -0.1402  0.8887
 1346TIP3    H125529   2.003   4.659  15.378 -0.3512 -0.8525 -0.1229
 1346TIP3    H225530   2.088   4.782  15.360 -2.1119  0.1981 -1.6971
 1347TIP3   OH225531   1.742   2.341  14.235 -0.0888 -0.7452 -0.3523
 1347TIP3    H125532   1.801   2.288  14.180 -0.4662  0.2843 -1.8242
 1347TIP3    H225533   1.776   2.430  14.226 -1.2085 -0.3058 -0.3423
 1348TIP3   OH225534   3.605   1.946   2.344  0.1765 -0.4074 -0.5140
 1348TIP3    H125535   3.556   1.938   2.262  1.2548 -0.3482 -1.1708
 1348TIP3    H225536   3.601   2.040   2.365  2.6425  0.1802 -2.2596
 1349TIP3   OH225537   3.861   3.049   6.120 -0.9268  0.6359  0.4276
 1349TIP3    H125538   3.823   3.127   6.161  0.0024  1.9965 -1.1344
 1349TIP3    H225539   3.955   3.061   6.129 -0.7841 -0.7228  0.8333
 1350TIP3   OH225540   1.995   1.610  13.448  0.2783  0.1566 -0.6177
 1350TIP3    H125541   1.899   1.606  13.444  0.2315 -3.6128  0.3970
 1350TIP3    H225542   2.021   1.642  13.362 -1.8621 -0.1070 -1.4319
 1351TIP3   OH225543   4.476   1.448  12.017 -0.4949 -0.2381  0.5408
 1351TIP3    H125544   4.426   1.436  11.937 -1.6279  1.9232  0.8391
 1351TIP3    H225545   4.413   1.482  12.080  1.1224  1.7485  1.2078
 1352TIP3   OH225546   2.706   3.166   1.075 -0.0126  0.3187 -0.7036
 1352TIP3    H125547   2.755   3.191   0.997 -0.3850  0.9672 -0.7399
 1352TIP3    H225548   2.772   3.138   1.138  0.3193  0.1966 -1.1066
 1353TIP3   OH225549   6.278   2.957  15.529  0.0393  0.6214  0.5729
 1353TIP3    H125550   6.215   3.020  15.493 -0.5720 -0.1118  0.3429
 1353TIP3    H225551   6.238   2.871  15.514  0.7978  0.1795  1.0112
 1354TIP3   OH225552   4.495   1.860  12.473  0.0530  0.0499 -0.1392
 1354TIP3    H125553   4.457   1.773  12.480  1.0927 -0.6114 -1.9513
 1354TIP3    H225554   4.573   1.856  12.529 -0.5744  0.2588  0.7761
 1355TIP3   OH225555   6.517   1.741   5.507  0.2070  0.2816 -0.0190
 1355TIP3    H125556   6.573   1.812   5.475  0.4865  1.0086  1.9356
 1355TIP3    H225557   6.437   1.786   5.537  0.1129 -0.2967  0.6286
 1356TIP3   OH225558   2.856   6.444   0.518 -0.5986 -0.4129  0.2205
 1356TIP3    H125559   2.862   6.537   0.537 -1.5979 -0.1398 -0.6864
 1356TIP3    H225560   2.808   6.439   0.435  1.3254 -1.6440 -0.8895
 1357TIP3   OH225561   2.255   5.582   5.138  0.3450  0.2926 -0.6977
 1357TIP3    H125562   2.295   5.582   5.224  1.6616  0.2619 -1.2818
 1357TIP3    H225563   2.328   5.565   5.078 -0.5696  0.1404 -1.7965
 1358TIP3   OH225564   5.246   5.103   5.406  0.2209  0.5129 -0.3158
 1358TIP3    H125565   5.233   5.036   5.339 -0.9605  0.7021 -0.2828
 1358TIP3    H225566   5.245   5.186   5.358  0.8871  0.5683 -0.2493
 1359TIP3   OH225567   4.460   3.962   6.501  0.2060 -0.3469  0.2288
 1359TIP3    H125568   4.385   3.949   6.559  0.2327  0.1823  0.3836
 1359TIP3    H225569   4.534   3.976   6.561  0.7724 -2.5276  0.1351
 1360TIP3   OH225570   3.645   5.050   2.178 -0.6161  0.3736 -0.3577
 1360TIP3    H125571   3.599   4.971   2.147 -0.6948 -0.4829  1.7802
 1360TIP3    H225572   3.574   5.111   2.201 -0.8004 -0.7607  2.4603
 1361TIP3   OH225573   3.097   4.440  13.383 -0.2213  0.4638 -0.3671
 1361TIP3    H125574   3.036   4.367  13.376 -0.7435  1.0634 -3.7896
 1361TIP3    H225575   3.155   4.416  13.456 -0.9388 -2.8956 -0.7237
 1362TIP3   OH225576   0.565   1.740   2.811  0.2073  0.2831 -0.3097
 1362TIP3    H125577   0.501   1.698   2.868  0.1334  1.9658  0.9089
 1362TIP3    H225578   0.650   1.712   2.844  0.1745  1.4803  0.8773
 1363TIP3   OH225579   5.758   5.336   3.109  0.0446  0.3305  0.1094
 1363TIP3    H125580   5.708   5.337   3.191  0.6210 -0.6975  0.4982
 1363TIP3    H225581   5.770   5.243   3.090  2.1112  0.5378  0.2188
 1364TIP3   OH225582   3.656   5.984   3.533  0.2851  0.3629  0.0924
 1364TIP3    H125583   3.697   5.960   3.617 -0.9831 -0.4258  0.5161
 1364TIP3    H225584   3.632   5.900   3.493 -0.1613  0.7764 -0.5239
 1365TIP3   OH225585   1.045   5.127  15.171  0.1519  0.3316 -0.1141
 1365TIP3    H125586   0.980   5.142  15.102  0.5750 -1.9621 -1.0768
 1365TIP3    H225587   1.113   5.075  15.130  1.1092  0.0746  1.6851
 1366TIP3   OH225588   6.265   2.228  15.433  0.6658  0.6782 -0.5097
 1366TIP3    H125589   6.239   2.292  15.498  1.4127  0.3458  0.1237
 1366TIP3    H225590   6.346   2.262  15.395  0.8595  0.3014 -0.4426
 1367TIP3   OH225591   0.684   1.519   2.967 -0.0810  0.3802  0.1098
 1367TIP3    H125592   0.736   1.481   2.896  0.9017  1.0074  0.4723
 1367TIP3    H225593   0.659   1.444   3.021  0.3009  0.0411 -0.1761
 1368TIP3   OH225594   5.178   3.318   2.954 -0.1533 -0.4438  0.2461
 1368TIP3    H125595   5.215   3.241   2.912 -2.1544 -0.8530 -0.8420
 1368TIP3    H225596   5.186   3.387   2.889 -1.8404 -0.6997 -0.2714
 1369TIP3   OH225597   2.022   6.396  14.133 -0.4231 -0.7102  0.3006
 1369TIP3    H125598   2.065   6.311  14.148  0.2408 -0.1772  1.5220
 1369TIP3    H225599   1.998   6.427  14.220 -0.6923  0.3487 -0.1335
 1370TIP3   OH225600   4.066   5.947  15.745  0.0394  0.5979  0.6372
 1370TIP3    H125601   4.007   5.876  15.768 -1.0297  0.8216 -1.1968
 1370TIP3    H225602   4.058   6.010  15.817 -2.2490  0.7598  0.3188
 1371TIP3   OH225603   2.713   0.541  14.988  0.3024 -0.2676 -0.0443
 1371TIP3    H125604   2.735   0.634  14.987 -1.3515  0.1567  0.3045
 1371TIP3    H225605   2.647   0.533  15.057 -0.3197 -1.5268 -0.7546
 1372TIP3   OH225606   3.141   2.879  17.116  0.1188 -0.1848  0.2730
 1372TIP3    H125607   3.162   2.864  17.024  0.1712 -0.2267  0.2927
 1372TIP3    H225608   3.224   2.909  17.155 -0.2253  1.2192  0.0046
 1373TIP3   OH225609   6.250   6.184   3.028  0.6625  0.9134 -0.2453
 1373TIP3    H125610   6.279   6.144   3.110  1.1644  0.1692 -0.7736
 1373TIP3    H225611   6.199   6.116   2.984 -0.1599  1.5223 -0.2699
 1374TIP3   OH225612   2.968   0.744   3.142  0.1056  0.0138 -0.3730
 1374TIP3    H125613   2.891   0.693   3.170  0.1517 -0.3306 -0.8601
 1374TIP3    H225614   2.931   0.819   3.096 -0.0895  1.9663  2.6626
 1375TIP3   OH225615   1.083   0.088   4.326  0.5847  0.1688 -0.0753
 1375TIP3    H125616   1.095   0.166   4.271 -1.5226  0.7016  0.1196
 1375TIP3    H225617   1.098   0.119   4.415 -1.0781  0.5919  0.0793
 1376TIP3   OH225618   1.078   2.680   4.819 -0.3947  0.2101  0.2331
 1376TIP3    H125619   1.105   2.716   4.734 -0.3555 -1.3037 -0.4247
 1376TIP3    H225620   1.012   2.615   4.798  1.7958 -2.4722  0.9941
 1377TIP3   OH225621   3.770   2.888   2.374  0.1682  0.3202 -0.6781
 1377TIP3    H125622   3.817   2.805   2.383 -0.4988 -0.0860 -0.8439
 1377TIP3    H225623   3.680   2.862   2.354 -0.6250  1.0310  1.6393
 1378TIP3   OH225624   2.973   1.352  11.994 -0.0938  0.3420  0.1956
 1378TIP3    H125625   3.052   1.299  11.980 -0.5161  0.1330 -1.6222
 1378TIP3    H225626   2.924   1.343  11.913 -1.3627  1.5586  0.7971
 1379TIP3   OH225627   5.336   4.944   2.115  0.0853 -0.0993 -0.3492
 1379TIP3    H125628   5.384   4.910   2.190 -0.5656 -0.5412 -0.1167
 1379TIP3    H225629   5.317   5.035   2.138 -0.8297 -0.4585  0.4161
 1380TIP3   OH225630   2.092   0.790   2.600 -0.1054  0.0704 -0.3049
 1380TIP3    H125631   2.058   0.737   2.528 -0.5396  1.3860 -1.1005
 1380TIP3    H225632   2.021   0.790   2.664 -0.7323  0.9175 -0.9688
 1381TIP3   OH225633   1.614   2.726  13.183 -0.0395  0.4859 -0.2246
 1381TIP3    H125634   1.569   2.719  13.267  0.1939  0.9670 -0.0571
 1381TIP3    H225635   1.546   2.706  13.118  0.5027 -3.2633  0.1340
 1382TIP3   OH225636   1.898   3.075  11.977 -0.3962  0.2118  0.1061
 1382TIP3    H125637   1.840   3.117  12.041  0.0930  1.2049 -0.0813
 1382TIP3    H225638   1.865   3.104  11.892  0.8553  1.4822  0.0189
 1383TIP3   OH225639   0.086   5.133   4.006  0.0357 -0.7123  0.4210
 1383TIP3    H125640   0.133   5.055   3.977 -0.6490 -0.1925 -2.3374
 1383TIP3    H225641   0.087   5.192   3.930 -1.1261  1.1806  1.7834
 1384TIP3   OH225642   1.822   5.879   5.272 -0.0596 -0.0622  0.0026
 1384TIP3    H125643   1.732   5.904   5.294 -0.7154 -0.6589 -1.7911
 1384TIP3    H225644   1.871   5.961   5.271 -0.5882  0.2782  0.9272
 1385TIP3   OH225645   0.457   5.938   0.791  0.4688  0.6756 -0.3646
 1385TIP3    H125646   0.492   5.866   0.738 -0.1608 -0.1302  0.2879
 1385TIP3    H225647   0.415   5.996   0.727  1.4235  0.7413 -0.9521
 1386TIP3   OH225648   5.623   0.132  11.986  0.2826  0.4042  0.1466
 1386TIP3    H125649   5.677   0.165  12.058 -2.1999  1.3564  1.7086
 1386TIP3    H225650   5.602   0.209  11.934  0.2782  0.0672 -0.3638
 1387TIP3   OH225651   1.377   6.751  11.279 -0.0277  0.3559 -0.5400
 1387TIP3    H125652   1.346   6.797  11.357 -1.7771  1.1126 -1.6296
 1387TIP3    H225653   1.469   6.776  11.271  0.3690 -0.2161  1.5766
 1388TIP3   OH225654   0.401   5.678   4.953 -0.0695  0.3068 -0.4982
 1388TIP3    H125655   0.440   5.605   5.002  0.9654  1.2670  0.1610
 1388TIP3    H225656   0.436   5.668   4.865  0.8025  0.5114 -0.1877
 1389TIP3   OH225657   1.169   4.438   5.365 -0.2455 -0.3602 -0.0649
 1389TIP3    H125658   1.257   4.400   5.374 -0.1446 -0.3899 -1.0996
 1389TIP3    H225659   1.112   4.363   5.348 -0.2083 -0.1758 -1.0462
 1390TIP3   OH225660   3.014   1.359  12.733  0.6001 -0.7215 -0.0420
 1390TIP3    H125661   2.949   1.295  12.763  0.1301  0.0016  0.5394
 1390TIP3    H225662   3.087   1.349  12.794 -1.3452  2.4920  3.2519
 1391TIP3   OH225663   3.148   1.533  13.120  0.0397 -0.2386 -0.1126
 1391TIP3    H125664   3.055   1.551  13.137 -0.4938 -1.9380 -0.9625
 1391TIP3    H225665   3.183   1.507  13.205  0.4230  2.8158  0.7737
 1392TIP3   OH225666   0.128   1.052  13.368 -0.3040 -0.9082  0.5587
 1392TIP3    H125667   0.089   0.965  13.362 -0.1882 -0.8728 -1.3488
 1392TIP3    H225668   0.055   1.113  13.360 -0.3253 -0.8064  1.3905
 1393TIP3   OH225669   4.115   2.135  13.208  0.0235 -0.4357 -0.1749
 1393TIP3    H125670   4.038   2.192  13.201  2.7235  3.4798 -2.1838
 1393TIP3    H225671   4.131   2.128  13.302 -1.5456  0.5597  0.1992
 1394TIP3   OH225672   4.848   2.068   4.940  0.6970 -0.2560  0.4926
 1394TIP3    H125673   4.770   2.111   4.905  2.4801  1.9845 -1.0362
 1394TIP3    H225674   4.847   1.981   4.899 -0.6413 -0.0338 -0.0126
 1395TIP3   OH225675   1.618   2.050  15.195 -0.1912 -0.5694  0.4509
 1395TIP3    H125676   1.627   1.955  15.196  2.0170 -0.4797 -1.7059
 1395TIP3    H225677   1.625   2.076  15.287  0.5566 -2.3955  0.9603
 1396TIP3   OH225678   1.287   0.538  13.113 -0.0559 -0.2991 -0.0321
 1396TIP3    H125679   1.368   0.540  13.164 -0.2883  1.6119  0.3485
 1396TIP3    H225680   1.315   0.557  13.024 -0.1906  2.2024  0.3810
 1397TIP3   OH225681   3.696   0.847   2.918 -0.6659  0.7477  0.9238
 1397TIP3    H125682   3.605   0.817   2.905 -0.7391  0.9440  0.9872
 1397TIP3    H225683   3.724   0.803   2.998  0.9394 -3.2426 -1.5361
 1398TIP3   OH225684   0.946   0.286  14.382  0.2348 -0.4578 -0.3204
 1398TIP3    H125685   0.916   0.205  14.422 -0.2460 -1.0729 -1.8513
 1398TIP3    H225686   0.994   0.259  14.304  2.3525  0.6484  0.5225
 1399TIP3   OH225687   3.918   2.760  13.382  0.2941 -0.3257 -0.2741
 1399TIP3    H125688   3.947   2.674  13.350 -1.2806 -1.6878  1.6430
 1399TIP3    H225689   3.888   2.806  13.304  2.8708 -0.7523 -1.6116
 1400TIP3   OH225690   1.369   4.564   0.300 -0.4442 -0.8326 -0.0893
 1400TIP3    H125691   1.301   4.600   0.243  0.4790  0.0117 -0.6929
 1400TIP3    H225692   1.332   4.570   0.388 -0.2570  1.8835 -0.1256
 1401TIP3   OH225693   2.442   6.259   5.408  0.5390  0.4810 -0.6101
 1401TIP3    H125694   2.486   6.335   5.446 -0.8547  1.2823 -0.5499
 1401TIP3    H225695   2.399   6.293   5.330  0.5066 -0.4149 -0.9966
 1402TIP3   OH225696   3.523   1.027   0.028 -0.6873  0.1626  0.3303
 1402TIP3    H125697   3.523   1.118   0.057  1.2817 -0.1543  1.5741
 1402TIP3    H225698   3.551   0.978   0.106  0.2904 -1.2621 -0.8705
 1403TIP3   OH225699   3.550   1.350   1.453 -0.2638 -0.0190 -0.3085
 1403TIP3    H125700   3.540   1.417   1.521  0.7933  0.6473 -0.7835
 1403TIP3    H225701   3.643   1.354   1.430 -0.7204  0.1779 -2.2152
 1404TIP3   OH225702   0.266   1.125  14.516 -0.3128  0.1786  0.2997
 1404TIP3    H125703   0.341   1.153  14.567  0.1514 -0.9829  0.2776
 1404TIP3    H225704   0.230   1.050  14.564 -1.3648  0.6180  0.2267
 1405TIP3   OH225705   3.826   0.284  13.456 -0.0420  0.5786  0.5037
 1405TIP3    H125706   3.813   0.312  13.366  1.6875  0.1643  0.1015
 1405TIP3    H225707   3.737   0.272  13.490 -0.7529 -1.0753 -1.7167
 1406TIP3   OH225708   0.893   3.834  16.627  0.3358 -0.5759  0.5712
 1406TIP3    H125709   0.946   3.912  16.611 -0.3874 -0.2225 -0.1503
 1406TIP3    H225710   0.921   3.803  16.713 -0.8654  1.6767  1.8491
 1407TIP3   OH225711   2.781   0.296  12.139  0.2128  0.0326  0.0392
 1407TIP3    H125712   2.730   0.298  12.058  1.1925 -2.1420 -0.7094
 1407TIP3    H225713   2.834   0.217  12.132  1.9848  0.9614  1.8249
 1408TIP3   OH225714   0.223   2.294   2.352 -0.3228  0.4507  0.9839
 1408TIP3    H125715   0.174   2.273   2.431 -0.3891 -1.5742  0.4487
 1408TIP3    H225716   0.207   2.221   2.293  1.5443  0.8080 -0.0571
 1409TIP3   OH225717   3.691   3.251   3.045 -0.6588  0.2373  0.1047
 1409TIP3    H125718   3.606   3.295   3.041 -0.5266  0.7063  1.7931
 1409TIP3    H225719   3.677   3.177   3.103  0.0777  0.3147  0.3960
 1410TIP3   OH225720   2.595   2.884   3.865 -0.5477  0.3131 -0.2317
 1410TIP3    H125721   2.541   2.815   3.826 -1.0173  0.8427 -0.5326
 1410TIP3    H225722   2.636   2.842   3.941  0.0677 -0.6273 -1.0419
 1411TIP3   OH225723   5.731   3.553  12.434  0.0134  0.4034 -0.1288
 1411TIP3    H125724   5.753   3.632  12.483  1.2607 -0.2666  0.4355
 1411TIP3    H225725   5.784   3.484  12.474 -2.3112 -1.1192  0.5373
 1412TIP3   OH225726   5.175   0.222   0.691 -0.0402  0.2220 -0.2605
 1412TIP3    H125727   5.202   0.299   0.641 -3.9808  0.6097 -2.2491
 1412TIP3    H225728   5.198   0.147   0.636  1.7181  0.0671  0.6175
 1413TIP3   OH225729   3.550   4.027   4.701  0.3034 -0.0405 -0.0498
 1413TIP3    H125730   3.558   3.940   4.662  1.1616 -1.0675  2.2665
 1413TIP3    H225731   3.488   4.017   4.772 -0.3994  1.5282 -0.3813
 1414TIP3   OH225732   1.735   3.126   5.100  0.0094 -0.1836 -0.4256
 1414TIP3    H125733   1.653   3.077   5.104  0.6052 -1.1638  0.7821
 1414TIP3    H225734   1.799   3.069   5.144  1.0620  1.0632 -0.2716
 1415TIP3   OH225735   4.212   5.638   5.785  0.3644  0.2394 -0.6221
 1415TIP3    H125736   4.146   5.706   5.797 -0.9888 -1.0832 -0.2691
 1415TIP3    H225737   4.170   5.574   5.727  0.4739 -1.6552  1.2570
 1416TIP3   OH225738   3.782   6.341  12.437  0.0585 -0.5411 -0.1567
 1416TIP3    H125739   3.723   6.335  12.362  0.7655 -0.6358 -0.7192
 1416TIP3    H225740   3.765   6.427  12.475 -0.9036 -0.8334  0.0867
 1417TIP3   OH225741   2.610   6.212   3.818 -0.8318  0.7231  0.7040
 1417TIP3    H125742   2.525   6.214   3.774 -0.4742 -1.5141 -0.1975
 1417TIP3    H225743   2.674   6.227   3.749 -0.4510  4.1027  1.6264
 1418TIP3   OH225744   2.479   0.165   2.652 -0.1518  0.2034  0.7928
 1418TIP3    H125745   2.553   0.108   2.668 -0.5057 -0.0016  1.8323
 1418TIP3    H225746   2.408   0.106   2.627 -0.5014  0.1615  1.8104
 1419TIP3   OH225747   1.163   6.289   2.022  0.0611 -0.3502 -0.4599
 1419TIP3    H125748   1.167   6.338   1.940 -1.7466  1.1631  0.2646
 1419TIP3    H225749   1.205   6.347   2.086 -0.0360 -0.7690 -0.0092
 1420TIP3   OH225750   6.724   6.180  16.964  0.3875 -0.2003  0.3691
 1420TIP3    H125751   6.701   6.206  16.874 -1.1116 -2.3630  0.0552
 1420TIP3    H225752   6.792   6.113  16.953 -0.0607 -0.7336  0.8219
 1421TIP3   OH225753   2.158   1.646  15.998 -0.4210  0.0714 -0.3023
 1421TIP3    H125754   2.241   1.657  15.952  1.0261 -1.3502  1.7957
 1421TIP3    H225755   2.097   1.703  15.951  1.7250  1.2123 -1.8848
 1422TIP3   OH225756   4.137   3.403  12.274  0.0214 -0.0733  0.2210
 1422TIP3    H125757   4.208   3.346  12.247 -1.8191 -1.6076 -1.7897
 1422TIP3    H225758   4.164   3.439  12.359  2.9077 -0.9315 -0.2570
 1423TIP3   OH225759   6.508   0.624   1.659 -0.2817  0.1959  0.1329
 1423TIP3    H125760   6.456   0.606   1.581 -0.2029 -2.6880  0.6344
 1423TIP3    H225761   6.585   0.671   1.626 -0.8595  0.1619 -1.3342
 1424TIP3   OH225762   1.494   0.852  14.582 -0.4383  0.0460 -0.2191
 1424TIP3    H125763   1.576   0.850  14.630 -0.3219 -0.4581 -0.4291
 1424TIP3    H225764   1.496   0.773  14.528 -1.1064 -0.0234 -0.1520
 1425TIP3   OH225765   1.433   2.328  12.213  0.3653 -0.3718  0.6335
 1425TIP3    H125766   1.494   2.394  12.180  0.8303 -1.3315 -0.5140
 1425TIP3    H225767   1.402   2.363  12.297  1.6572  0.6400  0.7173
 1426TIP3   OH225768   4.942   4.137   4.345 -0.1592 -0.6724  0.2518
 1426TIP3    H125769   4.999   4.198   4.393  0.2171 -0.5089 -0.3959
 1426TIP3    H225770   4.859   4.184   4.337 -0.3115 -0.8087  0.9723
 1427TIP3   OH225771   5.106   3.471  15.803 -0.0866  0.2841  0.3694
 1427TIP3    H125772   5.021   3.445  15.838  0.3563 -2.2139 -0.1828
 1427TIP3    H225773   5.168   3.412  15.846  1.1165  0.7362 -0.6936
 1428TIP3   OH225774   6.040   4.312  12.489  0.0042 -0.1246 -0.0922
 1428TIP3    H125775   5.977   4.275  12.551  0.6312  0.5319  0.9808
 1428TIP3    H225776   6.076   4.388  12.535  1.2453 -0.2280 -0.8510
 1429TIP3   OH225777   6.142   5.426  13.671 -0.4813 -0.3764  0.2084
 1429TIP3    H125778   6.134   5.517  13.643  1.9616 -0.4579 -0.9482
 1429TIP3    H225779   6.216   5.425  13.731 -0.5586 -1.5955  0.3203
 1430TIP3   OH225780   3.026   5.880  14.100 -0.4088  0.4849  0.0613
 1430TIP3    H125781   3.029   5.792  14.063 -0.4920  1.2435 -1.8911
 1430TIP3    H225782   3.058   5.870  14.190 -0.5462 -1.5320 -0.0695
 1431TIP3   OH225783   3.211   6.163  13.759  0.0160 -0.6239 -0.0196
 1431TIP3    H125784   3.272   6.139  13.828  0.6300  1.2892  0.1576
 1431TIP3    H225785   3.163   6.238  13.794 -1.5445 -1.2988 -0.6577
 1432TIP3   OH225786   3.379   2.482  15.608 -0.8794 -0.4512 -0.3107
 1432TIP3    H125787   3.295   2.515  15.576  0.8127  1.7021 -2.9859
 1432TIP3    H225788   3.407   2.546  15.674 -1.6337 -1.6463  1.2483
 1433TIP3   OH225789   1.211   4.606   1.351 -0.0982 -0.1658 -0.1348
 1433TIP3    H125790   1.213   4.667   1.277 -1.1086 -0.3538 -0.3328
 1433TIP3    H225791   1.281   4.543   1.332  1.4387  1.3027  0.4249
 1434TIP3   OH225792   6.039   5.061  15.786 -0.2886 -0.0312 -0.0755
 1434TIP3    H125793   6.074   5.004  15.855 -2.3202 -0.0481  1.0280
 1434TIP3    H225794   6.115   5.107  15.753  0.7266  0.6833  2.8897
 1435TIP3   OH225795   0.211   1.010  16.148  0.0530 -0.9123 -0.3401
 1435TIP3    H125796   0.142   1.069  16.119  0.3960 -0.8509 -1.0612
 1435TIP3    H225797   0.286   1.031  16.091  0.4328 -1.4682 -0.0527
 1436TIP3   OH225798   6.664   2.790  11.305 -0.1358 -0.3627  0.4704
 1436TIP3    H125799   6.690   2.864  11.360  1.9587 -0.1072 -0.8080
 1436TIP3    H225800   6.595   2.825  11.249  1.4116  0.9296 -0.7137
 1437TIP3   OH225801   6.106   1.975   2.019 -0.1674 -0.3046 -0.0946
 1437TIP3    H125802   6.074   1.914   2.086  1.2785 -0.3115  0.6307
 1437TIP3    H225803   6.187   2.010   2.056  0.8341 -0.5360 -1.9743
 1438TIP3   OH225804   4.070   3.976   4.527 -0.1601  0.5430  0.6161
 1438TIP3    H125805   4.030   4.002   4.609 -2.2652 -1.7267  0.4433
 1438TIP3    H225806   4.164   3.986   4.541 -0.4231 -0.2015  3.4591
 1439TIP3   OH225807   4.959   0.401  13.057  0.0844  0.0060  0.2755
 1439TIP3    H125808   4.947   0.347  13.136  2.1310 -1.4053 -0.2880
 1439TIP3    H225809   4.890   0.466  13.062 -1.5820 -1.7413  1.8009
 1440TIP3   OH225810   2.055   4.134   4.550 -0.4073  0.0720  0.1750
 1440TIP3    H125811   1.989   4.196   4.517 -0.8312  0.3186  1.4467
 1440TIP3    H225812   2.095   4.178   4.625 -0.1626 -0.8745  0.6225
 1441TIP3   OH225813   3.363   6.744   3.959 -0.5632  1.0302  0.2954
 1441TIP3    H125814   3.372   6.704   3.872  0.8552 -1.9644  1.6575
 1441TIP3    H225815   3.291   6.695   3.999  0.6000  0.3882  1.7022
 1442TIP3   OH225816   2.192   6.693   4.277 -0.2314 -0.2038 -0.3562
 1442TIP3    H125817   2.243   6.766   4.242 -1.5115  1.2627  0.6785
 1442TIP3    H225818   2.245   6.658   4.348  0.2906 -0.1303 -0.7065
 1443TIP3   OH225819   6.853   6.631  12.629 -0.7316 -0.8537 -0.3155
 1443TIP3    H125820   6.887   6.555  12.677 -0.3238 -0.8290 -0.5611
 1443TIP3    H225821   6.917   6.700  12.645 -0.7251 -0.7730 -0.6858
 1444TIP3   OH225822   2.839   3.048   6.515 -0.2409  0.9065  0.1825
 1444TIP3    H125823   2.747   3.026   6.502  0.1733 -1.0720  0.2709
 1444TIP3    H225824   2.851   3.050   6.610  0.2705 -1.3131  0.2325
 1445TIP3   OH225825   0.431   1.563   5.086 -0.1166 -0.2585 -0.6404
 1445TIP3    H125826   0.359   1.577   5.025 -0.4434  2.5714  0.2669
 1445TIP3    H225827   0.390   1.523   5.162 -0.0572 -1.8826 -1.4106
 1446TIP3   OH225828   3.696   2.104   3.178 -0.3021  0.0320 -0.0761
 1446TIP3    H125829   3.775   2.067   3.217 -1.6131 -1.2798  1.4894
 1446TIP3    H225830   3.701   2.197   3.197 -0.3154 -0.3941  2.2550
 1447TIP3   OH225831   5.454   1.900   1.044  0.1722  0.6441 -0.0929
 1447TIP3    H125832   5.431   1.960   1.115  1.7242  0.6778  0.4036
 1447TIP3    H225833   5.425   1.814   1.076 -2.7200  1.1128 -1.0996
 1448TIP3   OH225834   4.390   2.608   2.531 -1.2281  0.0640 -0.1562
 1448TIP3    H125835   4.346   2.618   2.446  0.7895  1.2705 -1.1686
 1448TIP3    H225836   4.476   2.573   2.508 -0.9182 -0.3124  1.5071
 1449TIP3   OH225837   6.437   5.735   1.070 -0.3300 -0.1333 -0.2227
 1449TIP3    H125838   6.424   5.827   1.049  0.8940  0.0875 -0.0972
 1449TIP3    H225839   6.428   5.730   1.166 -2.0160 -0.4566 -0.3598
 1450TIP3   OH225840   0.382   3.882  13.648  0.0332 -0.3869  0.3901
 1450TIP3    H125841   0.404   3.947  13.581  0.8944 -1.6285 -0.5773
 1450TIP3    H225842   0.458   3.824  13.652 -0.5559 -1.1400  1.4894
 1451TIP3   OH225843   5.167   2.418   0.711  0.0149  0.0476 -0.3130
 1451TIP3    H125844   5.162   2.473   0.632  0.9163  0.2765 -0.2319
 1451TIP3    H225845   5.234   2.352   0.689 -0.0587 -0.1643  0.0943
 1452TIP3   OH225846   4.406   1.061  16.672  0.7121 -0.6245  0.1747
 1452TIP3    H125847   4.327   1.080  16.721 -0.0196 -0.1860 -1.1305
 1452TIP3    H225848   4.435   0.975  16.704  0.7233  0.0078  1.9200
 1453TIP3   OH225849   0.199   1.062  12.795  0.1637 -0.2229 -0.1079
 1453TIP3    H125850   0.177   1.138  12.850  0.4272  0.2224 -0.6154
 1453TIP3    H225851   0.128   1.001  12.811  1.2375 -0.9734  2.3283
 1454TIP3   OH225852   5.553   2.221   6.174  0.4814 -0.0242 -0.0027
 1454TIP3    H125853   5.602   2.170   6.239 -1.2921 -1.8197  0.0140
 1454TIP3    H225854   5.472   2.245   6.218  1.0429  2.5283 -0.1769
 1455TIP3   OH225855   2.912   3.727   3.801  0.6582  0.7423 -0.0827
 1455TIP3    H125856   2.963   3.771   3.733 -0.3463  1.9214 -0.0984
 1455TIP3    H225857   2.860   3.797   3.841 -0.3384 -0.2951  0.4740
 1456TIP3   OH225858   4.440   2.433  12.441  0.0135 -0.8132  0.2471
 1456TIP3    H125859   4.441   2.437  12.537 -1.1747 -0.2424  0.2508
 1456TIP3    H225860   4.350   2.409  12.419 -0.0091  0.1120 -0.7577
 1457TIP3   OH225861   2.941   4.463   6.662  0.1119 -0.4522  0.1542
 1457TIP3    H125862   2.898   4.513   6.593  0.5989  0.7178  0.6668
 1457TIP3    H225863   2.869   4.436   6.720 -0.0247  1.2199  0.8372
 1458TIP3   OH225864   3.441   4.472   3.373 -0.0263 -0.2881  0.6297
 1458TIP3    H125865   3.434   4.547   3.313  0.8539  0.1771  1.0743
 1458TIP3    H225866   3.410   4.397   3.322 -0.8636  0.3639  0.1531
 1459TIP3   OH225867   2.813   6.093  14.918  0.7418 -0.5072  0.2445
 1459TIP3    H125868   2.722   6.082  14.946  0.5358  2.3126  0.9982
 1459TIP3    H225869   2.858   6.017  14.954 -0.6237 -0.0359  3.2498
 1460TIP3   OH225870   2.736   5.555  13.139  0.0816 -0.6243 -0.3601
 1460TIP3    H125871   2.696   5.544  13.052 -0.6850 -1.5806  0.1017
 1460TIP3    H225872   2.679   5.618  13.183  1.0162  0.6201 -0.8602
 1461TIP3   OH225873   0.173   4.419   2.764 -0.5197  0.1459  0.0262
 1461TIP3    H125874   0.250   4.456   2.807 -0.4780  1.2977 -1.0018
 1461TIP3    H225875   0.152   4.341   2.816  0.7796  0.3247  0.8621
 1462TIP3   OH225876   5.783   1.062   0.579  0.6091 -0.2349  0.1271
 1462TIP3    H125877   5.781   1.081   0.485 -2.8041 -0.4963  0.0301
 1462TIP3    H225878   5.738   1.137   0.619  2.2118 -0.0119  1.6223
 1463TIP3   OH225879   3.009   4.444   0.863  0.0153 -0.1896 -0.3207
 1463TIP3    H125880   3.049   4.479   0.783  2.9969 -1.3690  0.5032
 1463TIP3    H225881   2.937   4.389   0.831 -0.0536  0.7979 -2.0394
 1464TIP3   OH225882   1.534   0.907   6.296  0.5252 -0.2903  0.5708
 1464TIP3    H125883   1.626   0.933   6.292  0.8572 -1.5302 -2.2420
 1464TIP3    H225884   1.528   0.851   6.374  2.0222  0.1067  0.9970
 1465TIP3   OH225885   1.874   1.971   4.226  0.1346 -0.2659  0.0987
 1465TIP3    H125886   1.881   1.880   4.200 -0.0956 -0.3258  0.2488
 1465TIP3    H225887   1.910   1.973   4.315  2.3047  0.1890 -0.7313
 1466TIP3   OH225888   5.049   4.862  14.828 -0.1743  0.7029  0.4111
 1466TIP3    H125889   4.977   4.902  14.779  0.8047  2.0341 -0.0450
 1466TIP3    H225890   5.126   4.878  14.772  0.5169 -0.4052  1.0188
 1467TIP3   OH225891   5.777   2.941  15.602 -0.7401 -0.0925  0.0877
 1467TIP3    H125892   5.840   2.868  15.606 -1.0799 -0.5045 -1.3139
 1467TIP3    H225893   5.809   3.004  15.666  1.4047 -0.0830 -0.8864
 1468TIP3   OH225894   3.125   0.463  12.942  0.4628  0.3741 -0.2964
 1468TIP3    H125895   3.058   0.458  13.010  0.7823  1.7912  0.1631
 1468TIP3    H225896   3.095   0.532  12.882  0.9320  0.2157 -0.7257
 1469TIP3   OH225897   6.039   3.989  11.460 -0.3177 -0.4966  0.5505
 1469TIP3    H125898   6.019   4.080  11.480 -1.5117  0.0393 -2.5220
 1469TIP3    H225899   6.129   3.990  11.429 -0.3929 -0.2806  0.3267
 1470TIP3   OH225900   0.025   6.427   3.976  0.2902 -0.1135  0.0140
 1470TIP3    H125901  -0.028   6.505   3.994 -0.0919 -0.4545  0.3853
 1470TIP3    H225902   0.050   6.436   3.884 -0.1748  0.1948 -0.0883
 1471TIP3   OH225903   5.100   1.002  16.437 -0.2720  0.4733  0.0157
 1471TIP3    H125904   5.016   1.032  16.470 -0.4088 -0.6454  0.7380
 1471TIP3    H225905   5.164   1.031  16.502 -0.2565  0.3016  0.0794
 1472TIP3   OH225906   4.705   3.412  15.222  0.0279 -0.0067 -0.0135
 1472TIP3    H125907   4.639   3.392  15.289  0.1988  1.2142  0.5421
 1472TIP3    H225908   4.653   3.430  15.143 -0.3480  1.0758  0.4532
 1473TIP3   OH225909   4.498   4.029  15.461  0.2275  0.4896  0.9369
 1473TIP3    H125910   4.438   4.010  15.534 -1.0415 -1.8885 -0.6038
 1473TIP3    H225911   4.562   3.958  15.465  0.3583  0.5476 -0.0442
 1474TIP3   OH225912   5.871   3.667  14.837 -0.2996  0.0117 -0.0345
 1474TIP3    H125913   5.923   3.595  14.874 -1.2087 -0.0327  1.1906
 1474TIP3    H225914   5.930   3.742  14.838 -1.0961  0.8310  4.4150
 1475TIP3   OH225915   4.029   6.249  10.856  0.1705  0.5059 -0.0421
 1475TIP3    H125916   4.086   6.206  10.792  0.7703  1.7223 -0.3667
 1475TIP3    H225917   3.941   6.216  10.837  0.6228 -0.6814 -0.1541
 1476TIP3   OH225918   4.456   3.089   0.110 -0.1902 -0.3205 -0.1294
 1476TIP3    H125919   4.493   3.031   0.177  0.0166  1.5945  1.5222
 1476TIP3    H225920   4.382   3.132   0.154 -0.1028  0.9370 -1.1515
 1477TIP3   OH225921   0.856   2.794  13.502  0.1593  0.0436  0.4150
 1477TIP3    H125922   0.768   2.825  13.522 -0.0062 -0.0448 -0.1466
 1477TIP3    H225923   0.846   2.745  13.420  0.7743  0.2429  0.2128
 1478TIP3   OH225924   5.552   4.685  12.393  0.2366  0.3910 -0.0911
 1478TIP3    H125925   5.552   4.618  12.324 -0.2331  1.5616 -1.2695
 1478TIP3    H225926   5.517   4.640  12.470 -1.5163 -0.3702 -1.2505
 1479TIP3   OH225927   5.830   2.707  11.847 -0.3936 -0.4372 -0.3302
 1479TIP3    H125928   5.799   2.706  11.938  0.1309 -0.1583 -0.1454
 1479TIP3    H225929   5.797   2.625  11.810 -0.1477 -0.8122  0.2721
 1480TIP3   OH225930   1.178   4.834   2.556  0.1562  0.2913  0.1512
 1480TIP3    H125931   1.093   4.864   2.525 -0.0706  0.7634  1.1946
 1480TIP3    H225932   1.234   4.835   2.478 -0.7787 -0.0259 -0.5447
 1481TIP3   OH225933   1.891   6.634  14.064 -0.2285 -0.1580  0.2745
 1481TIP3    H125934   1.973   6.679  14.044 -0.0401  0.0613  1.4568
 1481TIP3    H225935   1.918   6.548  14.096 -0.4851 -0.3129  0.0763
 1482TIP3   OH225936   4.616   3.485   4.713 -0.5437  0.1161 -0.3772
 1482TIP3    H125937   4.676   3.448   4.648  1.2208 -0.6812  1.5771
 1482TIP3    H225938   4.548   3.418   4.724 -0.2265 -0.2475 -0.5875
 1483TIP3   OH225939   5.064   5.716  14.732  0.6791  0.1945  0.2202
 1483TIP3    H125940   5.014   5.701  14.812  1.0485 -2.6259  0.0428
 1483TIP3    H225941   5.022   5.790  14.690 -1.7953 -0.5238  1.2798
 1484TIP3   OH225942   2.319   2.460   1.122  0.6904 -0.0099  0.5600
 1484TIP3    H125943   2.248   2.523   1.135 -0.0245 -0.3741 -1.2476
 1484TIP3    H225944   2.398   2.510   1.140  0.0947  1.1901 -0.0036
 1485TIP3   OH225945   3.130   4.560  12.412  0.0635 -0.7151 -0.2205
 1485TIP3    H125946   3.070   4.631  12.436  0.8286 -0.3174  0.5709
 1485TIP3    H225947   3.212   4.604  12.389  0.8912 -1.3764  1.3544
 1486TIP3   OH225948   3.791   1.023  15.476  0.0294 -0.2966  0.4138
 1486TIP3    H125949   3.766   1.063  15.392 -0.7497 -0.0364  0.7650
 1486TIP3    H225950   3.804   0.930  15.455 -1.6503 -0.5247  0.2948
 1487TIP3   OH225951   3.324   6.519   1.991  0.2901  0.0118 -0.4001
 1487TIP3    H125952   3.402   6.467   1.970  0.4801 -1.1455  2.6673
 1487TIP3    H225953   3.293   6.550   1.906  1.8419 -2.7423 -2.1532
 1488TIP3   OH225954   5.121   6.575   1.317  0.3810 -0.3109  0.5030
 1488TIP3    H125955   5.088   6.506   1.260 -0.3505  1.4987 -1.3918
 1488TIP3    H225956   5.119   6.654   1.263  3.1193  0.8667  1.8841
 1489TIP3   OH225957   0.991   5.814  12.565  0.5667  0.0822 -0.0743
 1489TIP3    H125958   1.014   5.722  12.561 -2.0067 -0.5947 -1.4247
 1489TIP3    H225959   1.071   5.860  12.539  2.1132 -1.6559  1.3261
 1490TIP3   OH225960   4.259   0.616   3.564  0.0251  0.3943 -0.0550
 1490TIP3    H125961   4.248   0.523   3.545 -1.3475  0.7253 -1.0323
 1490TIP3    H225962   4.336   0.620   3.621  0.4459 -1.2758 -0.4516
 1491TIP3   OH225963   1.403   1.371   1.081  0.3898 -0.0758  0.1394
 1491TIP3    H125964   1.400   1.459   1.044 -0.7128 -0.3165 -0.3833
 1491TIP3    H225965   1.492   1.362   1.114  0.5122  1.2363  0.2153
 1492TIP3   OH225966   2.276   5.919   4.692 -0.2863  0.0737 -0.0250
 1492TIP3    H125967   2.202   5.860   4.675 -0.2647  0.1347 -0.3411
 1492TIP3    H225968   2.243   6.005   4.667 -0.1137  0.1039 -0.1492
 1493TIP3   OH225969   2.032   1.117  15.651  1.0088  0.4709  0.3205
 1493TIP3    H125970   2.085   1.160  15.584 -1.1888  2.0735 -0.5357
 1493TIP3    H225971   1.951   1.094  15.605  0.2903 -0.3715  1.9384
 1494TIP3   OH225972   6.346   2.323   4.422 -0.1764  0.0125 -0.3085
 1494TIP3    H125973   6.424   2.378   4.431  0.5277 -0.8977 -0.6653
 1494TIP3    H225974   6.319   2.306   4.512  1.1130 -1.1260 -0.0937
 1495TIP3   OH225975   0.414   2.315   3.094 -0.2310  0.6856  0.5401
 1495TIP3    H125976   0.330   2.278   3.067  0.3357 -0.4987  0.2780
 1495TIP3    H225977   0.444   2.365   3.018  0.8626 -1.7616 -0.7578
 1496TIP3   OH225978   4.196   5.061   1.587  0.2700 -0.4775  0.2562
 1496TIP3    H125979   4.245   4.981   1.565 -1.0490 -1.3265  0.3022
 1496TIP3    H225980   4.264   5.126   1.605  1.4687 -0.6268 -2.9972
 1497TIP3   OH225981   5.171   2.526   2.701  0.0797  0.0559 -0.0602
 1497TIP3    H125982   5.233   2.497   2.634  0.6838 -0.2914  0.6307
 1497TIP3    H225983   5.226   2.551   2.775 -0.5806  0.3641  0.3353
 1498TIP3   OH225984   4.086   5.564  14.926 -0.1416  0.4325  0.0221
 1498TIP3    H125985   4.037   5.493  14.884  0.5097  0.8887 -1.5698
 1498TIP3    H225986   4.159   5.520  14.970 -0.2573  0.0325 -0.1818
 1499TIP3   OH225987   3.172   5.032  13.647 -0.9805  0.4051 -0.1668
 1499TIP3    H125988   3.260   4.996  13.644 -1.5301 -1.2115  1.2474
 1499TIP3    H225989   3.134   5.011  13.562 -0.8864 -1.3846  0.2027
 1500TIP3   OH225990   1.430   4.937  12.397  0.2994  0.4337  1.4077
 1500TIP3    H125991   1.349   4.960  12.351  1.1769  0.8103  0.0096
 1500TIP3    H225992   1.488   5.011  12.382  1.7644 -0.8995  0.2897
 1501TIP3   OH225993   4.115   4.930   2.699 -0.4430 -0.2745  0.2287
 1501TIP3    H125994   4.037   4.985   2.711 -0.4237 -0.1139 -0.3510
 1501TIP3    H225995   4.081   4.845   2.672 -0.4521 -0.4381  0.7406
 1502TIP3   OH225996   0.024   1.584  16.343  0.1710  0.3905 -0.1630
 1502TIP3    H125997   0.071   1.618  16.419  2.3981 -1.7827 -0.4355
 1502TIP3    H225998  -0.054   1.543  16.380 -0.3131  1.8989  0.5782
 1503TIP3   OH225999   5.987   3.052  12.342 -0.4006  0.2996  0.1009
 1503TIP3    H126000   5.975   3.076  12.251  0.1576 -0.0208 -0.0646
 1503TIP3    H226001   6.033   2.968  12.339 -2.0616 -0.6606  0.6701
 1504TIP3   OH226002   4.593   5.702   3.727 -0.9310 -0.7474  0.2350
 1504TIP3    H126003   4.554   5.788   3.711 -0.6948 -1.1606 -3.4834
 1504TIP3    H226004   4.524   5.640   3.700  0.4270 -1.5535 -1.6203
 1505TIP3   OH226005   5.886   3.217  13.034 -0.1248  0.6564  0.3206
 1505TIP3    H126006   5.844   3.132  13.046  0.9063  0.1435  0.4505
 1505TIP3    H226007   5.887   3.256  13.121  0.6989  0.1530  0.5546
 1506TIP3   OH226008   2.065   3.813  13.219 -0.4252 -0.2565 -0.4493
 1506TIP3    H126009   2.074   3.902  13.187 -2.7288 -0.3285 -1.4996
 1506TIP3    H226010   2.069   3.758  13.141 -0.5070 -0.9478  0.0169
 1507TIP3   OH226011   4.147   0.342   6.444 -0.2968  0.0675 -0.2868
 1507TIP3    H126012   4.162   0.435   6.464  1.9516 -0.3341  0.1074
 1507TIP3    H226013   4.051   0.333   6.447 -0.8119  2.9224 -2.9457
 1508TIP3   OH226014   2.986   3.485   1.512 -0.8256  0.1254  0.2898
 1508TIP3    H126015   2.945   3.532   1.440 -1.7356 -0.3114  0.5138
 1508TIP3    H226016   2.981   3.393   1.487 -1.6355 -0.0774  1.1435
 1509TIP3   OH226017   4.520   6.159   1.106  0.1262  0.1708 -0.0919
 1509TIP3    H126018   4.440   6.113   1.131 -0.3174  0.9091 -0.1359
 1509TIP3    H226019   4.521   6.237   1.161  0.2657  0.7042 -0.8391
 1510TIP3   OH226020   4.047   5.870   3.348  0.2209 -0.2060  0.3175
 1510TIP3    H126021   4.096   5.832   3.421  0.6695 -0.8858 -0.3257
 1510TIP3    H226022   3.964   5.822   3.348 -0.2244  0.5421  1.0424
 1511TIP3   OH226023   5.070   5.815  16.031  0.9143 -0.2036 -0.5503
 1511TIP3    H126024   5.026   5.841  16.112 -0.1908 -1.8360 -0.6009
 1511TIP3    H226025   5.163   5.809  16.056  0.8467  1.0594  0.1146
 1512TIP3   OH226026   6.228   2.912  16.186  0.3275 -0.2215  0.4235
 1512TIP3    H126027   6.176   2.832  16.196 -0.9736  0.6297  0.7188
 1512TIP3    H226028   6.314   2.881  16.158  0.1956 -1.8147  1.6211
 1513TIP3   OH226029   0.740   3.348   0.394  0.1645  0.3590  0.1874
 1513TIP3    H126030   0.731   3.429   0.445 -2.1226  0.1407  0.1960
 1513TIP3    H226031   0.815   3.303   0.434  0.5583  1.7752  1.1232
 1514TIP3   OH226032   6.790   4.205  15.848  0.1431 -0.0281 -0.4520
 1514TIP3    H126033   6.716   4.205  15.787 -0.4290 -1.0478  0.2247
 1514TIP3    H226034   6.866   4.185  15.793 -0.2511 -0.1824 -0.9526
 1515TIP3   OH226035   6.101   0.127  16.194  0.3764  0.1487 -0.2947
 1515TIP3    H126036   6.108   0.035  16.222  0.9752 -0.2021 -1.5457
 1515TIP3    H226037   6.189   0.150  16.166  0.4397  1.4183  0.8637
 1516TIP3   OH226038   3.481   2.977   2.401  0.3050 -0.8704  0.7398
 1516TIP3    H126039   3.487   3.053   2.343  2.1506  0.0603  2.0316
 1516TIP3    H226040   3.390   2.948   2.395 -0.7650  2.1135  1.0040
 1517TIP3   OH226041   6.690   5.088   5.465 -0.1447 -0.6841  0.3477
 1517TIP3    H126042   6.633   5.153   5.506  1.4050  0.5290  0.6623
 1517TIP3    H226043   6.650   5.072   5.380 -1.0924 -0.0476  0.6542
 1518TIP3   OH226044   2.496   0.985  11.109  0.1246  0.5548  0.2055
 1518TIP3    H126045   2.545   0.915  11.066  0.7298  0.3199  1.2408
 1518TIP3    H226046   2.409   0.982  11.068  0.1863 -0.7138  0.1333
 1519TIP3   OH226047   3.583   3.662   0.247 -0.1327 -0.0605  0.1565
 1519TIP3    H126048   3.537   3.620   0.174 -0.7080 -0.8161  0.9326
 1519TIP3    H226049   3.592   3.753   0.220  0.5634 -0.5358 -1.2920
 1520TIP3   OH226050   5.473   5.077   6.232  0.0991 -0.0376  0.2697
 1520TIP3    H126051   5.531   5.100   6.305  1.9330 -0.5764 -0.9384
 1520TIP3    H226052   5.524   5.016   6.179 -2.1673 -1.7093 -0.1104
 1521TIP3   OH226053   3.786   2.643  16.924  0.4467  0.1213  0.0407
 1521TIP3    H126054   3.823   2.557  16.906  0.4882  0.0447  0.4821
 1521TIP3    H226055   3.862   2.700  16.934  0.4760 -0.1572  1.5525
 1522TIP3   OH226056   4.517   1.118  12.979  0.2652  0.1456  0.4485
 1522TIP3    H126057   4.518   1.213  12.986 -0.2438  0.2634 -0.6775
 1522TIP3    H226058   4.516   1.101  12.884 -0.0794 -0.9618  0.6273
 1523TIP3   OH226059   2.687   3.099  16.307 -0.3773 -0.4168  0.1263
 1523TIP3    H126060   2.660   3.105  16.398 -1.5834 -1.1952 -0.1463
 1523TIP3    H226061   2.737   3.017  16.302  1.1750  0.4870  0.4146
 1524TIP3   OH226062   0.899   5.754   2.300 -0.0841  0.2252 -0.3388
 1524TIP3    H126063   0.890   5.812   2.375 -0.0565 -0.1723 -0.0188
 1524TIP3    H226064   0.888   5.810   2.224  0.2509  0.6962 -0.0404
 1525TIP3   OH226065   0.573   4.908  16.178 -0.3541 -0.0113 -0.2265
 1525TIP3    H126066   0.481   4.916  16.202 -0.0616  1.9037  0.4581
 1525TIP3    H226067   0.579   4.948  16.092  0.0114  0.9858  0.2465
 1526TIP3   OH226068   3.519   6.627   0.389  0.0477  0.7215  0.4468
 1526TIP3    H126069   3.466   6.666   0.319 -0.0836 -0.0638  0.1016
 1526TIP3    H226070   3.467   6.640   0.468 -0.6813 -0.0345  0.1113
 1527TIP3   OH226071   4.834   0.634   2.940  0.4955 -0.3305  0.3741
 1527TIP3    H126072   4.772   0.652   3.011 -1.8489  0.2196 -1.6667
 1527TIP3    H226073   4.895   0.570   2.977  0.3288  1.0789  3.3153
 1528TIP3   OH226074   4.110   6.760   2.349  0.5482  0.8588  0.1004
 1528TIP3    H126075   4.161   6.768   2.268  1.3874  0.2976  0.5591
 1528TIP3    H226076   4.121   6.668   2.375  0.8813  1.2052  1.2372
 1529TIP3   OH226077   5.941   4.952  11.967  0.3674 -0.4172 -0.5995
 1529TIP3    H126078   5.867   4.904  12.003  1.4526 -1.4762  0.2923
 1529TIP3    H226079   6.008   4.886  11.953  1.0895  0.4814 -1.6122
 1530TIP3   OH226080   5.617   4.163  15.689 -0.2872 -0.5911 -0.1707
 1530TIP3    H126081   5.545   4.225  15.697  0.1431 -0.1285  0.2339
 1530TIP3    H226082   5.632   4.155  15.594 -0.0464  0.2856 -0.2106
 1531TIP3   OH226083   4.939   4.326  14.998  0.0991  0.0066 -0.4825
 1531TIP3    H126084   4.861   4.272  15.010  0.4732 -0.2985  0.7783
 1531TIP3    H226085   4.912   4.395  14.937 -0.3208 -1.7264 -2.3597
 1532TIP3   OH226086   0.447   2.084  13.958  0.5612  0.1376  0.1902
 1532TIP3    H126087   0.355   2.105  13.940 -0.3016 -2.2200  1.4869
 1532TIP3    H226088   0.468   2.134  14.037 -0.0255 -0.2798  0.6197
 1533TIP3   OH226089   2.476   6.781   3.168 -0.3145  0.1133  0.4843
 1533TIP3    H126090   2.413   6.719   3.205 -1.2822  0.4860 -0.4514
 1533TIP3    H226091   2.465   6.771   3.073  0.7267  0.5176  0.3091
 1534TIP3   OH226092   5.219   0.466   3.995  0.3892  0.4305  0.7044
 1534TIP3    H126093   5.187   0.378   4.014 -0.0616  0.0842 -1.4188
 1534TIP3    H226094   5.236   0.466   3.901  2.6416  1.9139  1.0438
 1535TIP3   OH226095   6.524   2.023  15.292  0.5678 -0.4683  0.3312
 1535TIP3    H126096   6.461   2.021  15.364  0.7052  2.0689  0.6164
 1535TIP3    H226097   6.598   2.073  15.327  1.4723 -0.8768 -0.9449
 1536TIP3   OH226098   3.569   1.278  16.629 -0.5228  0.3474  0.4123
 1536TIP3    H126099   3.594   1.324  16.709 -0.0587 -0.8588  0.9817
 1536TIP3    H226100   3.474   1.288  16.625 -0.3622  1.9929  0.1011
 1537TIP3   OH226101   5.542   5.558   5.806 -0.2590  0.1419  0.5469
 1537TIP3    H126102   5.522   5.466   5.821  0.5592  0.1479  1.8193
 1537TIP3    H226103   5.629   5.570   5.845 -0.1031  1.3200 -0.1241
 1538TIP3   OH226104   6.055   5.684   2.931  0.2310  0.0867 -0.1507
 1538TIP3    H126105   6.012   5.761   2.892 -0.7713 -0.6491 -0.5308
 1538TIP3    H226106   5.992   5.613   2.919  1.0424 -0.7443  0.4260
 1539TIP3   OH226107   5.113   1.279   2.496  0.0332  0.0564 -0.1921
 1539TIP3    H126108   5.072   1.197   2.524  0.1102 -0.2673 -1.0150
 1539TIP3    H226109   5.045   1.345   2.507 -0.0471 -0.1237  0.4257
 1540TIP3   OH226110   5.651   5.520   4.326  0.0737  0.3225 -0.2256
 1540TIP3    H126111   5.704   5.597   4.348 -0.1301  0.2075  0.7425
 1540TIP3    H226112   5.671   5.502   4.235  0.8931  0.9184 -0.1756
 1541TIP3   OH226113   1.359   4.203  13.656 -0.1832 -0.1529  0.0831
 1541TIP3    H126114   1.432   4.173  13.602  0.2058  1.0962 -0.1152
 1541TIP3    H226115   1.370   4.157  13.739  0.4355 -0.4931 -0.1805
 1542TIP3   OH226116   2.832   2.777  10.271  0.0582 -0.3073 -0.0987
 1542TIP3    H126117   2.769   2.705  10.275 -0.3777  0.1038  0.6357
 1542TIP3    H226118   2.821   2.823  10.354  0.3399  0.5931 -0.5455
 1543TIP3   OH226119   5.720   5.784   1.591  0.4121  0.3687 -0.4142
 1543TIP3    H126120   5.773   5.735   1.654 -0.7164 -2.4063 -1.4378
 1543TIP3    H226121   5.783   5.832   1.538  1.7763 -1.1784 -0.2731
 1544TIP3   OH226122   3.409   6.448  12.394 -0.5197 -0.1400 -0.3796
 1544TIP3    H126123   3.429   6.405  12.477 -2.6610 -1.8654 -0.6651
 1544TIP3    H226124   3.320   6.482  12.406 -1.6547 -2.1074 -2.5264
 1545TIP3   OH226125   1.726   0.432   5.796 -0.1428  0.2175 -0.1265
 1545TIP3    H126126   1.699   0.488   5.869  2.4602  1.9096 -0.3281
 1545TIP3    H226127   1.701   0.482   5.718 -1.0251 -0.6145 -0.3949
 1546TIP3   OH226128   3.526   1.026  13.588  0.2549  0.5686 -0.4592
 1546TIP3    H126129   3.604   1.030  13.643 -0.9649 -2.9419  1.8839
 1546TIP3    H226130   3.555   0.981  13.508  0.7401 -0.6025  0.3434
 1547TIP3   OH226131   2.771   2.508  14.368  0.2507 -0.6265  0.4612
 1547TIP3    H126132   2.833   2.541  14.303 -0.3392 -2.9122 -1.4236
 1547TIP3    H226133   2.798   2.417  14.382 -2.1317 -1.4567  0.1615
 1548TIP3   OH226134   1.966   1.609  14.692 -0.2857  0.2038 -0.3364
 1548TIP3    H126135   1.946   1.702  14.693  0.4710  0.3782 -0.7363
 1548TIP3    H226136   2.049   1.601  14.738 -0.6929 -0.3657  0.3217
 1549TIP3   OH226137   1.267   2.925  16.556  0.4531  0.3599  0.1783
 1549TIP3    H126138   1.214   2.993  16.596  0.4981  0.7431 -0.3865
 1549TIP3    H226139   1.220   2.843  16.572 -0.1449  0.6560 -0.0480
 1550TIP3   OH226140   1.188   4.746  16.686  0.1897  0.6531 -0.0574
 1550TIP3    H126141   1.161   4.748  16.778 -0.7302 -0.2188 -0.2875
 1550TIP3    H226142   1.271   4.792  16.684  0.4548  0.2705  1.2930
 1551TIP3   OH226143   4.876   1.514   4.336 -0.1217 -0.0220 -0.1436
 1551TIP3    H126144   4.891   1.481   4.248  0.3225  0.1344 -0.1261
 1551TIP3    H226145   4.963   1.538   4.369 -0.5490  2.4440 -0.6480
 1552TIP3   OH226146   0.113   0.580  11.701 -0.5814  0.3186 -0.1108
 1552TIP3    H126147   0.070   0.612  11.621 -1.6380  0.9216  0.6804
 1552TIP3    H226148   0.063   0.503  11.726 -0.6157  0.4668  0.2868
 1553TIP3   OH226149   4.229   1.734  16.541  0.0281  0.0368 -0.0834
 1553TIP3    H126150   4.223   1.755  16.447 -1.1536 -1.9762 -0.5299
 1553TIP3    H226151   4.275   1.651  16.544  1.0124  0.5938  1.2561
 1554TIP3   OH226152   5.049   4.772   5.729  0.2611  0.1940 -0.3979
 1554TIP3    H126153   5.080   4.859   5.704 -0.7089  0.3034 -1.2883
 1554TIP3    H226154   4.954   4.781   5.732  0.2343  0.1221  3.2184
 1555TIP3   OH226155   5.258   6.827   0.480  0.5365  0.5056 -0.1226
 1555TIP3    H126156   5.338   6.792   0.520 -0.7529 -1.8696  0.5808
 1555TIP3    H226157   5.217   6.751   0.439 -1.7409  1.4757  0.2066
 1556TIP3   OH226158   5.711   4.762   4.884 -0.6154  1.1615  1.0118
 1556TIP3    H126159   5.711   4.742   4.978 -1.5784  0.5286  0.8954
 1556TIP3    H226160   5.677   4.851   4.878 -1.1370  0.9822  1.2343
 1557TIP3   OH226161   6.148   6.520  13.333 -0.2732 -0.0206  0.2230
 1557TIP3    H126162   6.057   6.532  13.306 -0.3369  0.3554  0.5895
 1557TIP3    H226163   6.193   6.598  13.300 -0.3793  0.5107  1.2875
 1558TIP3   OH226164   5.014   3.258  10.779  0.7663  0.4793  0.0945
 1558TIP3    H126165   5.060   3.176  10.760 -0.1407  0.0696 -0.3947
 1558TIP3    H226166   4.929   3.248  10.736  0.1789  1.1762  1.0556
 1559TIP3   OH226167   6.414   1.439   4.475  0.1657  0.0749 -0.0590
 1559TIP3    H126168   6.414   1.401   4.563 -1.4363 -3.6416 -1.4717
 1559TIP3    H226169   6.360   1.518   4.483 -1.0626 -0.9017  2.0452
 1560TIP3   OH226170   4.118   5.293   5.797 -0.1245 -0.1590  0.2701
 1560TIP3    H126171   4.082   5.273   5.710  0.3976 -0.9768  0.2345
 1560TIP3    H226172   4.209   5.317   5.780  0.8996 -3.3068  0.8495
 1561TIP3   OH226173   1.188   4.723  16.975 -0.2055 -0.1690 -0.1910
 1561TIP3    H126174   1.096   4.731  16.951  0.1028 -0.0442 -1.3990
 1561TIP3    H226175   1.217   4.814  16.987 -0.1660 -0.1920 -0.1159
 1562TIP3   OH226176   4.760   0.521  12.304  0.2713 -0.5723 -0.1771
 1562TIP3    H126177   4.754   0.528  12.209 -1.0636 -0.7401 -0.1148
 1562TIP3    H226178   4.675   0.488  12.332  0.6983 -0.6837  1.0700
 1563TIP3   OH226179   4.291   4.163   4.293 -0.3503 -0.4366 -0.4378
 1563TIP3    H126180   4.330   4.128   4.213 -0.2659 -0.5227 -0.3593
 1563TIP3    H226181   4.285   4.088   4.352  2.0453  0.1204  0.6123
 1564TIP3   OH226182   1.439   5.160   6.124  0.3872 -0.2863 -0.1700
 1564TIP3    H126183   1.365   5.125   6.173  0.0596  0.2493 -0.2722
 1564TIP3    H226184   1.497   5.196   6.192  0.3901 -0.3958 -0.1141
 1565TIP3   OH226185   5.434   1.185  12.478  0.0309 -0.1063  0.6856
 1565TIP3    H126186   5.399   1.119  12.538 -0.0003  1.6948  2.7772
 1565TIP3    H226187   5.362   1.203  12.417 -0.0585 -1.7254  0.2690
 1566TIP3   OH226188   2.756   4.913  12.912 -0.0329 -0.3998  0.1454
 1566TIP3    H126189   2.810   4.983  12.877 -0.9436  0.2234 -0.0496
 1566TIP3    H226190   2.756   4.846  12.843  2.2636 -1.4136  1.0293
 1567TIP3   OH226191   2.990   3.488   7.102  0.1484  0.1994 -0.5776
 1567TIP3    H126192   2.952   3.403   7.079  0.4218 -0.1402  0.1832
 1567TIP3    H226193   3.058   3.502   7.036 -0.3071  0.1212 -1.0686
 1568TIP3   OH226194   5.167   5.941   1.121 -0.2706 -0.0444  0.3805
 1568TIP3    H126195   5.258   5.964   1.100 -0.8057  0.3907 -1.6785
 1568TIP3    H226196   5.129   6.023   1.152 -0.0501 -0.1494  0.9336
 1569TIP3   OH226197   3.744   5.509   3.615  0.1710 -0.3434 -0.0421
 1569TIP3    H126198   3.767   5.426   3.656  0.3888 -0.4781 -0.4326
 1569TIP3    H226199   3.674   5.545   3.670 -1.1994 -1.6353 -0.8687
 1570TIP3   OH226200   5.213   6.679  12.538 -0.1133 -0.5963 -0.2735
 1570TIP3    H126201   5.233   6.730  12.616  0.3896 -0.4501 -0.4936
 1570TIP3    H226202   5.140   6.623  12.564 -1.3016  0.9011 -0.3156
 1571TIP3   OH226203   6.016   0.676  13.646  0.0456 -0.0188  0.0167
 1571TIP3    H126204   5.935   0.630  13.666 -0.2126  0.1355 -0.6404
 1571TIP3    H226205   6.050   0.703  13.731 -1.5420  1.5187  0.2099
 1572TIP3   OH226206   3.022   5.432   4.163 -0.0153  0.7286  0.6414
 1572TIP3    H126207   3.055   5.348   4.131  0.1456  0.9115  0.3315
 1572TIP3    H226208   2.937   5.442   4.120  2.0877  3.1526 -3.5188
 1573TIP3   OH226209   4.674   5.797  11.901 -0.5173 -0.2937 -0.2024
 1573TIP3    H126210   4.673   5.707  11.868 -1.0099 -0.0041 -0.9972
 1573TIP3    H226211   4.589   5.833  11.876  0.4529  1.0495 -1.7285
 1574TIP3   OH226212   6.529   3.543  14.469  0.4700 -0.1265 -0.3612
 1574TIP3    H126213   6.475   3.505  14.538 -1.0946  0.8914 -0.9639
 1574TIP3    H226214   6.574   3.617  14.511  1.9687 -1.3778  0.3114
 1575TIP3   OH226215   3.930   2.518  11.852  0.5605  0.7156  0.6381
 1575TIP3    H126216   3.974   2.591  11.810  0.9665  0.5425  0.7558
 1575TIP3    H226217   3.936   2.536  11.946  3.0628 -0.7633  0.8564
 1576TIP3   OH226218   6.411   5.785   5.696 -0.7227  0.3324  0.0202
 1576TIP3    H126219   6.483   5.844   5.720 -0.8400 -0.0951  1.4900
 1576TIP3    H226220   6.421   5.710   5.754 -2.6133  0.4632  0.5780
 1577TIP3   OH226221   4.164   4.659  13.818  0.4286  0.2871  0.3120
 1577TIP3    H126222   4.085   4.629  13.862  1.0168  2.9388  3.5643
 1577TIP3    H226223   4.132   4.714  13.746 -0.7230  0.8818  1.2458
 1578TIP3   OH226224   1.254   2.399  12.012  0.4419 -0.3089 -0.0961
 1578TIP3    H126225   1.323   2.351  12.059  1.5914  1.2435 -0.1252
 1578TIP3    H226226   1.218   2.458  12.077  1.5683  1.3664 -0.9298
 1579TIP3   OH226227   3.939   3.175   1.033 -0.4455 -0.1903 -0.3235
 1579TIP3    H126228   4.026   3.195   0.999 -0.2731 -0.0747  0.1698
 1579TIP3    H226229   3.941   3.207   1.124 -1.4511  1.0857 -0.7122
 1580TIP3   OH226230   5.299   4.785  12.905  0.5035 -0.3951 -0.4511
 1580TIP3    H126231   5.250   4.795  12.824 -1.2829 -0.1705  0.6129
 1580TIP3    H226232   5.307   4.690  12.917 -0.3992 -0.4438 -0.2136
 1581TIP3   OH226233   3.984   6.412  14.296 -0.1278 -0.1983  0.2940
 1581TIP3    H126234   3.899   6.407  14.252 -1.0165  0.7428  1.8033
 1581TIP3    H226235   3.994   6.505  14.318  1.7929 -0.1133 -0.7524
 1582TIP3   OH226236   6.653   4.060   6.209 -0.1954 -0.3764  0.2886
 1582TIP3    H126237   6.731   4.092   6.164 -1.3183 -0.7734 -2.1109
 1582TIP3    H226238   6.617   4.137   6.253  0.5682  0.2171 -0.0932
 1583TIP3   OH226239   5.656   1.856  15.867  0.3902 -0.2886 -0.1501
 1583TIP3    H126240   5.657   1.846  15.962  1.4437 -1.9289 -0.2954
 1583TIP3    H226241   5.746   1.835  15.839  0.3012  0.8974 -1.4500
 1584TIP3   OH226242   3.036   3.082   4.113  0.4120  0.3280 -0.6593
 1584TIP3    H126243   3.084   3.008   4.074 -0.5322  0.2398 -1.7013
 1584TIP3    H226244   3.072   3.090   4.201  2.2250  0.1520 -1.3292
 1585TIP3   OH226245   0.225   4.792   2.733 -0.6135  0.7107  0.2568
 1585TIP3    H126246   0.243   4.763   2.823 -0.6780 -0.6918 -0.1535
 1585TIP3    H226247   0.149   4.741   2.707 -1.4256  2.1061 -0.1471
 1586TIP3   OH226248   1.352   5.732  12.133  0.4090  0.2001  0.0779
 1586TIP3    H126249   1.447   5.733  12.126  0.3765 -0.9554 -1.0352
 1586TIP3    H226250   1.334   5.753  12.224  1.9003 -2.4211  1.0953
 1587TIP3   OH226251   6.438   1.509  13.006 -0.1432 -0.0749  0.0564
 1587TIP3    H126252   6.478   1.501  12.919 -0.1280 -0.1875  0.0742
 1587TIP3    H226253   6.454   1.425  13.048 -0.6097 -0.2084 -0.0269
 1588TIP3   OH226254   3.562   4.036   3.492 -0.1200  0.3615  0.0697
 1588TIP3    H126255   3.531   3.961   3.442  1.1672  0.5466 -1.0567
 1588TIP3    H226256   3.536   4.017   3.582  0.3983 -1.5447 -0.1539
 1589TIP3   OH226257   0.539   1.491   2.409  0.5415  0.0692  0.3367
 1589TIP3    H126258   0.568   1.547   2.336 -0.0267  0.0165  0.0668
 1589TIP3    H226259   0.602   1.510   2.479  1.0950  0.1220 -0.1634
 1590TIP3   OH226260   5.860   4.869   0.853 -0.3772 -0.2811  0.0517
 1590TIP3    H126261   5.873   4.805   0.783 -1.0936  1.5313 -1.7963
 1590TIP3    H226262   5.813   4.820   0.921  1.0710 -2.3066 -0.2972
 1591TIP3   OH226263   0.576   2.439  16.654 -0.1803 -0.2568 -0.3217
 1591TIP3    H126264   0.508   2.404  16.712  1.6761  0.2744  2.3404
 1591TIP3    H226265   0.645   2.373  16.655  0.9015  0.8372  0.1080
 1592TIP3   OH226266   3.784   6.078   6.529 -0.3006  0.0737 -0.3699
 1592TIP3    H126267   3.846   6.149   6.549 -1.5883  0.6380  2.0316
 1592TIP3    H226268   3.701   6.123   6.513 -0.4702 -0.7672 -2.0064
 1593TIP3   OH226269   5.261   2.947  13.372  0.0838 -0.3960 -0.5282
 1593TIP3    H126270   5.229   3.014  13.432  0.6469 -0.4505 -0.1625
 1593TIP3    H226271   5.336   2.907  13.417 -0.6604 -1.7456 -0.4268
 1594TIP3   OH226272   3.653   5.087  14.248 -0.2241  0.2212 -0.5272
 1594TIP3    H126273   3.666   5.175  14.283  2.6545 -0.1259 -0.4603
 1594TIP3    H226274   3.649   5.031  14.326 -0.2928  0.1038 -0.6149
 1595TIP3   OH226275   6.097   2.968   3.622  0.0585 -0.1667  0.0114
 1595TIP3    H126276   6.073   3.005   3.707 -0.4201  0.7262 -0.4916
 1595TIP3    H226277   6.112   3.044   3.566  0.4220 -0.7401 -0.6936
 1596TIP3   OH226278   2.561   0.149   0.509 -0.4917  0.1371 -0.2422
 1596TIP3    H126279   2.575   0.078   0.571 -2.9002 -0.1226  0.0991
 1596TIP3    H226280   2.543   0.105   0.425 -1.6832  0.3127 -0.0977
 1597TIP3   OH226281   3.732   0.207  14.821  0.2257 -0.7706  0.1523
 1597TIP3    H126282   3.731   0.178  14.729  0.4762  0.1095 -0.1378
 1597TIP3    H226283   3.765   0.132  14.869  1.8873 -0.6370 -0.7086
 1598TIP3   OH226284   6.537   3.909  15.251  0.0471 -0.3400 -0.0104
 1598TIP3    H126285   6.487   3.846  15.198  1.0172 -0.8533 -0.3319
 1598TIP3    H226286   6.608   3.937  15.194 -0.7387  1.5922 -0.1195
 1599TIP3   OH226287   5.254   5.439  11.173 -0.3305 -0.0144  0.1028
 1599TIP3    H126288   5.271   5.532  11.161 -0.2167 -0.0435  0.0365
 1599TIP3    H226289   5.322   5.410  11.235  0.3220 -0.2817 -0.7145
 1600TIP3   OH226290   5.969   4.109   1.097  0.3819 -0.4349 -0.2756
 1600TIP3    H126291   5.956   4.019   1.067  0.6888 -0.4312 -0.4326
 1600TIP3    H226292   6.064   4.123   1.090  0.5857 -0.7153  1.5218
 1601TIP3   OH226293   5.768   1.878  16.392  0.3730 -0.3436 -0.2692
 1601TIP3    H126294   5.813   1.798  16.420  0.9830  0.0976  0.0386
 1601TIP3    H226295   5.831   1.948  16.408  0.3435  0.0609 -1.7478
 1602TIP3   OH226296   0.728   5.119  13.361  0.0937 -0.0461  0.6809
 1602TIP3    H126297   0.768   5.179  13.298 -1.4444  0.6997  0.3777
 1602TIP3    H226298   0.634   5.129  13.348 -0.2940  0.3317  3.3052
 1603TIP3   OH226299   5.844   1.686   5.287  0.2781  0.2081 -0.0011
 1603TIP3    H126300   5.832   1.591   5.278  1.5148  0.0521 -0.1916
 1603TIP3    H226301   5.755   1.722   5.288 -0.1874 -0.8958 -0.5598
 1604TIP3   OH226302   1.407   2.846  14.044  0.0143  0.3213 -0.5527
 1604TIP3    H126303   1.365   2.834  14.129  0.1858 -0.2802 -0.5465
 1604TIP3    H226304   1.337   2.875  13.986 -0.2255  0.1685 -0.3423
 1605TIP3   OH226305   5.185   0.162  14.679  0.1682  0.1653  0.0603
 1605TIP3    H126306   5.142   0.248  14.680  2.8966  1.6092  1.3228
 1605TIP3    H226307   5.155   0.120  14.759  0.2750  0.7388  0.4117
 1606TIP3   OH226308   5.506   5.226  12.997  0.2593  0.6441 -0.0256
 1606TIP3    H126309   5.573   5.273  12.947 -0.5084 -0.0942 -1.8624
 1606TIP3    H226310   5.502   5.140  12.957 -1.1248  0.3594  0.6605
 1607TIP3   OH226311   3.948   0.831  16.526  0.5562 -0.0914  0.2021
 1607TIP3    H126312   3.992   0.905  16.484  0.4934 -1.2022 -1.9929
 1607TIP3    H226313   3.959   0.759  16.464 -2.0940 -1.1030  0.7979
 1608TIP3   OH226314   0.984   1.984   2.974 -0.2770 -0.3815  0.1260
 1608TIP3    H126315   0.991   1.903   3.025 -1.7919 -1.1558 -0.8132
 1608TIP3    H226316   0.992   1.955   2.883 -0.1286  0.6409 -0.1987
 1609TIP3   OH226317   3.853   1.512   3.476 -0.4156  0.1489  0.0010
 1609TIP3    H126318   3.837   1.514   3.382 -0.3779  2.0257 -0.0009
 1609TIP3    H226319   3.802   1.585   3.511  0.9545  0.5965  1.1748
 1610TIP3   OH226320   0.260   6.460   3.538 -0.0750  0.1404  0.0602
 1610TIP3    H126321   0.302   6.376   3.559  1.0927  0.6836 -0.0287
 1610TIP3    H226322   0.326   6.526   3.559 -0.7567  1.0084 -0.4490
 1611TIP3   OH226323   3.039   6.285  15.378  0.2918 -0.5254 -0.4413
 1611TIP3    H126324   2.977   6.227  15.423  0.4286 -0.9835 -0.8294
 1611TIP3    H226325   3.109   6.226  15.349  2.2137  0.2902  2.1173
 1612TIP3   OH226326   4.700   1.896  15.915 -0.3943 -0.6827 -0.7720
 1612TIP3    H126327   4.656   1.813  15.896 -2.5976  0.4454 -0.8908
 1612TIP3    H226328   4.636   1.963  15.891  1.9163  1.1358 -2.2937
 1613TIP3   OH226329   4.077   6.350  14.958 -0.4312 -0.1860  0.2758
 1613TIP3    H126330   3.995   6.398  14.969  0.6127  1.4540  1.4596
 1613TIP3    H226331   4.145   6.414  14.977  1.2097 -1.1917 -1.7666
 1614TIP3   OH226332   3.657   5.329   2.744  0.3695  0.1039  0.0304
 1614TIP3    H126333   3.672   5.329   2.838  0.7661 -0.1226 -0.0307
 1614TIP3    H226334   3.603   5.252   2.728  2.2536 -1.2337 -0.2166
 1615TIP3   OH226335   4.219   4.558  15.909  0.2978 -0.5267  0.1709
 1615TIP3    H126336   4.240   4.625  15.844 -3.3717 -0.3451 -1.0446
 1615TIP3    H226337   4.213   4.606  15.992  0.7219  0.0711 -0.1362
 1616TIP3   OH226338   2.956   4.352  11.204 -0.2082  0.5719 -0.0194
 1616TIP3    H126339   2.900   4.302  11.263  1.0469 -0.5646  0.2425
 1616TIP3    H226340   3.007   4.286  11.157  0.2426  1.5409 -0.9443
 1617TIP3   OH226341   0.345   4.820  13.753 -0.1742  1.0971  0.2618
 1617TIP3    H126342   0.281   4.771  13.702  0.3128  0.3637  0.3343
 1617TIP3    H226343   0.356   4.769  13.834  1.4039  0.5212 -0.2697
 1618TIP3   OH226344   0.592   1.078   4.863 -0.3105  0.2016  0.2049
 1618TIP3    H126345   0.656   1.009   4.883  0.7278  1.0590 -0.0483
 1618TIP3    H226346   0.646   1.155   4.845 -1.4564  1.6608  2.5348
 1619TIP3   OH226347   2.799   3.734  12.498  0.4608 -0.1022  0.1910
 1619TIP3    H126348   2.895   3.733  12.499  0.4774 -2.3458  1.6588
 1619TIP3    H226349   2.774   3.655  12.450 -0.6628 -0.0592  0.6656
 1620TIP3   OH226350   2.311   2.471  10.776  0.6283  0.2600  0.4214
 1620TIP3    H126351   2.324   2.489  10.869 -2.8200 -4.2862  2.1831
 1620TIP3    H226352   2.218   2.488  10.761  0.4529 -1.7499 -1.2983
 1621TIP3   OH226353   1.531   5.055   3.359  0.6052  0.0060  0.1456
 1621TIP3    H126354   1.577   5.043   3.442  0.1223 -0.9460  0.2931
 1621TIP3    H226355   1.590   5.109   3.306  2.3066 -1.8388  0.0155
 1622TIP3   OH226356   1.447   3.408   2.758 -0.0290 -0.3192 -0.4122
 1622TIP3    H126357   1.352   3.407   2.768  0.0809  0.3690  0.9687
 1622TIP3    H226358   1.480   3.394   2.847  1.1587  0.1640 -0.7619
 1623TIP3   OH226359   3.735   1.835   5.401 -0.0624  0.1490  0.2548
 1623TIP3    H126360   3.646   1.870   5.403  0.6857  2.5566 -2.1872
 1623TIP3    H226361   3.744   1.787   5.484 -2.7819  1.9442  1.7455
 1624TIP3   OH226362   5.655   0.028   3.372 -0.6249  0.4346  0.3238
 1624TIP3    H126363   5.626   0.098   3.430 -0.0993 -0.3639  1.6006
 1624TIP3    H226364   5.597  -0.046   3.392 -0.1523  0.0114  0.1553
 1625TIP3   OH226365   3.671   1.353  17.086  0.0326 -0.2838 -0.0034
 1625TIP3    H126366   3.607   1.322  17.022 -0.5594 -1.3942  1.0884
 1625TIP3    H226367   3.746   1.294  17.077 -0.6604 -1.4309  1.3267
 1626TIP3   OH226368   6.818   1.692  16.830  0.3192 -0.1510 -0.2856
 1626TIP3    H126369   6.742   1.646  16.795  1.2128 -0.7958 -1.4261
 1626TIP3    H226370   6.877   1.622  16.859 -0.0565  0.3462  1.8663
 1627TIP3   OH226371   0.057   0.671  13.074 -0.2733 -0.2334  0.1306
 1627TIP3    H126372  -0.037   0.688  13.076 -0.1434  0.4750  0.5565
 1627TIP3    H226373   0.087   0.709  12.991 -0.2983 -0.0860  0.1882
 1628TIP3   OH226374   5.071   5.845  17.028 -0.2043 -0.2717  0.0251
 1628TIP3    H126375   5.164   5.825  17.021 -0.3602 -2.8021  3.0880
 1628TIP3    H226376   5.054   5.850  17.122 -2.4113  4.8668 -0.3038
 1629TIP3   OH226377   1.813   1.034   0.656 -0.2320 -0.4909 -0.3400
 1629TIP3    H126378   1.778   1.122   0.646 -0.1203 -0.6643 -2.8009
 1629TIP3    H226379   1.762   0.980   0.595  0.9966 -1.7297 -0.3237
 1630TIP3   OH226380   2.176   4.316  15.799  0.1065  0.0644 -0.3079
 1630TIP3    H126381   2.080   4.307  15.797  0.0230  0.7535  0.2837
 1630TIP3    H226382   2.202   4.274  15.881  0.1298  1.3645  0.3752
 1631TIP3   OH226383   3.418   4.027   3.732 -0.5069  0.2330  0.0473
 1631TIP3    H126384   3.416   3.940   3.772  0.4843 -0.6011 -1.6324
 1631TIP3    H226385   3.441   4.085   3.804  0.6987 -1.1459  0.8377
 1632TIP3   OH226386   2.214   0.809   2.955  0.3758 -0.4322 -0.0152
 1632TIP3    H126387   2.200   0.900   2.929 -0.5483 -0.2684  0.9717
 1632TIP3    H226388   2.131   0.765   2.935  0.3289 -0.7350  0.7905
 1633TIP3   OH226389   4.139   4.235   3.964  0.5635 -0.2306  0.0529
 1633TIP3    H126390   4.069   4.255   3.902 -0.0557 -2.0974  0.0866
 1633TIP3    H226391   4.218   4.265   3.921 -0.1305  0.9122 -0.4719
 1634TIP3   OH226392   2.849   1.906  16.565 -0.1658 -0.4460  0.2436
 1634TIP3    H126393   2.773   1.962  16.550 -0.4217 -1.2523 -1.6978
 1634TIP3    H226394   2.833   1.867  16.652 -2.6623 -1.5864 -0.6202
 1635TIP3   OH226395   3.102   6.202   5.434  0.1284 -0.1505  0.2366
 1635TIP3    H126396   3.097   6.270   5.502 -1.3817 -0.6340  0.6554
 1635TIP3    H226397   3.019   6.155   5.441  1.8278 -3.3321  1.2964
 1636TIP3   OH226398   2.589   4.432  14.137  0.0076 -0.4586 -0.0380
 1636TIP3    H126399   2.634   4.444  14.053  0.4731 -0.6172  0.1884
 1636TIP3    H226400   2.647   4.376  14.188  0.9807  1.6927  1.3556
 1637TIP3   OH226401   5.504   4.277  16.668 -0.0027  0.2469  0.2767
 1637TIP3    H126402   5.587   4.300  16.708 -0.2814  1.0647  0.3964
 1637TIP3    H226403   5.470   4.205  16.722  0.4892  0.1029  0.3955
 1638TIP3   OH226404   5.332   4.324   5.777  0.3690 -0.1127  0.0640
 1638TIP3    H126405   5.379   4.368   5.848  0.0818  0.4727 -0.0965
 1638TIP3    H226406   5.320   4.234   5.807  0.2181  0.1405  0.7743
 1639TIP3   OH226407   1.675   5.832  16.474  0.2823  0.7685 -0.9319
 1639TIP3    H126408   1.604   5.772  16.499 -0.0670  0.7385 -1.9562
 1639TIP3    H226409   1.632   5.917  16.465 -0.1934  0.3235 -3.9686
 1640TIP3   OH226410   6.825   4.443   0.893  0.0827 -0.1058  0.3435
 1640TIP3    H126411   6.756   4.380   0.910 -0.0874  0.4727  1.9742
 1640TIP3    H226412   6.905   4.391   0.887 -0.1783 -0.5659  0.7921
 1641TIP3   OH226413   0.869   1.101   2.364  0.3677  0.5621  0.2610
 1641TIP3    H126414   0.826   1.149   2.294 -3.1463  0.4479  2.0928
 1641TIP3    H226415   0.873   1.011   2.333 -1.6950  0.4044  0.3486
 1642TIP3   OH226416   3.527   6.679  12.822 -0.5475  0.0579 -0.1101
 1642TIP3    H126417   3.597   6.732  12.859  0.3613 -0.4683 -1.0017
 1642TIP3    H226418   3.517   6.712  12.733 -1.8370  0.4998  0.1830
 1643TIP3   OH226419   4.334   3.570   0.934 -0.2374  0.1365  0.4414
 1643TIP3    H126420   4.296   3.609   1.012 -1.2835 -1.2708  0.6848
 1643TIP3    H226421   4.352   3.644   0.876 -0.3785  1.1098  1.6080
 1644TIP3   OH226422   1.252   6.297  10.551  0.1496 -0.4082  0.0453
 1644TIP3    H126423   1.211   6.379  10.576 -0.9142 -1.7050  2.9557
 1644TIP3    H226424   1.344   6.320  10.537 -0.0631  1.2450  1.0341
 1645TIP3   OH226425   2.956   5.207   2.873  0.0425  0.4882 -0.0054
 1645TIP3    H126426   2.884   5.203   2.935  0.2514 -0.1201  0.2045
 1645TIP3    H226427   2.967   5.300   2.855 -0.7045  0.5948  0.0602
 1646TIP3   OH226428   1.189   0.715  15.458 -0.2826 -0.4949 -0.0757
 1646TIP3    H126429   1.215   0.807  15.451 -0.9674 -0.3459 -0.8740
 1646TIP3    H226430   1.216   0.677  15.374 -0.6506 -0.8443 -0.0361
 1647TIP3   OH226431   6.012   0.556   4.545  0.5043  0.2582 -0.3331
 1647TIP3    H126432   5.921   0.562   4.515  1.3566  0.6280 -3.0905
 1647TIP3    H226433   6.026   0.637   4.594 -0.9495 -0.3513  1.1951
 1648TIP3   OH226434   4.836   4.049  13.838 -0.0716  0.3623  0.4717
 1648TIP3    H126435   4.814   4.099  13.916  1.6610  0.9799  0.5887
 1648TIP3    H226436   4.888   4.108  13.784  1.8662 -1.1751  0.5270
 1649TIP3   OH226437   1.324   5.112   0.232  0.0781 -0.4160 -0.0593
 1649TIP3    H126438   1.320   5.185   0.293  0.9114 -1.5824  1.4754
 1649TIP3    H226439   1.416   5.086   0.232 -0.6814 -3.7637  2.3958
 1650TIP3   OH226440   3.655   0.491  15.252 -0.2504 -0.0611  0.5521
 1650TIP3    H126441   3.633   0.439  15.175 -1.7296  0.0561  0.8734
 1650TIP3    H226442   3.731   0.447  15.290 -1.0704 -1.6041  0.4559
 1651TIP3   OH226443   4.148   6.078  14.478  0.2208 -0.1289  0.1034
 1651TIP3    H126444   4.129   6.117  14.563  1.1718  0.2413  0.1676
 1651TIP3    H226445   4.222   6.019  14.494 -0.8199 -1.5342 -0.1152
 1652TIP3   OH226446   6.673   2.223  11.014  0.8134  0.3291  0.0493
 1652TIP3    H126447   6.648   2.176  10.935 -2.6753  2.3447 -0.2352
 1652TIP3    H226448   6.642   2.168  11.086  0.1551  0.4424 -0.1448
 1653TIP3   OH226449   3.023   5.190  11.267  0.2912 -0.7613 -0.5710
 1653TIP3    H126450   3.017   5.264  11.327 -1.7076 -1.5308  0.2626
 1653TIP3    H226451   2.973   5.216  11.191 -0.2099 -1.1476 -0.3781
 1654TIP3   OH226452   2.075   6.085   1.849  0.0897 -0.4907 -0.3104
 1654TIP3    H126453   2.147   6.026   1.875  1.4487  0.4158 -1.8161
 1654TIP3    H226454   2.059   6.063   1.758 -0.3733  0.4901 -0.4711
 1655TIP3   OH226455   2.002   2.838  12.133 -0.0751 -0.4347  0.3975
 1655TIP3    H126456   1.979   2.903  12.067  0.4842 -1.7791 -1.1820
 1655TIP3    H226457   2.040   2.889  12.205  0.1058  0.9968 -0.6701
 1656TIP3   OH226458   5.217   0.864   1.761  0.1785  0.1039  0.0257
 1656TIP3    H126459   5.285   0.906   1.814  0.4962 -0.0326 -0.2711
 1656TIP3    H226460   5.262   0.792   1.718  0.1300  0.7390 -1.1165
 1657TIP3   OH226461   6.569   4.385  13.935 -0.5570  0.8392  0.0636
 1657TIP3    H126462   6.539   4.421  13.851  2.3757 -0.8193 -1.8826
 1657TIP3    H226463   6.587   4.292  13.916  2.1541  0.8712  1.8991
 1658TIP3   OH226464   1.315   5.971   4.796 -0.3304 -0.3949 -0.5770
 1658TIP3    H126465   1.339   6.060   4.819  2.4331 -1.0123 -0.7571
 1658TIP3    H226466   1.244   5.981   4.733  0.3442  1.7013 -1.0842
 1659TIP3   OH226467   3.975   0.785  15.478  0.4313  0.3143 -0.0937
 1659TIP3    H126468   4.071   0.780  15.484  0.4858  0.1400 -0.9522
 1659TIP3    H226469   3.957   0.771  15.385 -0.3430  1.6839 -0.1729
 1660TIP3   OH226470   0.648   2.397   5.591  0.2419 -0.7740  0.1652
 1660TIP3    H126471   0.562   2.434   5.571  0.1508 -1.4546 -0.7921
 1660TIP3    H226472   0.685   2.455   5.657  0.1955  1.1835 -1.4260
 1661TIP3   OH226473   4.396   4.074  14.465 -0.6366 -0.8399  0.4730
 1661TIP3    H126474   4.481   4.071  14.422 -0.8430 -1.4344  0.1001
 1661TIP3    H226475   4.385   3.987  14.503 -1.6585 -1.2176 -0.6234
 1662TIP3   OH226476   1.321   4.941  10.975 -0.2357 -0.1716 -0.3088
 1662TIP3    H126477   1.244   4.969  10.925  0.3800  0.5158 -0.8846
 1662TIP3    H226478   1.351   4.861  10.932 -0.8433 -0.6621  0.1544
 1663TIP3   OH226479   2.040   4.040   5.730 -0.1005  0.7060 -0.1517
 1663TIP3    H126480   1.982   3.972   5.763  0.5270  0.1743 -0.1346
 1663TIP3    H226481   1.995   4.122   5.751  0.4245  0.4268  2.4018
 1664TIP3   OH226482   6.272   1.175   4.432  0.2245  0.0521  0.3618
 1664TIP3    H126483   6.205   1.184   4.364 -1.3941  1.7091  2.0436
 1664TIP3    H226484   6.347   1.223   4.398 -0.4463  0.6113 -0.3760
 1665TIP3   OH226485   1.977   5.921  13.477  0.1614  0.5904 -0.5807
 1665TIP3    H126486   1.986   5.827  13.461  1.3122  0.9828 -2.6601
 1665TIP3    H226487   2.059   5.959  13.443 -0.1018  2.3114  0.5795
 1666TIP3   OH226488   6.799   6.115   2.482  1.1550 -0.1274  0.8050
 1666TIP3    H126489   6.745   6.086   2.556  2.5235  0.4082  2.0676
 1666TIP3    H226490   6.762   6.199   2.456  0.1653 -0.6957  0.3243
 1667TIP3   OH226491   5.387   0.441  16.241 -0.3297  0.2373 -0.0295
 1667TIP3    H126492   5.431   0.525  16.232  0.3744 -0.0083  0.9964
 1667TIP3    H226493   5.319   0.457  16.307  0.1057 -0.1151  0.5038
 1668TIP3   OH226494   4.717   4.460   5.004 -0.1220  0.0438  0.1369
 1668TIP3    H126495   4.685   4.370   5.001 -1.7424  0.6021 -0.0621
 1668TIP3    H226496   4.662   4.503   5.070  1.0351  0.7488  0.6731
 1669TIP3   OH226497   0.614   1.878   6.160  0.1565  0.2029 -0.0112
 1669TIP3    H126498   0.604   1.967   6.127  0.8585  0.2404 -0.1341
 1669TIP3    H226499   0.697   1.879   6.207 -0.7269  0.1214  1.6629
 1670TIP3   OH226500   0.809   0.823  11.330 -0.4304  0.0299  0.0940
 1670TIP3    H126501   0.810   0.830  11.425 -0.7598  0.1872  0.0863
 1670TIP3    H226502   0.898   0.796  11.307 -0.6067 -0.9259  0.5121
 1671TIP3   OH226503   0.862   2.635   1.543  0.3427  0.4023 -0.2030
 1671TIP3    H126504   0.946   2.662   1.505  0.5302 -1.4882 -1.2380
 1671TIP3    H226505   0.886   2.581   1.618  0.1017 -0.9018 -1.0402
 1672TIP3   OH226506   2.452   6.807  15.201 -0.3671 -0.3814  0.0992
 1672TIP3    H126507   2.409   6.866  15.262  0.1771  1.2691 -1.0340
 1672TIP3    H226508   2.401   6.726  15.206 -0.3674 -0.2867  2.6318
 1673TIP3   OH226509   2.763   5.975  12.364 -0.5519 -0.7123  0.2258
 1673TIP3    H126510   2.799   6.062  12.346 -1.2000 -0.3448  0.6781
 1673TIP3    H226511   2.826   5.935  12.424  1.4933 -1.8445 -2.4188
 1674TIP3   OH226512   4.210   6.103  12.216  0.0284  0.0560  0.0074
 1674TIP3    H126513   4.265   6.027  12.196  1.5423  1.2311 -0.5197
 1674TIP3    H226514   4.208   6.107  12.312  1.0108  0.0581  0.0419
 1675TIP3   OH226515   1.709   1.559  15.973 -0.2157  0.7065 -0.0964
 1675TIP3    H126516   1.616   1.548  15.951 -0.1996  0.4662 -0.0448
 1675TIP3    H226517   1.727   1.651  15.954 -1.0290  1.3444  1.9451
 1676TIP3   OH226518   6.125   5.577  14.774  0.0446 -0.4115  0.0946
 1676TIP3    H126519   6.046   5.615  14.811  0.0467 -0.4415  0.1306
 1676TIP3    H226520   6.130   5.489  14.812  1.3048  0.3651  1.9197
 1677TIP3   OH226521   5.947   1.259  12.457 -0.1407 -0.1788  0.3115
 1677TIP3    H126522   5.853   1.259  12.435 -0.1171 -0.0168  0.2034
 1677TIP3    H226523   5.982   1.180  12.416 -0.1650 -0.0612  0.0642
 1678TIP3   OH226524   4.053   2.073   2.533  0.3020  0.1458  0.3750
 1678TIP3    H126525   3.968   2.079   2.577 -1.4014 -0.2460 -2.5700
 1678TIP3    H226526   4.061   2.156   2.486  1.5990  0.1905  0.6532
 1679TIP3   OH226527   3.074   4.910  13.016 -0.0458 -0.6640  0.7568
 1679TIP3    H126528   3.169   4.917  13.004 -0.0929  0.2776  0.8315
 1679TIP3    H226529   3.045   5.001  13.029 -1.2253 -0.7094 -1.2005
 1680TIP3   OH226530   6.550   2.259   3.593  0.0521  0.2921 -0.0230
 1680TIP3    H126531   6.523   2.302   3.512  0.1034  0.1736 -0.1038
 1680TIP3    H226532   6.565   2.330   3.655  0.2531  0.3936 -0.1916
 1681TIP3   OH226533   4.206   2.453   5.701 -0.2958  0.0337 -0.0592
 1681TIP3    H126534   4.296   2.458   5.735 -0.0435 -2.9240 -0.0411
 1681TIP3    H226535   4.158   2.403   5.767 -1.6827  0.5529 -0.6335
 1682TIP3   OH226536   0.273   5.686  10.881 -0.4473  0.0909 -0.7093
 1682TIP3    H126537   0.308   5.775  10.885  0.0969 -0.1517  0.2603
 1682TIP3    H226538   0.255   5.664  10.972 -1.9163 -0.2793 -1.0635
 1683TIP3   OH226539   1.720   3.842  15.672 -0.4807  0.0241  0.3790
 1683TIP3    H126540   1.735   3.843  15.577  1.0953 -0.0765  0.5985
 1683TIP3    H226541   1.738   3.752  15.699 -0.8655  0.0651  0.7804
 1684TIP3   OH226542   3.879   5.419  14.230  0.6763  0.0459 -0.1824
 1684TIP3    H126543   3.907   5.339  14.186 -0.3490 -0.4782  0.0852
 1684TIP3    H226544   3.851   5.477  14.159 -1.8870 -1.1510 -0.2647
 1685TIP3   OH226545   2.116   0.473  15.783  0.3575  0.1791  0.5432
 1685TIP3    H126546   2.208   0.448  15.783  0.4826  0.2181 -2.5678
 1685TIP3    H226547   2.111   0.548  15.842  2.3731  0.3376  0.5815
 1686TIP3   OH226548   0.144   1.595   3.826  0.5324 -0.0068  0.2641
 1686TIP3    H126549   0.116   1.537   3.897 -0.4033 -0.0133 -0.0966
 1686TIP3    H226550   0.081   1.580   3.756  1.8263 -0.4959 -0.8494
 1687TIP3   OH226551   6.517   6.773   1.051 -0.3574  0.0794 -0.2933
 1687TIP3    H126552   6.423   6.774   1.037 -0.3925  2.1715 -0.1542
 1687TIP3    H226553   6.550   6.847   1.001  1.1793 -0.4411 -0.1005
 1688TIP3   OH226554   2.999   3.188  16.106 -0.3560  1.0339  0.2173
 1688TIP3    H126555   2.932   3.153  16.047  0.1816  0.5847 -0.1445
 1688TIP3    H226556   2.981   3.282  16.110 -0.1895  1.1306 -0.9571
 1689TIP3   OH226557   0.911   2.772  13.874 -0.1363  0.3865  0.0425
 1689TIP3    H126558   0.981   2.731  13.926 -0.5797  1.5123  1.5913
 1689TIP3    H226559   0.830   2.742  13.914 -0.5855 -0.6178 -1.5231
 1690TIP3   OH226560   1.621   6.656  14.612 -0.0792 -1.1283  0.0041
 1690TIP3    H126561   1.666   6.702  14.541 -0.3762 -0.5721  0.1738
 1690TIP3    H226562   1.593   6.573  14.573  1.4979 -1.7012  0.0215
 1691TIP3   OH226563   3.535   5.534   5.450  0.2160 -0.0763  0.0040
 1691TIP3    H126564   3.591   5.535   5.373  1.2225  1.3483  0.7174
 1691TIP3    H226565   3.534   5.442   5.477 -0.2881 -0.6343 -1.7558
 1692TIP3   OH226566   6.177   2.313  15.668  0.3989  0.0440 -0.5960
 1692TIP3    H126567   6.227   2.303  15.749  0.4629  0.6408 -0.5591
 1692TIP3    H226568   6.125   2.233  15.663 -1.9591  1.2505  1.6706
 1693TIP3   OH226569   0.052   3.867  13.148 -0.4564 -0.5328 -0.2671
 1693TIP3    H126570   0.099   3.785  13.164 -2.4784 -2.0404 -1.6191
 1693TIP3    H226571  -0.038   3.849  13.174 -0.8301  1.5396  0.0876
 1694TIP3   OH226572   4.097   4.621   3.647 -0.5494 -0.2478 -0.4381
 1694TIP3    H126573   4.183   4.653   3.618 -0.8798 -0.2164 -1.4237
 1694TIP3    H226574   4.034   4.682   3.609 -1.0761 -0.9830 -0.7642
 1695TIP3   OH226575   3.699   5.299   6.383  0.2369  0.1769 -0.1518
 1695TIP3    H126576   3.743   5.243   6.447  1.0754 -2.0131 -2.4863
 1695TIP3    H226577   3.767   5.360   6.354 -0.0065  0.8346  0.6187
 1696TIP3   OH226578   5.236   1.473  13.585 -0.3131  0.3770  0.5050
 1696TIP3    H126579   5.188   1.391  13.588 -1.6948  1.1871  1.5717
 1696TIP3    H226580   5.268   1.486  13.675 -1.6155  1.8321  0.8041
 1697TIP3   OH226581   5.694   3.008  11.426  0.2955 -0.5471  0.2777
 1697TIP3    H126582   5.732   2.995  11.339 -1.5491 -2.4984 -0.3181
 1697TIP3    H226583   5.764   2.982  11.487  1.1547 -0.4644 -0.6589
 1698TIP3   OH226584   6.842   2.407  14.448 -0.4828 -0.6901  0.0253
 1698TIP3    H126585   6.855   2.455  14.530 -0.1548 -1.8862  0.6969
 1698TIP3    H226586   6.872   2.318  14.467 -0.0317 -0.8985 -1.5184
 1699TIP3   OH226587   5.246   0.674  15.143 -0.0378 -0.4921  0.1169
 1699TIP3    H126588   5.246   0.579  15.128  0.0386 -0.2824 -1.3774
 1699TIP3    H226589   5.238   0.712  15.056  2.3054  0.9163  0.4319
 1700TIP3   OH226590   4.624   4.932   5.006 -0.2800 -0.8648 -0.0012
 1700TIP3    H126591   4.716   4.940   5.032 -0.2752 -1.6143  0.2354
 1700TIP3    H226592   4.605   4.839   5.013 -1.2456 -0.6400  0.5707
 1701TIP3   OH226593   5.964   3.911  12.370  0.5419 -0.1947 -0.0810
 1701TIP3    H126594   5.878   3.892  12.406  0.6916  0.5559  0.7071
 1701TIP3    H226595   5.972   4.007  12.376  0.3459  0.0570 -2.6536
 1702TIP3   OH226596   2.421   1.778   1.852  0.4702  0.1036 -0.2218
 1702TIP3    H126597   2.409   1.683   1.858 -0.2777  0.2542  0.8225
 1702TIP3    H226598   2.435   1.794   1.759 -1.3148 -0.8246 -0.7023
 1703TIP3   OH226599   3.799   0.476   5.226  0.7045  0.7665  0.1421
 1703TIP3    H126600   3.750   0.415   5.281 -1.9153  1.6148 -1.0931
 1703TIP3    H226601   3.891   0.455   5.243 -0.0600 -2.3222  1.0340
 1704TIP3   OH226602   1.372   4.230   3.400 -0.1517 -0.3714 -0.1342
 1704TIP3    H126603   1.294   4.183   3.430 -0.8920  1.6076  1.2734
 1704TIP3    H226604   1.445   4.179   3.433 -0.8323 -1.8498 -0.8101
 1705TIP3   OH226605   6.054   3.521  13.056 -0.8644  0.0256 -0.0826
 1705TIP3    H126606   6.059   3.583  12.983 -0.3989  0.1261  0.0308
 1705TIP3    H226607   6.058   3.435  13.014 -0.0068  0.0841 -0.1487
 1706TIP3   OH226608   1.651   6.301   3.495  0.5686  0.3376 -0.0985
 1706TIP3    H126609   1.638   6.269   3.584  2.2193 -0.0154  0.0336
 1706TIP3    H226610   1.564   6.295   3.454 -0.2452  0.6544  1.5125
 1707TIP3   OH226611   6.711   3.215   1.207  0.3321  0.0277  0.2470
 1707TIP3    H126612   6.762   3.230   1.286  0.5171 -1.3682  0.4171
 1707TIP3    H226613   6.766   3.249   1.136 -0.0821  1.8182  0.7300
 1708TIP3   OH226614   2.303   3.358  11.873 -0.4422 -0.3528 -0.3210
 1708TIP3    H126615   2.287   3.444  11.912  0.5522 -0.4725  0.3717
 1708TIP3    H226616   2.398   3.354  11.859 -0.3059 -1.8024  0.7842
 1709TIP3   OH226617   3.078   0.537  14.329  0.0541  0.4304  0.3614
 1709TIP3    H126618   3.027   0.492  14.396  1.0317 -0.3269  0.6149
 1709TIP3    H226619   3.129   0.602  14.377  1.5298 -0.8031  0.5165
 1710TIP3   OH226620   5.445   1.141  14.081 -0.0252 -0.7527  0.2792
 1710TIP3    H126621   5.426   1.183  13.997  1.1003 -1.9076 -0.5886
 1710TIP3    H226622   5.379   1.074  14.090  1.7622 -2.9070 -1.3958
 1711TIP3   OH226623   2.776   3.473  11.989  0.4657 -0.4859  0.3995
 1711TIP3    H126624   2.813   3.454  11.903 -2.4365 -1.0561 -0.8456
 1711TIP3    H226625   2.767   3.388  12.031 -0.5370 -0.5120  0.1596
 1712TIP3   OH226626   0.690   1.991   0.895 -0.2162  0.0374 -0.3110
 1712TIP3    H126627   0.771   2.035   0.920 -0.3546 -0.0347  0.2632
 1712TIP3    H226628   0.664   2.034   0.813 -0.6816  1.4594  0.5475
 1713TIP3   OH226629   1.813   1.893  13.484 -0.2818 -0.2686 -0.1347
 1713TIP3    H126630   1.781   1.814  13.438 -1.3326 -0.4368  0.8419
 1713TIP3    H226631   1.763   1.895  13.565 -0.1084  1.3071 -0.0450
 1714TIP3   OH226632   6.609   2.191  14.405 -0.0697  0.0757 -0.5213
 1714TIP3    H126633   6.641   2.269  14.449  0.6180 -0.3183 -0.3014
 1714TIP3    H226634   6.646   2.118  14.455 -2.1240 -0.4334  0.3547
 1715TIP3   OH226635   2.708   0.936   1.290 -0.1281  0.2913  0.0234
 1715TIP3    H126636   2.742   0.944   1.379 -1.4097 -0.8006  0.6618
 1715TIP3    H226637   2.630   0.881   1.300 -0.3766  0.2709 -1.7614
 1716TIP3   OH226638   3.240   1.436   6.114  0.4246  0.2967 -0.4525
 1716TIP3    H126639   3.271   1.348   6.136 -0.5577 -0.2544 -1.2396
 1716TIP3    H226640   3.318   1.480   6.079  0.8751 -0.3108 -0.2404
 1717TIP3   OH226641   3.926   6.729  13.724  0.0354  0.2865  0.4582
 1717TIP3    H126642   3.927   6.683  13.640  0.1700  0.0600  0.5819
 1717TIP3    H226643   3.988   6.800  13.713  0.3933 -0.0160  0.5167
 1718TIP3   OH226644   3.840   5.474  10.867 -0.0062  0.3252 -0.5619
 1718TIP3    H126645   3.760   5.443  10.911  0.1072  1.1728  0.2686
 1718TIP3    H226646   3.848   5.565  10.893  1.2361  0.2586 -0.6480
 1719TIP3   OH226647   0.748   5.009   6.047 -0.5163  0.1067  0.3156
 1719TIP3    H126648   0.813   5.073   6.018 -1.1932 -0.2927 -2.2721
 1719TIP3    H226649   0.667   5.059   6.055 -0.5489  0.0137  0.5786
 1720TIP3   OH226650   4.207   3.726  15.550 -0.1320 -0.6930  0.0262
 1720TIP3    H126651   4.172   3.637  15.541 -0.5506 -0.4622 -0.6760
 1720TIP3    H226652   4.302   3.715  15.544 -0.1086 -1.2186  1.0665
 1721TIP3   OH226653   3.269   3.199   1.169  0.1308 -0.8727 -0.3398
 1721TIP3    H126654   3.326   3.267   1.132 -0.2974 -0.3379 -0.0322
 1721TIP3    H226655   3.330   3.133   1.204  0.5515 -0.5554 -0.4618
 1722TIP3   OH226656   6.166   1.078  15.683  0.3159  0.0727 -0.4857
 1722TIP3    H126657   6.205   0.998  15.717  1.2940  0.3735 -0.8755
 1722TIP3    H226658   6.076   1.076  15.716  0.5899 -0.7308  0.2643
 1723TIP3   OH226659   2.518   5.801   0.923 -0.1351 -0.4870  0.6453
 1723TIP3    H126660   2.567   5.840   0.851 -0.7454 -0.2260  0.3620
 1723TIP3    H226661   2.438   5.768   0.883 -1.8670  2.2214  1.5723
 1724TIP3   OH226662   4.992   0.741  16.860  0.2243 -0.0511  0.0942
 1724TIP3    H126663   4.991   0.747  16.956 -0.3743 -0.6188  0.1307
 1724TIP3    H226664   5.085   0.744  16.837  0.5534 -2.3023  0.8741
 1725TIP3   OH226665   3.996   0.745   2.537  0.8876  0.0150 -0.3206
 1725TIP3    H126666   4.038   0.666   2.570  0.5614 -0.7642 -1.7002
 1725TIP3    H226667   4.065   0.811   2.536  1.8450 -0.9642 -1.5804
 1726TIP3   OH226668   0.643   2.304   2.355 -0.1147  0.3439 -0.1466
 1726TIP3    H126669   0.645   2.398   2.371  1.5222  0.0595  1.8255
 1726TIP3    H226670   0.662   2.295   2.262  1.8303  1.9543  0.0195
 1727TIP3   OH226671   2.921   1.112   4.243 -0.4774  0.2181 -0.0462
 1727TIP3    H126672   2.928   1.195   4.196  0.4687  0.3875  0.3682
 1727TIP3    H226673   3.001   1.065   4.221 -1.1052 -0.6880 -0.4490
 1728TIP3   OH226674   5.239   5.625   0.442  0.1613  0.4625  0.0245
 1728TIP3    H126675   5.294   5.663   0.374  0.4147  1.7693  0.9161
 1728TIP3    H226676   5.179   5.695   0.466 -0.9656 -0.4880  0.0627
 1729TIP3   OH226677   3.989   4.043  11.419 -0.1311 -0.0024  0.1686
 1729TIP3    H126678   4.076   4.081  11.413 -0.0519 -0.1344  0.4400
 1729TIP3    H226679   4.005   3.950  11.438 -0.3222 -0.1721 -0.4929
 1730TIP3   OH226680   0.419   1.711  11.022 -0.7680 -0.4052  0.6416
 1730TIP3    H126681   0.419   1.778  11.091  0.6522  2.5749 -1.9804
 1730TIP3    H226682   0.504   1.667  11.032 -0.7616 -0.3049  1.0562
 1731TIP3   OH226683   1.834   5.427   3.265 -0.4935 -0.1732  0.2059
 1731TIP3    H126684   1.844   5.493   3.333 -0.2594  0.3064 -0.2842
 1731TIP3    H226685   1.876   5.349   3.301 -1.2468 -0.2194  1.0061
 1732TIP3   OH226686   6.344   4.453   3.736  0.5141 -0.1485  0.1207
 1732TIP3    H126687   6.271   4.419   3.789 -1.5334  1.7525 -1.2776
 1732TIP3    H226688   6.414   4.467   3.800 -1.1947  0.2806  2.0447
 1733TIP3   OH226689   2.586   6.124   4.490 -0.3643 -0.0684  0.2732
 1733TIP3    H126690   2.627   6.083   4.566  3.1301 -0.6250 -1.6853
 1733TIP3    H226691   2.619   6.214   4.489 -0.6222  0.0286 -0.4064
 1734TIP3   OH226692   2.185   4.769  14.543 -0.3713 -0.7478  0.1254
 1734TIP3    H126693   2.159   4.788  14.633 -1.7057 -0.4999 -0.2911
 1734TIP3    H226694   2.252   4.834  14.523  0.3315 -1.1512  1.1112
 1735TIP3   OH226695   6.735   2.964   0.169  0.4251  0.2554  0.4618
 1735TIP3    H126696   6.783   3.045   0.187 -0.5607  0.5565  1.8930
 1735TIP3    H226697   6.785   2.896   0.214  0.9610  0.1229 -0.3035
 1736TIP3   OH226698   3.186   4.933   4.267  0.1585  0.0847  0.1845
 1736TIP3    H126699   3.130   4.863   4.301  1.0971 -0.3872  0.8041
 1736TIP3    H226700   3.136   4.970   4.194 -0.1103 -1.6121 -0.5317
 1737TIP3   OH226701   3.667   2.216  13.586  0.4840  0.0884 -0.7987
 1737TIP3    H126702   3.750   2.220  13.632 -0.6693 -1.3429  1.6534
 1737TIP3    H226703   3.690   2.205  13.493  3.0330 -1.3102 -0.0859
 1738TIP3   OH226704   1.796   1.753  12.031  0.2105 -0.7174  0.1817
 1738TIP3    H126705   1.736   1.779  12.101  1.3907 -2.4676  1.9483
 1738TIP3    H226706   1.830   1.668  12.059  1.9258 -0.7463 -1.7667
 1739TIP3   OH226707   1.465   5.775   1.988 -0.1660 -0.1939  0.0542
 1739TIP3    H126708   1.423   5.756   2.072  1.2171  0.5936  0.9586
 1739TIP3    H226709   1.458   5.693   1.939 -0.9465 -0.6853  0.9427
 1740TIP3   OH226710   3.907   5.715  16.207  0.4415 -0.0452 -0.2030
 1740TIP3    H126711   3.836   5.753  16.155 -0.1950 -0.9322 -0.0226
 1740TIP3    H226712   3.905   5.622  16.185  0.5513 -0.3385  0.9385
 1741TIP3   OH226713   1.133   1.376   0.887  0.0042 -0.1266  0.0572
 1741TIP3    H126714   1.074   1.387   0.961  1.2896 -0.8970  1.2364
 1741TIP3    H226715   1.147   1.465   0.855 -0.4219  0.2415  0.8610
 1742TIP3   OH226716   1.048   2.434  10.913  0.2283 -0.0878 -0.1529
 1742TIP3    H126717   1.091   2.350  10.894  0.8121  0.5648 -1.9816
 1742TIP3    H226718   1.117   2.489  10.950 -0.7264 -1.1031  3.5094
 1743TIP3   OH226719   2.281   1.076  12.910  0.2010 -0.4219  0.7099
 1743TIP3    H126720   2.296   0.982  12.896  0.4678 -0.1059 -1.4701
 1743TIP3    H226721   2.330   1.096  12.991  0.5924 -2.0374  0.9091
 1744TIP3   OH226722   2.662   0.837   0.394  0.7212  0.7709  0.0806
 1744TIP3    H126723   2.683   0.745   0.413 -1.0328  0.0360 -1.2945
 1744TIP3    H226724   2.628   0.871   0.477  0.3833 -0.1275  0.3236
 1745TIP3   OH226725   4.778   6.850   2.316  0.1585 -0.0641  0.4866
 1745TIP3    H126726   4.690   6.882   2.335  0.3348 -0.2546  1.6773
 1745TIP3    H226727   4.792   6.874   2.225 -0.8692  0.5631  0.4710
 1746TIP3   OH226728   0.737   4.213  16.683  0.3478  0.1553 -0.1668
 1746TIP3    H126729   0.762   4.154  16.612 -1.0862 -1.0357  0.2621
 1746TIP3    H226730   0.655   4.252  16.653 -0.2589 -0.3393  0.7810
 1747TIP3   OH226731   6.213   2.531  12.059  0.2154  0.6970  0.2231
 1747TIP3    H126732   6.130   2.578  12.067 -1.5636 -2.0619 -0.7709
 1747TIP3    H226733   6.217   2.505  11.967  1.7614  0.0360  0.4593
 1748TIP3   OH226734   3.983   6.427   2.683  0.5007  0.4728 -0.3511
 1748TIP3    H126735   3.948   6.398   2.599  1.4831  0.7440 -0.8737
 1748TIP3    H226736   3.936   6.509   2.702  1.0568  0.9896 -1.1847
 1749TIP3   OH226737   0.368   4.939  12.320  0.4271 -0.2713 -0.5242
 1749TIP3    H126738   0.411   4.880  12.381  0.5234  0.2272 -0.1001
 1749TIP3    H226739   0.333   4.882  12.252  2.2846 -0.6484 -1.2243
 1750TIP3   OH226740   3.678   4.478   6.014 -0.2933  0.8692  0.0362
 1750TIP3    H126741   3.594   4.478   5.968 -1.2371  1.2550  1.6634
 1750TIP3    H226742   3.683   4.565   6.053 -0.9580 -0.3248  3.0385
 1751TIP3   OH226743   1.576   5.961   0.569 -0.0696 -1.0906  0.4641
 1751TIP3    H126744   1.653   5.910   0.541  0.1078 -0.2154 -0.7199
 1751TIP3    H226745   1.513   5.949   0.498 -0.2615 -0.1852  0.4722
 1752TIP3   OH226746   1.138   1.466  15.159  0.6983 -0.0838  0.8248
 1752TIP3    H126747   1.075   1.395  15.147  1.9555 -1.2264  0.8367
 1752TIP3    H226748   1.116   1.530  15.091 -1.0183 -0.0305  1.3907
 1753TIP3   OH226749   3.182   2.914   3.444  0.1537  0.3237 -0.5454
 1753TIP3    H126750   3.261   2.931   3.392  0.3333 -2.0226 -1.1710
 1753TIP3    H226751   3.216   2.881   3.528 -0.1745  1.4031  0.0317
 1754TIP3   OH226752   0.571   4.250   0.437 -0.0929 -0.1965 -0.2831
 1754TIP3    H126753   0.485   4.274   0.401 -0.9443 -0.9677  1.1595
 1754TIP3    H226754   0.594   4.323   0.495  1.5421  1.3177 -2.6663
 1755TIP3   OH226755   5.999   5.268  16.294 -0.5035 -0.6253  0.1006
 1755TIP3    H126756   6.086   5.309  16.295  0.3639 -2.1359 -2.7544
 1755TIP3    H226757   6.012   5.185  16.339 -0.6414 -0.5758  0.2328
 1756TIP3   OH226758   6.289   1.654   3.630  0.5744  0.7259 -0.3345
 1756TIP3    H126759   6.351   1.711   3.585 -0.5436  0.3147 -2.5261
 1756TIP3    H226760   6.278   1.578   3.572  0.5466 -0.8289  1.5794
 1757TIP3   OH226761   0.361   5.851   2.354 -0.1770  0.5946 -0.0993
 1757TIP3    H126762   0.403   5.782   2.405  0.7561  2.0608  1.2018
 1757TIP3    H226763   0.298   5.891   2.415 -2.0347 -0.2083 -1.3852
 1758TIP3   OH226764   1.354   4.141  15.704  0.3022  0.2584 -0.5410
 1758TIP3    H126765   1.413   4.176  15.771 -0.3061  1.4950 -0.6250
 1758TIP3    H226766   1.267   4.169  15.732 -0.3525 -2.0131 -0.1217
 1759TIP3   OH226767   1.938   3.356  13.823  0.2827 -0.0106  0.0323
 1759TIP3    H126768   1.979   3.296  13.886 -0.0267  0.4801  0.7266
 1759TIP3    H226769   1.973   3.331  13.738  1.4650 -0.0703  0.5220
 1760TIP3   OH226770   3.519   6.303  12.608  0.0199 -0.2735  1.1508
 1760TIP3    H126771   3.502   6.331  12.697  1.8021  1.2773  1.0676
 1760TIP3    H226772   3.614   6.309  12.598 -0.2857  2.8239 -1.7940
 1761TIP3   OH226773   6.377   1.218   1.051  0.1150 -0.4443  0.2712
 1761TIP3    H126774   6.439   1.208   1.123 -2.1977 -1.2794  2.2519
 1761TIP3    H226775   6.323   1.139   1.054 -0.3856 -0.2914 -2.1272
 1762TIP3   OH226776   6.275   1.916   1.219  0.2290 -0.3312 -0.8199
 1762TIP3    H126777   6.314   1.831   1.199 -0.2740 -0.7831  0.0674
 1762TIP3    H226778   6.298   1.932   1.311 -0.8827 -0.1802 -0.5569
 1763TIP3   OH226779   4.474   4.117  16.530 -0.3838  0.1800  0.7215
 1763TIP3    H126780   4.392   4.147  16.569 -1.0614  0.2234 -0.6777
 1763TIP3    H226781   4.526   4.197  16.519 -0.4319  0.2470  0.9906
 1764TIP3   OH226782   3.241   4.815   4.672 -0.7452  0.2849 -0.3397
 1764TIP3    H126783   3.227   4.724   4.698  0.5662  0.5051  1.2844
 1764TIP3    H226784   3.304   4.811   4.600  0.9367 -0.0408  1.0853
 1765TIP3   OH226785   3.652   0.161  15.966 -0.0146  0.2582 -0.6970
 1765TIP3    H126786   3.599   0.221  15.914 -1.4283 -0.1190  0.2627
 1765TIP3    H226787   3.650   0.079  15.917 -0.9841  0.0250 -0.2857
 1766TIP3   OH226788   2.800   1.978  12.198 -0.5048 -0.1078 -0.3821
 1766TIP3    H126789   2.719   1.939  12.231 -0.9467  0.0525 -1.2457
 1766TIP3    H226790   2.830   1.918  12.131 -0.0718 -0.0058 -0.2823
 1767TIP3   OH226791   4.914   3.788  14.504  0.2850  0.2443  0.4805
 1767TIP3    H126792   4.841   3.837  14.542  0.4788  1.1905 -0.2905
 1767TIP3    H226793   4.879   3.752  14.423  1.3973  3.3927 -1.6267
 1768TIP3   OH226794   2.814   2.807  13.703  0.4623  0.1247  0.3624
 1768TIP3    H126795   2.830   2.839  13.614 -0.0785  0.7228  0.4743
 1768TIP3    H226796   2.874   2.733  13.713  0.0458 -0.3716 -0.7391
 1769TIP3   OH226797   2.734   4.704  12.728 -0.0084 -0.4444  0.5557
 1769TIP3    H126798   2.641   4.704  12.707  0.6571  1.3127 -3.3667
 1769TIP3    H226799   2.758   4.611  12.729 -1.8926 -1.0059  2.9563
 1770TIP3   OH226800   0.894   1.605   2.403 -0.0952  0.1028 -0.2895
 1770TIP3    H126801   0.820   1.622   2.462 -0.1922  0.8545 -0.6091
 1770TIP3    H226802   0.927   1.519   2.429 -0.8832 -0.0988  0.0681
 1771TIP3   OH226803   2.739   5.829  11.587  0.6090  0.1480  0.6240
 1771TIP3    H126804   2.817   5.854  11.537  0.6127 -0.7783  0.1422
 1771TIP3    H226805   2.714   5.744  11.551 -1.9450  1.4089 -0.7709
 1772TIP3   OH226806   3.156   0.187  14.145  0.2316  0.0258 -0.3230
 1772TIP3    H126807   3.221   0.172  14.212 -0.5596  0.5816  0.5978
 1772TIP3    H226808   3.102   0.107  14.144  2.9168 -2.0355 -3.5476
 1773TIP3   OH226809   5.021   1.517  15.184 -0.2633  0.3860 -0.3269
 1773TIP3    H126810   4.939   1.495  15.138 -0.0973  0.3480 -0.6079
 1773TIP3    H226811   5.000   1.596  15.233 -0.3753  0.5696 -0.6676
 1774TIP3   OH226812   1.894   0.398   1.005  0.5424  0.1986  0.0764
 1774TIP3    H126813   1.908   0.382   0.911  0.7696  3.3167 -0.5051
 1774TIP3    H226814   1.976   0.369   1.046  1.6546  1.5480 -1.0941
 1775TIP3   OH226815   1.216   3.752  11.205 -0.2513  0.7729  0.0368
 1775TIP3    H126816   1.156   3.816  11.165  0.0381  1.6838  1.0195
 1775TIP3    H226817   1.277   3.729  11.135 -1.8020 -0.2781 -1.0315
 1776TIP3   OH226818   5.641   0.439   5.461  0.0468  0.2173  0.5011
 1776TIP3    H126819   5.576   0.438   5.532 -0.5695  1.4569 -0.0020
 1776TIP3    H226820   5.624   0.522   5.416  0.6356 -0.4135 -0.9070
 1777TIP3   OH226821   1.298   6.127   1.847 -0.3766  0.3154  0.2253
 1777TIP3    H126822   1.265   6.191   1.910  0.3160  0.9592 -0.0467
 1777TIP3    H226823   1.388   6.111   1.874 -0.8936 -1.4803  1.0138
 1778TIP3   OH226824   3.779   1.612  14.502  0.5867  0.7482  0.0282
 1778TIP3    H126825   3.738   1.680  14.556 -2.8443  0.1669 -1.5672
 1778TIP3    H226826   3.731   1.532  14.525  1.0696 -0.1031 -1.7518
 1779TIP3   OH226827   5.354   4.215  11.697  0.1589  0.1655  0.2717
 1779TIP3    H126828   5.313   4.210  11.611 -1.3171  0.3437  0.9331
 1779TIP3    H226829   5.431   4.158  11.690 -0.7815 -1.0585 -0.7085
 1780TIP3   OH226830   1.778   5.746   0.587 -0.5596 -0.6639  0.8711
 1780TIP3    H126831   1.817   5.725   0.672 -0.6657 -0.1939  1.0408
 1780TIP3    H226832   1.851   5.778   0.535 -0.7499  0.4371  1.2643
 1781TIP3   OH226833   0.785   5.724  15.967  0.1850  0.3967  0.4096
 1781TIP3    H126834   0.784   5.648  16.025  2.5603  1.3268  1.8503
 1781TIP3    H226835   0.702   5.720  15.920 -0.7391 -1.8266  2.0376
 1782TIP3   OH226836   3.183   5.793  15.198 -0.0386  0.0771 -0.0832
 1782TIP3    H126837   3.232   5.731  15.145 -1.0447 -0.7163 -0.1147
 1782TIP3    H226838   3.151   5.741  15.272 -0.4277  0.6824  0.1826
 1783TIP3   OH226839   2.506   0.059  16.246 -1.2440  0.5500 -0.3011
 1783TIP3    H126840   2.554  -0.023  16.256 -2.5528 -0.1082  1.0106
 1783TIP3    H226841   2.564   0.115  16.194 -0.7252 -1.5015 -2.0659
 1784TIP3   OH226842   3.147   2.753  15.239 -0.1992  0.2075  0.2662
 1784TIP3    H126843   3.058   2.789  15.243 -0.2036  0.2059  0.1808
 1784TIP3    H226844   3.171   2.760  15.147 -0.2736 -0.1903  0.2173
 1785TIP3   OH226845   2.466   4.426   5.278  0.2011  0.0173  0.8256
 1785TIP3    H126846   2.411   4.372   5.333  0.9290 -2.0190 -0.3490
 1785TIP3    H226847   2.408   4.458   5.209  0.3183 -1.5863 -0.0413
 1786TIP3   OH226848   6.828   4.166  13.117 -0.3670  0.4867 -0.0971
 1786TIP3    H126849   6.817   4.080  13.157 -1.1307 -0.2225 -1.7526
 1786TIP3    H226850   6.845   4.225  13.191  0.2611 -1.0759  1.0636
 1787TIP3   OH226851   4.500   5.726  16.465  0.3350 -0.0427  0.5454
 1787TIP3    H126852   4.463   5.677  16.539  0.8994  1.1270  1.6269
 1787TIP3    H226853   4.519   5.812  16.500 -0.9314  1.1116 -1.4129
 1788TIP3   OH226854   0.107   4.137  14.958  0.7558 -0.1701  0.0458
 1788TIP3    H126855   0.193   4.117  14.993  1.4085 -1.1142 -1.9715
 1788TIP3    H226856   0.122   4.206  14.893  0.4003 -1.8035 -1.8823
 1789TIP3   OH226857   1.829   1.613   3.080  0.2511 -0.1841 -0.5609
 1789TIP3    H126858   1.906   1.585   3.129  0.2722 -0.0207 -0.4979
 1789TIP3    H226859   1.812   1.702   3.112 -1.0591 -0.8716  0.7455
 1790TIP3   OH226860   4.258   4.268  11.573  0.1446  0.8836 -0.3308
 1790TIP3    H126861   4.165   4.288  11.582  0.4190  1.8083  0.7370
 1790TIP3    H226862   4.298   4.353  11.553  0.7401  0.4628 -0.9525
 1791TIP3   OH226863   5.310   0.522   3.234  0.3579 -0.0509 -0.0548
 1791TIP3    H126864   5.307   0.607   3.277 -3.4630  1.0446 -2.0583
 1791TIP3    H226865   5.339   0.542   3.145  2.7671 -1.4569  0.3359
 1792TIP3   OH226866   2.405   3.566  15.922 -0.3495  1.0309 -0.2996
 1792TIP3    H126867   2.386   3.654  15.955  1.9893  1.6541 -0.4618
 1792TIP3    H226868   2.444   3.581  15.836 -1.3533 -0.2971 -1.0265
 1793TIP3   OH226869   4.223   2.418  15.500 -0.0460  0.1844 -0.1980
 1793TIP3    H126870   4.281   2.450  15.569 -0.5518  2.1262 -0.6122
 1793TIP3    H226871   4.158   2.364  15.546 -0.1716  1.1661  0.8206
 1794TIP3   OH226872   2.266   0.610   0.301  0.1970  1.0406 -0.3083
 1794TIP3    H126873   2.214   0.561   0.366  0.2838  0.2433 -0.8271
 1794TIP3    H226874   2.357   0.590   0.323  0.2198  0.5519 -0.8367
 1795TIP3   OH226875   2.863   0.851  15.270  0.2267  0.3737 -0.1929
 1795TIP3    H126876   2.874   0.798  15.348  1.0415  0.5908 -0.1415
 1795TIP3    H226877   2.845   0.939  15.303 -2.8253 -0.1183 -0.2742
 1796TIP3   OH226878   5.587   2.209  10.820 -0.2269  0.0465  0.4019
 1796TIP3    H126879   5.495   2.186  10.805  0.3975 -0.7400 -3.4006
 1796TIP3    H226880   5.634   2.127  10.806  1.1141  0.5050  1.9692
 1797TIP3   OH226881   6.742   1.463   0.489 -0.0040  0.4573 -1.3725
 1797TIP3    H126882   6.825   1.494   0.526 -0.0393  1.6736 -2.2355
 1797TIP3    H226883   6.714   1.392   0.547  1.2611  0.5361 -0.6383
 1798TIP3   OH226884   0.791   2.485  15.997 -0.0696  0.0209  0.3001
 1798TIP3    H126885   0.808   2.538  16.075  0.4405 -0.4591  0.5206
 1798TIP3    H226886   0.773   2.398  16.031  2.3736 -0.7505 -0.2110
 1799TIP3   OH226887   5.739   1.052  11.178 -0.0008 -0.5778  0.6285
 1799TIP3    H126888   5.691   1.133  11.195  0.4266  0.0580 -0.9786
 1799TIP3    H226889   5.761   1.056  11.084  1.0386 -1.9988  0.7715
 1800TIP3   OH226890   3.220   4.538   4.350 -0.1890  0.4353  0.6248
 1800TIP3    H126891   3.298   4.545   4.405 -0.2947  0.4386  0.7767
 1800TIP3    H226892   3.160   4.605   4.384 -0.7423 -0.3825  1.3275
 1801TIP3   OH226893   6.755   4.240  11.640 -0.7450  0.2108  0.2252
 1801TIP3    H126894   6.693   4.312  11.652 -1.4547 -0.1440 -1.1344
 1801TIP3    H226895   6.740   4.210  11.550  0.4769 -0.7587  0.3187
 1802TIP3   OH226896   6.401   1.556  14.999 -0.1398 -0.2872 -1.1341
 1802TIP3    H126897   6.464   1.531  14.932 -0.4285 -0.4156 -1.3566
 1802TIP3    H226898   6.334   1.488  14.997  0.5873 -1.0934  0.2936
 1803TIP3   OH226899   6.262   4.578  14.609  0.3471 -0.5149  0.1904
 1803TIP3    H126900   6.190   4.576  14.673 -0.3960 -0.3304 -0.6282
 1803TIP3    H226901   6.219   4.571  14.524  1.3959 -1.7896 -0.2664
 1804TIP3   OH226902   3.422   6.520   5.828  0.3368  0.4169  0.0347
 1804TIP3    H126903   3.370   6.597   5.804 -0.8026 -0.5548 -0.7201
 1804TIP3    H226904   3.365   6.470   5.886  0.5790 -0.4787 -0.4877
 1805TIP3   OH226905   2.302   4.920   1.838 -0.1636  0.1680 -0.0907
 1805TIP3    H126906   2.386   4.965   1.833 -0.4755  1.0441  1.5681
 1805TIP3    H226907   2.303   4.856   1.767  2.4183 -0.7425  0.6799
 1806TIP3   OH226908   2.905   1.761  11.156 -0.2446 -0.2372  0.0098
 1806TIP3    H126909   2.905   1.692  11.089  1.1799  1.2304 -1.5940
 1806TIP3    H226910   2.824   1.810  11.139 -0.5438 -0.6413  0.2383
 1807TIP3   OH226911   2.658   2.232  14.328 -0.4442  0.3251  0.1215
 1807TIP3    H126912   2.667   2.198  14.239 -1.3043  1.1469 -0.3018
 1807TIP3    H226913   2.692   2.162  14.384 -0.8640 -0.6515 -0.7889
 1808TIP3   OH226914   6.262   5.483   2.988  0.4688 -0.0942 -0.2551
 1808TIP3    H126915   6.321   5.449   2.922  1.2129  0.6813 -0.0008
 1808TIP3    H226916   6.231   5.566   2.953  0.9417  0.3698  0.4034
 1809TIP3   OH226917   2.399   4.969  10.564  0.1284 -0.1862 -0.5735
 1809TIP3    H126918   2.458   4.986  10.638 -2.3835  1.2565  1.2743
 1809TIP3    H226919   2.390   5.053  10.520 -1.4795 -0.0478 -0.0408
 1810TIP3   OH226920   6.147   2.259  15.958  0.5937 -0.0654  0.4805
 1810TIP3    H126921   6.218   2.322  15.969  1.2118  0.1005 -3.0285
 1810TIP3    H226922   6.169   2.187  16.016  1.6443  1.5233  2.1538
 1811TIP3   OH226923   4.164   6.222   0.031  0.3612 -1.0584  0.0857
 1811TIP3    H126924   4.070   6.237   0.027  0.7459  1.6872 -1.6536
 1811TIP3    H226925   4.190   6.262   0.114 -0.1057 -3.1862  1.3337
 1812TIP3   OH226926   6.621   6.572   1.237  0.1666  0.2380  0.3030
 1812TIP3    H126927   6.590   6.641   1.178  0.1728  0.6127  0.7342
 1812TIP3    H226928   6.587   6.596   1.323  0.3409 -0.1864  0.4935
 1813TIP3   OH226929   2.982   5.203  15.858  0.4640 -0.0767  0.7393
 1813TIP3    H126930   2.936   5.148  15.921 -2.1623 -2.0078 -2.5180
 1813TIP3    H226931   3.038   5.141  15.810  0.1761  0.7462 -0.6937
 1814TIP3   OH226932   1.439   5.742   4.243 -0.0910  0.0307 -0.1287
 1814TIP3    H126933   1.383   5.809   4.282  0.7979  0.3483  0.6222
 1814TIP3    H226934   1.384   5.703   4.175 -0.7680  1.2297 -0.3052
 1815TIP3   OH226935   6.165   3.288   2.337  0.1672 -0.4147  0.2205
 1815TIP3    H126936   6.107   3.327   2.272  0.6159  1.7686  1.0445
 1815TIP3    H226937   6.245   3.340   2.331  1.6190 -2.5829 -0.0444
 1816TIP3   OH226938   2.113   1.160  11.594  0.6213 -0.2838  0.1115
 1816TIP3    H126939   2.080   1.070  11.597 -1.4720  0.3950 -0.6747
 1816TIP3    H226940   2.042   1.212  11.632 -0.7777  1.6145 -4.4301
 1817TIP3   OH226941   2.250   3.038  15.032  0.3277 -0.4190 -0.8096
 1817TIP3    H126942   2.221   3.129  15.046  0.7698 -0.4597  0.4875
 1817TIP3    H226943   2.306   3.019  15.107  0.4002 -1.7078 -1.1726
 1818TIP3   OH226944   2.739   5.506  16.219 -0.4702  0.5235 -0.5181
 1818TIP3    H126945   2.655   5.478  16.256 -0.4518 -0.5824 -1.2935
 1818TIP3    H226946   2.780   5.426  16.187  0.6680  1.1187 -0.6023
 1819TIP3   OH226947   2.667   5.196   6.313 -0.6235  0.1834  0.2017
 1819TIP3    H126948   2.708   5.130   6.368 -1.7536  0.5919  1.5794
 1819TIP3    H226949   2.731   5.267   6.309 -0.2832 -0.1013  0.4689
 1820TIP3   OH226950   3.248   0.341  16.211 -0.6436  0.0053  0.0044
 1820TIP3    H126951   3.161   0.369  16.239  0.4586  3.4863  0.4412
 1820TIP3    H226952   3.304   0.355  16.287  0.4443 -1.6977 -0.4152
 1821TIP3   OH226953   6.242   5.778  11.391 -0.3502 -0.1839 -0.2216
 1821TIP3    H126954   6.270   5.688  11.374 -0.6970 -0.2456 -0.4539
 1821TIP3    H226955   6.229   5.816  11.305 -0.5609 -0.0194 -0.1170
 1822TIP3   OH226956   3.884   5.646  15.106  0.0354 -0.3607  0.2099
 1822TIP3    H126957   3.964   5.612  15.067  0.9230  0.8301  0.9153
 1822TIP3    H226958   3.815   5.590  15.072  0.8481  0.0574 -2.3707
 1823TIP3   OH226959   5.388   0.670  14.883 -0.3370  0.4079  0.0854
 1823TIP3    H126960   5.441   0.749  14.896 -0.4494  0.2358  1.8457
 1823TIP3    H226961   5.374   0.666  14.788  1.4917  1.2871 -0.2588
 1824TIP3   OH226962   2.351   6.820   0.969 -0.2504  0.1751 -0.0356
 1824TIP3    H126963   2.297   6.899   0.967 -1.1632 -0.4581 -1.0872
 1824TIP3    H226964   2.413   6.832   0.897  0.4501  0.4952  0.6076
 1825TIP3   OH226965   5.281   4.053  16.675 -0.3063 -0.2535 -0.5741
 1825TIP3    H126966   5.207   4.080  16.621 -0.5998  0.2882  0.0833
 1825TIP3    H226967   5.257   4.078  16.764  0.5982 -0.2078 -0.3269
 1826TIP3   OH226968   5.766   1.044  16.466 -0.3066  0.1836  0.1983
 1826TIP3    H126969   5.844   1.018  16.516  0.2699  0.3540 -0.6103
 1826TIP3    H226970   5.738   0.964  16.423 -1.2504 -0.1452  1.3533
 1827TIP3   OH226971   1.626   5.482  14.970  0.4938  0.0094 -0.5378
 1827TIP3    H126972   1.591   5.394  14.985  0.2827 -0.0813 -1.4656
 1827TIP3    H226973   1.663   5.478  14.882 -0.5476  1.1600 -1.0580
 1828TIP3   OH226974   5.356   3.796   2.950  0.1523  0.0386 -0.1297
 1828TIP3    H126975   5.361   3.891   2.935 -2.1050  0.3335  0.6113
 1828TIP3    H226976   5.368   3.786   3.044 -0.8812 -0.2873 -0.0292
 1829TIP3   OH226977   2.945   0.145  10.779  0.0971 -0.3877  0.5484
 1829TIP3    H126978   2.943   0.052  10.759 -0.2127 -0.2765  0.0510
 1829TIP3    H226979   3.018   0.155  10.841  0.5381 -0.8599  0.1097
 1830TIP3   OH226980   3.537   2.304   4.705 -0.2947 -0.4557 -0.1997
 1830TIP3    H126981   3.493   2.303   4.620  0.3854 -1.2729 -0.5584
 1830TIP3    H226982   3.630   2.293   4.684 -0.2510 -2.0287  0.7125
 1831TIP3   OH226983   0.760   3.548  11.964  0.2061  0.3229  0.0895
 1831TIP3    H126984   0.743   3.525  11.873  3.3803 -1.0263 -0.2699
 1831TIP3    H226985   0.794   3.638  11.961  0.4144  0.2378 -0.0483
 1832TIP3   OH226986   2.686   1.965  11.816 -0.1979 -0.4105 -1.1981
 1832TIP3    H126987   2.729   1.897  11.867 -0.5228  0.0047 -0.3489
 1832TIP3    H226988   2.746   2.040  11.820 -1.7970  0.8707  1.7056
 1833TIP3   OH226989   3.652   2.063   5.612  0.2849  0.2441  0.4151
 1833TIP3    H126990   3.673   2.109   5.693  1.2864 -1.8602  1.4327
 1833TIP3    H226991   3.722   2.085   5.552  1.4206 -0.8133  1.2963
 1834TIP3   OH226992   2.144   0.880  12.060 -0.1952 -0.2796 -0.1691
 1834TIP3    H126993   2.231   0.841  12.054  0.3065  0.5965  1.1351
 1834TIP3    H226994   2.156   0.972  12.039 -1.3873 -0.6769 -3.2413
 1835TIP3   OH226995   4.002   2.374   4.969 -0.3285 -0.2696 -0.0979
 1835TIP3    H126996   4.012   2.312   5.042 -3.2936 -1.5237 -0.5832
 1835TIP3    H226997   4.074   2.354   4.910  1.2208 -0.3100  1.6958
 1836TIP3   OH226998   5.183   0.196   3.967  0.3003  0.7034 -0.4325
 1836TIP3    H126999   5.178   0.186   3.872  0.4146  1.6542 -0.5534
 1836TIP3    H227000   5.274   0.177   3.989  0.2528  0.3952 -0.5005
 1837TIP3   OH227001   4.385   3.683   1.566  0.5766 -0.4502 -0.0295
 1837TIP3    H127002   4.423   3.670   1.479  0.8994 -2.4297  0.3597
 1837TIP3    H227003   4.457   3.666   1.626  0.5753  1.7175  0.6513
 1838TIP3   OH227004   5.723   3.095  15.354  0.2544  0.2601 -0.2096
 1838TIP3    H127005   5.714   3.047  15.436 -0.3359 -0.9235 -0.9477
 1838TIP3    H227006   5.691   3.183  15.375  0.0250 -0.0486  0.7972
 1839TIP3   OH227007   0.297   2.440   3.680 -0.7431 -1.0365 -0.2222
 1839TIP3    H127008   0.202   2.434   3.669 -0.9859  2.6499 -1.3057
 1839TIP3    H227009   0.310   2.474   3.769 -0.4610 -1.0624 -0.2512
 1840TIP3   OH227010   5.023   1.860  11.796 -0.0712 -0.7672  0.2018
 1840TIP3    H127011   4.939   1.892  11.763  0.9626 -0.5044 -2.3979
 1840TIP3    H227012   5.002   1.822  11.882 -2.3372  1.6663  0.8512
 1841TIP3   OH227013   4.933   3.196  15.583 -0.1634 -0.4268 -0.3084
 1841TIP3    H127014   5.003   3.192  15.518  0.6426  1.0900  0.4072
 1841TIP3    H227015   4.859   3.154  15.541  0.8917 -1.2172 -1.4648
 1842TIP3   OH227016   2.397   5.454  14.963 -0.5905 -0.2291 -0.4402
 1842TIP3    H127017   2.437   5.461  15.049 -0.4298 -3.1433 -0.1947
 1842TIP3    H227018   2.467   5.477  14.902 -0.6243  1.5499  0.1131
 1843TIP3   OH227019   4.225   4.296   3.438  0.4115 -0.4641 -0.2978
 1843TIP3    H127020   4.158   4.311   3.505  1.8241  1.9909  0.6766
 1843TIP3    H227021   4.212   4.205   3.412 -2.5625 -0.4242  0.6261
 1844TIP3   OH227022   5.248   5.427  13.840  0.2006 -0.4043 -0.0576
 1844TIP3    H127023   5.278   5.337  13.848  0.3265 -0.2271  1.7385
 1844TIP3    H227024   5.153   5.422  13.848  0.2005 -0.3831 -0.0447
 1845TIP3   OH227025   4.457   0.510  16.600 -0.0460  0.3409 -0.3122
 1845TIP3    H127026   4.525   0.446  16.623 -1.5665 -0.6774  1.6961
 1845TIP3    H227027   4.421   0.479  16.518 -0.3681 -1.1030  0.3500
 1846TIP3   OH227028   3.584   3.557  14.583  0.1887  0.4298 -0.4003
 1846TIP3    H127029   3.506   3.505  14.566  1.2724 -2.0624  1.6482
 1846TIP3    H227030   3.572   3.590  14.673  1.2441  0.4724 -0.2630
 1847TIP3   OH227031   5.545   3.867   2.134 -0.9562  0.3072  0.3301
 1847TIP3    H127032   5.574   3.939   2.078  0.1099 -0.2506  0.1396
 1847TIP3    H227033   5.461   3.841   2.097 -0.7246  0.5839 -0.4152
 1848TIP3   OH227034   1.955   6.545   1.407 -0.2050 -0.1719  0.3881
 1848TIP3    H127035   2.022   6.508   1.349 -0.4125 -1.0009  0.6579
 1848TIP3    H227036   1.883   6.482   1.401 -1.3170  1.1473 -0.5804
 1849TIP3   OH227037   6.712   2.237   5.168 -0.3109 -0.2671  0.1147
 1849TIP3    H127038   6.639   2.238   5.230 -0.3372  1.4794  0.1151
 1849TIP3    H227039   6.783   2.195   5.215 -1.2368 -1.8455  0.1771
 1850TIP3   OH227040   5.286   1.102  13.800 -0.1743  0.1206 -0.1349
 1850TIP3    H127041   5.254   1.146  13.879  0.1724 -0.9290  0.6256
 1850TIP3    H227042   5.298   1.011  13.827  0.2861 -0.1922 -1.3152
 1851TIP3   OH227043   5.349   3.676   0.419  0.0586  0.1453 -0.4264
 1851TIP3    H127044   5.294   3.603   0.393 -0.6592  0.7062 -0.5104
 1851TIP3    H227045   5.317   3.701   0.506 -0.1332  0.7621 -0.6664
 1852TIP3   OH227046   3.002   6.086  11.255  0.3287  0.2977  0.6502
 1852TIP3    H127047   3.087   6.092  11.211 -0.8650 -0.2494 -1.9829
 1852TIP3    H227048   2.970   6.176  11.259  1.0715  0.5259  1.8138
 1853TIP3   OH227049   3.393   2.166  12.449  0.0507  0.2976  0.1416
 1853TIP3    H127050   3.466   2.193  12.394  1.6078 -0.7734  1.5826
 1853TIP3    H227051   3.334   2.241  12.449  2.1559  2.0450  0.6016
 1854TIP3   OH227052   1.983   3.868   4.579 -0.0529  0.4459  0.4829
 1854TIP3    H127053   2.006   3.961   4.584  0.8464  0.1847  2.8374
 1854TIP3    H227054   1.896   3.862   4.617 -0.5422  0.4150 -0.6042
 1855TIP3   OH227055   4.312   0.518   1.303 -0.1485  0.4333 -0.0100
 1855TIP3    H127056   4.379   0.587   1.311 -0.6874  1.3849 -2.7673
 1855TIP3    H227057   4.359   0.444   1.267 -0.5549  1.2167 -2.2866
 1856TIP3   OH227058   1.899   4.610   2.561  0.5554 -0.1647 -0.1920
 1856TIP3    H127059   1.853   4.669   2.502 -1.3563 -1.0563  0.3536
 1856TIP3    H227060   1.849   4.529   2.558  0.9267 -0.5261  1.9636
 1857TIP3   OH227061   0.707   4.423   5.202 -0.3349  0.0398 -0.3145
 1857TIP3    H127062   0.776   4.368   5.165 -1.1098 -0.3955 -1.1515
 1857TIP3    H227063   0.685   4.381   5.285  0.7127  0.4500  0.2011
 1858TIP3   OH227064   2.053   5.736   4.628  0.1274 -0.6968 -0.0622
 1858TIP3    H127065   1.963   5.767   4.635  0.2344 -0.4328  0.1371
 1858TIP3    H227066   2.069   5.687   4.709  0.5830  0.3435  0.4879
 1859TIP3   OH227067   1.775   5.245  15.095 -0.3224 -0.8791 -0.0243
 1859TIP3    H127068   1.852   5.197  15.125 -0.4165 -0.7375  0.4426
 1859TIP3    H227069   1.807   5.331  15.071 -0.2599 -0.9700 -0.2753
 1860TIP3   OH227070   4.796   4.503  12.499 -0.3963 -0.4934  0.5231
 1860TIP3    H127071   4.828   4.544  12.578  0.4346  0.4849 -0.2985
 1860TIP3    H227072   4.734   4.566  12.462  1.1629  0.2335 -0.9409
 1861TIP3   OH227073   5.823   6.397   3.462  0.3515  0.5311 -0.2559
 1861TIP3    H127074   5.809   6.424   3.553  1.4212 -0.6585  0.2917
 1861TIP3    H227075   5.743   6.348   3.440  1.2074 -1.6308  1.0510
 1862TIP3   OH227076   1.510   1.617   1.038  0.4381 -0.3381 -0.0778
 1862TIP3    H127077   1.488   1.710   1.045 -0.4796 -0.6541  2.5546
 1862TIP3    H227078   1.549   1.608   0.951 -1.7831  2.0033 -1.4749
 1863TIP3   OH227079   1.909   6.065  15.244  0.6858 -0.1411 -0.4235
 1863TIP3    H127080   1.842   6.051  15.177 -1.4149  0.7397  1.3735
 1863TIP3    H227081   1.860   6.085  15.324  3.0970 -0.0861  1.1585
 1864TIP3   OH227082   0.754   2.772   1.164 -0.2148 -0.2758  0.1546
 1864TIP3    H127083   0.754   2.867   1.170  2.3256 -0.1716 -0.3700
 1864TIP3    H227084   0.690   2.743   1.229 -1.0442  1.7691  0.2994
 1865TIP3   OH227085   5.334   5.506  15.245 -0.3797  0.1443 -0.4849
 1865TIP3    H127086   5.258   5.523  15.301 -0.2260 -0.3656 -0.1091
 1865TIP3    H227087   5.334   5.411  15.234  1.4280 -0.1442  1.3428
 1866TIP3   OH227088   5.754   3.158  12.720 -0.0215  0.3762  0.3949
 1866TIP3    H127089   5.775   3.228  12.781 -1.5166  0.6529  0.6450
 1866TIP3    H227090   5.763   3.198  12.633  2.1045 -0.0196  0.3761
 1867TIP3   OH227091   0.690   3.650   2.941  0.1598 -0.3319  0.2543
 1867TIP3    H127092   0.747   3.726   2.925 -1.0230  1.0272  2.0263
 1867TIP3    H227093   0.626   3.682   3.005 -1.9358 -2.1104 -0.8293
 1868TIP3   OH227094   5.851   6.447   3.738  0.2985  0.0598  0.3296
 1868TIP3    H127095   5.779   6.425   3.798 -1.1656  3.3290 -0.0241
 1868TIP3    H227096   5.914   6.493   3.793 -0.3521  1.7434 -0.2708
 1869TIP3   OH227097   5.263   2.061  11.189 -0.1689  0.7343  0.0642
 1869TIP3    H127098   5.282   2.005  11.265  1.5159  0.7595 -0.3015
 1869TIP3    H227099   5.182   2.106  11.213 -2.1846 -2.4718  0.0065
 1870TIP3   OH227100   3.054   4.539  14.876 -0.2005 -0.2969  0.2802
 1870TIP3    H127101   3.092   4.614  14.921  0.4081 -1.8958  2.6484
 1870TIP3    H227102   3.129   4.487  14.849 -0.5873  0.3280 -2.1690
 1871TIP3   OH227103   3.845   3.639  12.541 -0.0642 -0.4039  0.6964
 1871TIP3    H127104   3.831   3.733  12.541 -3.1128 -0.6958 -1.4669
 1871TIP3    H227105   3.760   3.602  12.515  1.3925 -3.6490  0.0210
 1872TIP3   OH227106   4.393   1.918   0.043  0.6733 -0.7012  0.1493
 1872TIP3    H127107   4.327   1.897  -0.023  1.3778 -2.1238 -0.1413
 1872TIP3    H227108   4.473   1.930  -0.007  0.6257  1.2011  0.4834
 1873TIP3   OH227109   5.513   0.161  15.946 -0.6373  0.0274 -0.4718
 1873TIP3    H127110   5.558   0.193  16.024  0.5910  1.8070 -1.8410
 1873TIP3    H227111   5.428   0.206  15.947 -0.2285  0.8255 -0.6478
 1874TIP3   OH227112   4.659   5.066   0.527  0.1763  0.7192 -0.2435
 1874TIP3    H127113   4.648   5.138   0.465 -0.9373  0.4641 -0.3503
 1874TIP3    H227114   4.620   5.098   0.609  0.2830  0.4896 -0.1005
 1875TIP3   OH227115   1.565   3.039  13.961 -0.2993  0.5960 -0.0808
 1875TIP3    H127116   1.511   2.967  13.992 -0.1194  0.4188 -0.1760
 1875TIP3    H227117   1.655   3.005  13.964 -0.2889  0.5323 -0.9196
 1876TIP3   OH227118   2.208   1.931  15.656  0.0223 -0.4412 -0.4046
 1876TIP3    H127119   2.269   1.873  15.611 -1.3547 -0.1230 -2.8642
 1876TIP3    H227120   2.159   1.974  15.585 -1.6763  0.8023  1.4105
 1877TIP3   OH227121   3.174   6.749  14.913 -0.6860  0.5809  0.0874
 1877TIP3    H127122   3.168   6.669  14.964  0.1487 -0.6321 -1.6222
 1877TIP3    H227123   3.094   6.751  14.861  1.3533 -1.8944 -3.5474
 1878TIP3   OH227124   5.258   1.614   4.768 -0.2984  0.1614 -0.0218
 1878TIP3    H127125   5.166   1.629   4.744 -0.4036 -1.2047 -0.5338
 1878TIP3    H227126   5.305   1.684   4.723 -1.0463  0.6495 -0.0697
 1879TIP3   OH227127   1.848   2.069   1.352  0.2590  0.2222 -0.3551
 1879TIP3    H127128   1.878   1.978   1.360  0.6748  0.3781 -0.1034
 1879TIP3    H227129   1.919   2.120   1.390 -0.6189  0.5707  0.8757
 1880TIP3   OH227130   6.484   2.907  15.712  0.2877  0.7218  0.3538
 1880TIP3    H127131   6.415   2.940  15.654  0.7651  0.6566 -0.2628
 1880TIP3    H227132   6.475   2.959  15.792 -0.7191  0.4491  0.4291
 1881TIP3   OH227133   4.763   0.801   2.328 -0.2381  0.2991 -0.5439
 1881TIP3    H127134   4.849   0.835   2.355  0.5058  1.2794 -3.6543
 1881TIP3    H227135   4.778   0.708   2.313 -0.0433  0.2284  0.0585
 1882TIP3   OH227136   0.151   3.430   1.815  0.4205 -0.2497  0.5739
 1882TIP3    H127137   0.188   3.395   1.734 -0.5262 -3.2836  1.3524
 1882TIP3    H227138   0.227   3.456   1.867  1.1501 -0.6563 -0.2644
 1883TIP3   OH227139   5.522   5.889  15.305 -0.4597  0.2570  0.6078
 1883TIP3    H127140   5.445   5.864  15.357 -1.5208  3.0603  0.5436
 1883TIP3    H227141   5.552   5.971  15.344  1.0688  0.4405 -0.8494
 1884TIP3   OH227142   3.316   0.474   1.832 -0.5962  0.0991  0.2456
 1884TIP3    H127143   3.262   0.517   1.765 -3.2033 -1.3230  1.2761
 1884TIP3    H227144   3.336   0.543   1.895 -0.6745  0.7925 -0.4740
 1885TIP3   OH227145   3.146   2.841  15.817  0.8799  0.5159 -0.1027
 1885TIP3    H127146   3.141   2.867  15.725 -0.1981  1.0937  0.1027
 1885TIP3    H227147   3.055   2.827  15.843  0.5643  4.9889  2.1351
 1886TIP3   OH227148   1.409   4.191  16.765  0.0424  0.1391  0.5387
 1886TIP3    H127149   1.487   4.195  16.710  0.6251  0.5011  1.3816
 1886TIP3    H227150   1.426   4.119  16.826  0.2971  1.0645  1.5845
 1887TIP3   OH227151   4.854   5.307  13.414 -0.4446 -0.3146 -0.5636
 1887TIP3    H127152   4.890   5.294  13.501 -2.1377 -1.7601 -0.0177
 1887TIP3    H227153   4.851   5.219  13.376 -0.3173  0.2079 -1.8354
 1888TIP3   OH227154   5.530   6.149   6.659  0.0474 -0.1471  0.0263
 1888TIP3    H127155   5.585   6.076   6.631  0.1831  0.3326 -1.0250
 1888TIP3    H227156   5.467   6.110   6.719  1.1363 -0.8199  0.7669
 1889TIP3   OH227157   3.165   3.238  15.274  0.4068  0.0788  0.2947
 1889TIP3    H127158   3.156   3.323  15.231 -1.0472  0.5758  1.5094
 1889TIP3    H227159   3.216   3.256  15.352 -0.2187 -0.0843  0.7471
 1890TIP3   OH227160   6.759   3.528  15.039  0.5707 -0.5533 -0.1829
 1890TIP3    H127161   6.673   3.522  14.995 -0.0044  0.0004  0.8364
 1890TIP3    H227162   6.738   3.530  15.132  1.6842 -0.1054  0.0712
 1891TIP3   OH227163   0.033   4.255  11.986  0.0934 -0.3011 -0.1281
 1891TIP3    H127164   0.063   4.345  11.999  1.2520 -0.4589 -1.5109
 1891TIP3    H227165   0.082   4.205  12.052 -0.2168  0.0047  0.3459
 1892TIP3   OH227166   2.383   1.738  15.881 -0.7353  0.4834  0.1012
 1892TIP3    H127167   2.442   1.725  15.956 -1.2088  0.7877  0.5362
 1892TIP3    H227168   2.422   1.811  15.833 -0.1605 -0.0291 -0.2309
 1893TIP3   OH227169   2.872   6.220  14.204  0.1281  0.5144 -0.2380
 1893TIP3    H127170   2.961   6.206  14.236  0.0931 -1.8994 -0.9573
 1893TIP3    H227171   2.879   6.298  14.148  1.3013  1.5787  1.2906
 1894TIP3   OH227172   0.958   2.191   2.730  0.3425 -0.3080  0.1839
 1894TIP3    H127173   0.946   2.238   2.648 -0.5612  0.3187  0.6650
 1894TIP3    H227174   0.995   2.256   2.790 -2.1680  0.2346  1.2491
 1895TIP3   OH227175   3.862   6.093  13.140 -0.1099 -0.5728  0.4738
 1895TIP3    H127176   3.818   6.061  13.061  0.5806 -3.1078  1.0214
 1895TIP3    H227177   3.790   6.125  13.196 -0.7354 -0.0935 -0.5731
 1896TIP3   OH227178   2.546   3.065   3.671  0.3626  0.1947 -0.1627
 1896TIP3    H127179   2.559   3.010   3.748 -0.2016  1.2204  0.6843
 1896TIP3    H227180   2.623   3.048   3.617  0.7761 -0.5319  0.6187
 1897TIP3   OH227181   4.869   2.891  12.202 -0.3123 -0.2616 -0.0352
 1897TIP3    H127182   4.941   2.935  12.158 -1.2059  0.2483 -1.0522
 1897TIP3    H227183   4.821   2.961  12.245 -1.1682 -0.3369 -0.8185
 1898TIP3   OH227184   4.444   2.838   3.009 -0.4081 -0.2764  0.1468
 1898TIP3    H127185   4.456   2.921   2.964 -1.9304  0.0764  0.3139
 1898TIP3    H227186   4.349   2.828   3.016 -0.2421 -1.4375  1.2204
 1899TIP3   OH227187   2.513   0.673   4.447 -0.2551 -0.2076 -0.1018
 1899TIP3    H127188   2.424   0.690   4.476  0.3957  0.0009  1.9724
 1899TIP3    H227189   2.554   0.760   4.445  0.1233 -0.3862 -0.2237
 1900TIP3   OH227190   3.495   6.284   2.145  0.0564 -0.2383 -0.0857
 1900TIP3    H127191   3.467   6.349   2.210 -1.3496 -0.2230 -0.6563
 1900TIP3    H227192   3.566   6.326   2.097 -1.4252  1.3182 -1.0537
 1901TIP3   OH227193   6.732   0.130   5.353 -0.2175  0.5894  0.0876
 1901TIP3    H127194   6.759   0.059   5.411 -0.2169 -1.2441 -2.0483
 1901TIP3    H227195   6.800   0.197   5.363  0.4478 -0.2262  1.2287
 1902TIP3   OH227196   6.170   6.539   4.525 -0.4065 -0.0768 -0.1518
 1902TIP3    H127197   6.262   6.534   4.553 -0.2022 -4.7597 -0.8062
 1902TIP3    H227198   6.120   6.521   4.605 -0.5209 -0.9899 -0.4209
 1903TIP3   OH227199   4.146   2.011   0.340  0.1722  0.4176  0.0717
 1903TIP3    H127200   4.191   1.927   0.329  0.1166  0.2792  0.8707
 1903TIP3    H227201   4.212   2.070   0.378  0.4939  1.0192 -1.3634
 1904TIP3   OH227202   0.481   2.530   5.376 -0.3973  0.0670 -0.0364
 1904TIP3    H127203   0.442   2.548   5.462 -1.7441  3.1263 -1.1144
 1904TIP3    H227204   0.561   2.583   5.375 -0.5900  0.3485 -0.7721
 1905TIP3   OH227205   0.736   1.090  15.714  0.4675 -0.7122 -0.3900
 1905TIP3    H127206   0.724   1.000  15.685 -0.5241 -0.8430  0.3790
 1905TIP3    H227207   0.692   1.142  15.647 -0.4931 -0.9179  0.0690
 1906TIP3   OH227208   2.272   0.033  16.107  0.9236  0.5377 -0.0692
 1906TIP3    H127209   2.358   0.040  16.149 -0.3904  1.5299  2.7532
 1906TIP3    H227210   2.245   0.124  16.093  0.4452  0.2331 -1.2017
 1907TIP3   OH227211   2.141   2.430   4.542 -0.8123 -0.0713 -0.4671
 1907TIP3    H127212   2.089   2.353   4.563 -1.8169  0.9680  1.0657
 1907TIP3    H227213   2.166   2.418   4.450  0.4011 -2.9421  0.1324
 1908TIP3   OH227214   5.166   2.439  11.158 -0.2579  0.1480 -0.6005
 1908TIP3    H127215   5.153   2.388  11.239  2.6022 -1.4030 -0.9707
 1908TIP3    H227216   5.217   2.515  11.186  0.3588 -0.1668 -0.8446
 1909TIP3   OH227217   6.079   5.591   3.315  0.3203 -0.0009  0.2222
 1909TIP3    H127218   6.001   5.603   3.260  1.0555  0.0336 -0.8438
 1909TIP3    H227219   6.069   5.502   3.349 -0.6391  0.3305  0.8561
 1910TIP3   OH227220   0.407   2.597   1.113  0.2632  1.1143  0.1789
 1910TIP3    H127221   0.429   2.506   1.091  0.2482  1.1636 -0.0418
 1910TIP3    H227222   0.339   2.621   1.051  1.6178  1.9121 -1.0576
 1911TIP3   OH227223   4.573   6.312   3.921 -0.5223  0.1853 -0.0980
 1911TIP3    H127224   4.606   6.309   3.831  1.2345 -2.4260  0.4994
 1911TIP3    H227225   4.486   6.273   3.916 -0.7798  0.8275 -0.7606
 1912TIP3   OH227226   0.674   5.269  16.199 -0.5330 -0.1222  0.1422
 1912TIP3    H127227   0.689   5.313  16.283 -2.1384  0.1546  0.3179
 1912TIP3    H227228   0.696   5.177  16.216  0.8312  0.2287  0.3614
 1913TIP3   OH227229   4.262   5.373   3.500 -0.0457 -0.1570  0.0553
 1913TIP3    H127230   4.193   5.428   3.463 -0.4802 -0.0380  1.0169
 1913TIP3    H227231   4.253   5.290   3.454 -0.2642  0.1304 -0.4421
 1914TIP3   OH227232   2.669   2.476   0.356 -0.4553 -0.4472  0.3682
 1914TIP3    H127233   2.647   2.570   0.355 -1.4447 -0.6721 -0.3488
 1914TIP3    H227234   2.647   2.447   0.444 -2.9403 -0.6031 -0.2222
 1915TIP3   OH227235   5.424   0.017  14.939  0.4805  0.4314  0.5585
 1915TIP3    H127236   5.494   0.007  14.874  0.5943  1.7880  0.4449
 1915TIP3    H227237   5.444   0.100  14.983 -0.8576  0.6590  0.7693
 1916TIP3   OH227238   0.412   1.025   4.652  0.4963 -0.0798  0.2840
 1916TIP3    H127239   0.353   0.951   4.638 -1.7002  1.5241  0.5666
 1916TIP3    H227240   0.448   1.011   4.740  1.3362 -1.5553 -0.2510
 1917TIP3   OH227241   5.351   0.764   0.981  0.3197  0.4818  1.1921
 1917TIP3    H127242   5.356   0.855   1.011  1.0266  0.9204 -0.1764
 1917TIP3    H227243   5.411   0.716   1.040 -0.2587  0.8342  2.0893
 1918TIP3   OH227244   4.897   1.122   6.047 -0.2414  0.0804 -0.0942
 1918TIP3    H127245   4.821   1.076   6.012 -0.8093  0.6584  0.3401
 1918TIP3    H227246   4.866   1.160   6.130  0.0074  1.7710 -0.7378
 1919TIP3   OH227247   6.828   1.326   4.977 -0.0803  0.1621  0.1052
 1919TIP3    H127248   6.796   1.314   5.066 -1.9222 -1.2253 -0.6680
 1919TIP3    H227249   6.779   1.401   4.944  0.7648  0.8172  0.3010
 1920TIP3   OH227250   3.414   0.662   6.488  0.2688  0.0675 -0.3800
 1920TIP3    H127251   3.389   0.734   6.430  0.8457  1.6793  1.2963
 1920TIP3    H227252   3.338   0.649   6.545  0.1838 -0.6347 -0.6443
 1921TIP3   OH227253   1.380   5.004  11.830  0.0906  0.4346 -0.3726
 1921TIP3    H127254   1.368   5.075  11.894 -1.1014  1.3090 -1.5224
 1921TIP3    H227255   1.321   5.025  11.759 -0.9881 -2.2240 -0.3739
 1922TIP3   OH227256   5.485   5.057  14.416  0.0258  0.8323  0.8880
 1922TIP3    H127257   5.393   5.039  14.437  0.1205 -1.2460 -0.2510
 1922TIP3    H227258   5.485   5.147  14.384 -1.7775  0.6297  0.1908
 1923TIP3   OH227259   6.339   1.232   1.454 -0.0341 -0.1012  0.4797
 1923TIP3    H127260   6.383   1.178   1.388 -1.0626 -1.4404  0.8313
 1923TIP3    H227261   6.404   1.297   1.480 -0.2232  1.8548 -3.3366
 1924TIP3   OH227262   2.124   2.402  11.282 -0.1414 -0.4051  0.7069
 1924TIP3    H127263   2.143   2.334  11.217  1.1539  0.3606  0.2621
 1924TIP3    H227264   2.054   2.454  11.242 -0.6716 -1.0465  0.7661
 1925TIP3   OH227265   5.383   4.851  14.194 -0.1733  0.0611  0.4598
 1925TIP3    H127266   5.472   4.838  14.161 -0.8987 -1.3204 -1.1225
 1925TIP3    H227267   5.395   4.888  14.282  1.9036  1.3628 -0.3151
 1926TIP3   OH227268   2.124   6.636   1.887  0.1161  0.0130  0.3239
 1926TIP3    H127269   2.205   6.588   1.872 -0.9352 -1.5037 -0.8752
 1926TIP3    H227270   2.076   6.628   1.804 -1.8049 -0.2694  1.3941
 1927TIP3   OH227271   3.008   5.167  13.038  0.3443 -0.5629 -0.5784
 1927TIP3    H127272   3.040   5.213  12.960 -0.5312 -0.3283 -0.7999
 1927TIP3    H227273   2.914   5.184  13.040  0.5116  0.4849  1.2089
 1928TIP3   OH227274   4.417   0.616  10.966 -0.4527 -0.3433  0.2974
 1928TIP3    H127275   4.412   0.600  10.871  0.0822 -0.2026  0.2391
 1928TIP3    H227276   4.501   0.659  10.978 -1.3253  1.3567  0.5959
 1929TIP3   OH227277   5.892   0.952   3.996 -0.0237 -0.0167  0.0076
 1929TIP3    H127278   5.915   1.034   4.038  1.1904 -0.8255  1.0221
 1929TIP3    H227279   5.811   0.924   4.039  0.3654 -0.0635  0.7265
 1930TIP3   OH227280   2.928   3.400   4.536 -0.3521 -0.2492 -0.0528
 1930TIP3    H127281   2.988   3.474   4.552 -2.0102  1.1058  0.1580
 1930TIP3    H227282   2.856   3.438   4.487 -1.2340 -1.7611  0.0250
 1931TIP3   OH227283   3.137   0.510   6.227 -0.0007  0.3693 -0.1590
 1931TIP3    H127284   3.154   0.449   6.299 -0.9212  0.9554  0.5744
 1931TIP3    H227285   3.208   0.574   6.232  0.4620 -0.1179 -0.3684
 1932TIP3   OH227286   5.475   4.406   0.525  0.5602  0.7684  0.4810
 1932TIP3    H127287   5.493   4.483   0.579  1.6347  2.2229 -1.7988
 1932TIP3    H227288   5.411   4.356   0.575  1.1761  2.2084  2.8779
 1933TIP3   OH227289   6.065   0.275  11.172  0.3216 -0.0747 -0.8933
 1933TIP3    H127290   6.004   0.203  11.159  1.2778 -1.3512  1.1339
 1933TIP3    H227291   6.102   0.260  11.259  3.7251  0.4610 -2.0932
 1934TIP3   OH227292   0.742   2.086   3.116  0.9196  0.2443 -0.3870
 1934TIP3    H127293   0.676   2.074   3.048  0.7169  0.1850 -0.1811
 1934TIP3    H227294   0.820   2.043   3.081  1.2645  1.5034 -1.2219
 1935TIP3   OH227295   5.593   4.794   3.001 -0.3330  0.1734  0.0778
 1935TIP3    H127296   5.549   4.864   3.049  1.0289  1.5155 -0.5100
 1935TIP3    H227297   5.607   4.726   3.066 -2.7104 -0.0884  0.4005
 1936TIP3   OH227298   1.648   6.018  15.362  0.3034  0.4530 -0.0643
 1936TIP3    H127299   1.564   6.024  15.318  0.1388  2.2206  0.4359
 1936TIP3    H227300   1.678   5.928  15.344 -2.0226 -0.4834  0.3867
 1937TIP3   OH227301   1.282   3.511   1.263 -0.1436  0.2487  0.4651
 1937TIP3    H127302   1.370   3.477   1.274 -0.0824  0.7645  1.7159
 1937TIP3    H227303   1.283   3.597   1.305 -0.8170  1.0000 -0.9468
 1938TIP3   OH227304   4.168   5.004  14.917 -1.0100 -0.1321  0.5388
 1938TIP3    H127305   4.151   5.068  14.847 -2.0327 -0.3683  0.5595
 1938TIP3    H227306   4.161   4.919  14.874 -0.0330 -0.2529  0.5955
 1939TIP3   OH227307   5.139   0.673   0.402  0.2010 -0.2630 -0.0375
 1939TIP3    H127308   5.091   0.735   0.348 -1.2022 -0.3709  1.0137
 1939TIP3    H227309   5.148   0.595   0.347 -0.6979 -0.1752 -0.3335
 1940TIP3   OH227310   1.568   4.654   6.926  0.2817 -0.1793  0.3679
 1940TIP3    H127311   1.616   4.711   6.986 -0.8428  1.5271 -0.2816
 1940TIP3    H227312   1.511   4.602   6.983  0.7149 -0.0648  0.9139
 1941TIP3   OH227313   0.300   1.790  14.134  0.2382  0.0784 -0.1534
 1941TIP3    H127314   0.359   1.779  14.060  0.9158 -0.3646  0.4341
 1941TIP3    H227315   0.323   1.719  14.194 -2.0147 -1.1544 -0.6257
 1942TIP3   OH227316   2.897   2.593   5.752 -0.3937 -0.6386 -0.3701
 1942TIP3    H127317   2.992   2.580   5.755 -0.5580 -1.8832  0.1475
 1942TIP3    H227318   2.862   2.506   5.732 -1.4350 -0.2263 -0.3818
 1943TIP3   OH227319   6.101   6.306   4.394 -0.0595 -0.2299 -0.4372
 1943TIP3    H127320   6.103   6.252   4.473 -1.1793  0.7518  0.3077
 1943TIP3    H227321   6.121   6.395   4.425 -2.2449  0.4966 -0.8986
 1944TIP3   OH227322   3.635   5.234  14.664 -0.1055  0.6018  0.2236
 1944TIP3    H127323   3.638   5.296  14.591  0.4457  0.2607 -0.0481
 1944TIP3    H227324   3.615   5.288  14.741  0.0913  1.0754 -0.0551
 1945TIP3   OH227325   1.333   4.303  11.509 -0.5021 -0.3357  0.3273
 1945TIP3    H127326   1.362   4.388  11.542  1.6289 -0.3699 -1.2439
 1945TIP3    H227327   1.354   4.241  11.580  0.6184  0.0705  0.3624
 1946TIP3   OH227328   0.660   1.841  17.018 -0.2972 -0.8080 -0.3131
 1946TIP3    H127329   0.605   1.790  16.959 -1.0945 -0.6364  0.2622
 1946TIP3    H227330   0.732   1.871  16.964 -2.5013  1.8807 -2.0156
 1947TIP3   OH227331   3.362   2.781   0.400  0.4113 -0.3084 -0.4946
 1947TIP3    H127332   3.380   2.874   0.415  1.9253 -0.4852 -1.0608
 1947TIP3    H227333   3.316   2.753   0.480  2.7727  0.2125  1.1670
 1948TIP3   OH227334   6.450   1.484   5.503  0.0483 -1.0229  0.0347
 1948TIP3    H127335   6.460   1.579   5.503  0.4751 -1.0539 -0.6592
 1948TIP3    H227336   6.413   1.464   5.417 -1.4355 -1.3683  0.7175
 1949TIP3   OH227337   5.322   5.851   2.618 -0.2171 -0.0332  0.3090
 1949TIP3    H127338   5.297   5.764   2.588  0.3261  0.1096 -0.6109
 1949TIP3    H227339   5.347   5.897   2.538 -1.1208  1.1848  0.6925
 1950TIP3   OH227340   0.264   4.439   3.127 -0.1114  0.1312  0.5023
 1950TIP3    H127341   0.190   4.409   3.075 -0.5876  1.9427  0.0763
 1950TIP3    H227342   0.341   4.408   3.078 -0.5679  0.0528 -0.1894
 1951TIP3   OH227343   3.415   0.975   5.676  0.0137 -0.0016  0.5665
 1951TIP3    H127344   3.456   1.061   5.668  0.7264 -0.2980  0.8859
 1951TIP3    H227345   3.489   0.913   5.675 -0.4731 -0.5967  0.5258
 1952TIP3   OH227346   4.049   2.031   1.625  0.2282  0.0711  0.0256
 1952TIP3    H127347   4.077   1.987   1.705 -1.2473  0.7942  0.9837
 1952TIP3    H227348   3.960   1.999   1.610  0.0664  0.8191 -0.6720
 1953TIP3   OH227349   1.618   1.027   4.921 -0.0993 -0.3725 -0.8670
 1953TIP3    H127350   1.603   0.938   4.891  0.1566 -1.1735  1.1933
 1953TIP3    H227351   1.612   1.021   5.016  3.1569  1.1739 -0.4477
 1954TIP3   OH227352   1.952   3.031   4.609  0.2013 -0.5096 -0.3709
 1954TIP3    H127353   1.927   3.115   4.645  3.0515  0.7174 -0.9962
 1954TIP3    H227354   1.966   3.048   4.516  0.9025 -1.6423 -0.4963
 1955TIP3   OH227355   5.482   2.826  12.129  0.0690  0.2988  0.5846
 1955TIP3    H127356   5.549   2.787  12.185  0.6905 -0.7611 -0.8352
 1955TIP3    H227357   5.401   2.782  12.154  0.6719 -1.6162 -0.6198
 1956TIP3   OH227358   6.765   5.498  11.773 -0.6142 -0.3761  0.0720
 1956TIP3    H127359   6.691   5.483  11.832 -1.8282 -0.6372 -1.4492
 1956TIP3    H227360   6.731   5.475  11.686  1.2878 -0.5653 -0.6568
 1957TIP3   OH227361   3.348   1.294   5.640 -0.1063 -0.1523 -0.2560
 1957TIP3    H127362   3.322   1.381   5.670  0.0874 -0.6072  1.3443
 1957TIP3    H227363   3.436   1.282   5.675  0.3428 -0.5471 -1.4715
 1958TIP3   OH227364   6.561   4.072   5.268  0.3620  0.1037  0.0248
 1958TIP3    H127365   6.478   4.051   5.310  0.9536 -0.4107  0.9794
 1958TIP3    H227366   6.619   3.999   5.289  0.8940  0.1694 -1.1178
 1959TIP3   OH227367   5.943   1.474   3.365 -0.2456  0.2292  0.4674
 1959TIP3    H127368   5.923   1.435   3.450  0.4929 -1.1887  0.0351
 1959TIP3    H227369   5.872   1.445   3.307  0.5878 -1.0379  0.0118
 1960TIP3   OH227370   3.096   2.426  11.911  0.1853  0.1489 -0.0562
 1960TIP3    H127371   3.072   2.439  11.819 -0.0121 -2.6056 -0.4947
 1960TIP3    H227372   3.167   2.488  11.927 -1.1147  2.1128 -1.4335
 1961TIP3   OH227373   5.514   0.454   3.834 -0.8049 -0.2225 -0.0384
 1961TIP3    H127374   5.592   0.486   3.790 -0.9023 -0.0132 -0.0599
 1961TIP3    H227375   5.546   0.386   3.894 -0.5003  0.4057  0.5319
 1962TIP3   OH227376   3.585   4.973   5.394 -0.0402 -0.8787 -0.5776
 1962TIP3    H127377   3.499   5.012   5.409 -0.0107 -0.3709 -1.5903
 1962TIP3    H227378   3.576   4.930   5.309  1.0408  0.2054 -1.2716
 1963TIP3   OH227379   3.232   2.272  10.622  0.0801 -0.5085  0.4371
 1963TIP3    H127380   3.171   2.303  10.689 -0.8581 -0.1758 -0.5307
 1963TIP3    H227381   3.248   2.348  10.567 -1.1753 -1.3502 -1.1731
 1964TIP3   OH227382   6.744   4.925  13.733 -0.1148 -0.7075 -0.5373
 1964TIP3    H127383   6.748   4.975  13.814  1.6953 -1.6399  0.0102
 1964TIP3    H227384   6.718   4.989  13.666 -0.7804  0.2619  0.6236
 1965TIP3   OH227385   3.207   5.193   6.038  0.1501  0.2055 -0.2439
 1965TIP3    H127386   3.292   5.206   5.995  1.0995  0.8627  1.7081
 1965TIP3    H227387   3.178   5.281   6.062  0.1812 -0.1747  1.3420
 1966TIP3   OH227388   4.128   4.246  14.603  0.2137  0.1068  0.8760
 1966TIP3    H127389   4.220   4.243  14.631  0.3813 -1.4062  0.2555
 1966TIP3    H227390   4.125   4.189  14.526 -1.2379  0.2219  0.8309
 1967TIP3   OH227391   1.061   0.354  16.339 -0.4440  0.1004 -0.3837
 1967TIP3    H127392   1.144   0.400  16.322 -0.9139  1.2391  0.2984
 1967TIP3    H227393   1.088   0.267  16.369  0.5014  0.3687 -0.4287
 1968TIP3   OH227394   6.834   1.453  10.366  0.5864  0.0816  0.3037
 1968TIP3    H127395   6.800   1.489  10.285  0.7388  2.1214  1.0753
 1968TIP3    H227396   6.780   1.493  10.435  0.0713 -2.0462  1.2157
 1969TIP3   OH227397   2.726   5.644   2.856 -0.6335  0.4808 -0.3775
 1969TIP3    H127398   2.650   5.586   2.855 -0.9933  0.9600 -1.1311
 1969TIP3    H227399   2.798   5.590   2.823 -0.7273  0.1389 -0.0240
 1970TIP3   OH227400   3.104   0.048  16.814 -0.4516  0.1282  0.4310
 1970TIP3    H127401   3.152   0.005  16.743 -1.0353  1.2439 -0.6823
 1970TIP3    H227402   3.170   0.067  16.880  0.1269 -0.8309  0.1506
 1971TIP3   OH227403   0.610   3.788  12.464 -0.4975  0.4654  0.2163
 1971TIP3    H127404   0.543   3.763  12.527 -0.5613  0.7687  0.2743
 1971TIP3    H227405   0.561   3.811  12.385 -0.2904 -2.2987 -0.8043
 1972TIP3   OH227406   1.643   4.503   6.026  0.3009 -0.0598 -0.4144
 1972TIP3    H127407   1.653   4.422   6.076  2.0520  0.1828 -0.2858
 1972TIP3    H227408   1.698   4.566   6.072 -0.1363  0.8885 -1.1643
 1973TIP3   OH227409   2.778   4.477   2.127 -0.1126 -0.6575 -0.2025
 1973TIP3    H127410   2.805   4.396   2.083  0.4210 -0.1613 -0.8056
 1973TIP3    H227411   2.832   4.480   2.206  0.8960 -0.1840 -0.8949
 1974TIP3   OH227412   3.265   4.453   0.998 -0.1361  0.2394  0.4713
 1974TIP3    H127413   3.193   4.426   0.941 -0.0737 -0.4789  0.7245
 1974TIP3    H227414   3.285   4.543   0.971 -0.5247  0.1247 -0.2079
 1975TIP3   OH227415   3.835   3.611  13.296  0.5361  0.6179  0.2880
 1975TIP3    H127416   3.739   3.606  13.294  0.5916 -0.9981  0.4897
 1975TIP3    H227417   3.857   3.611  13.389  0.7638 -0.1164  0.2391
 1976TIP3   OH227418   6.505   4.898   0.404  0.1480  0.3289  0.5445
 1976TIP3    H127419   6.525   4.809   0.434  0.7381  0.2387 -0.0957
 1976TIP3    H227420   6.501   4.891   0.309  1.3264  1.2080  0.4137
 1977TIP3   OH227421   4.956   0.299  11.780  0.4737  0.0858 -0.6725
 1977TIP3    H127422   4.976   0.373  11.838  0.7027 -0.2720 -0.2844
 1977TIP3    H227423   4.916   0.234  11.838  0.1451 -0.0389 -1.0394
 1978TIP3   OH227424   4.379   2.051  14.646 -0.0126  0.4467 -0.1937
 1978TIP3    H127425   4.390   1.965  14.685 -0.2442  0.2366 -0.5800
 1978TIP3    H227426   4.427   2.110  14.703 -1.5470  0.3661  1.2465
 1979TIP3   OH227427   3.439   3.464  11.238  0.4607 -0.0957  0.7674
 1979TIP3    H127428   3.395   3.527  11.181 -0.0313  0.2806  1.5340
 1979TIP3    H227429   3.460   3.515  11.317  1.6699 -0.4479  0.6855
 1980TIP3   OH227430   4.449   3.212   2.337  0.2719 -0.5492 -0.4382
 1980TIP3    H127431   4.482   3.206   2.426 -0.5061  0.3848 -0.0723
 1980TIP3    H227432   4.420   3.123   2.316 -0.3358 -0.6014  0.5684
 1981TIP3   OH227433   4.198   5.385  11.284  0.4234 -0.3726  0.3902
 1981TIP3    H127434   4.229   5.472  11.259  0.5033 -0.1712  1.1690
 1981TIP3    H227435   4.209   5.332  11.205  1.0507  0.1470  0.1168
 1982TIP3   OH227436   5.093   4.626  11.654  0.8486  0.0053 -0.1390
 1982TIP3    H127437   5.089   4.609  11.560  0.6275 -2.7287  0.2901
 1982TIP3    H227438   5.163   4.570  11.687  1.0628  1.0592  1.3100
 1983TIP3   OH227439   2.371   1.919  12.551 -0.3822  0.1976  0.7571
 1983TIP3    H127440   2.330   1.887  12.470  1.8557 -0.8863 -0.0256
 1983TIP3    H227441   2.298   1.955  12.602 -2.0048  0.0518 -1.3143
 1984TIP3   OH227442   2.350   3.597   5.200  0.2903  0.2090  0.1041
 1984TIP3    H127443   2.414   3.571   5.134  0.1857 -0.9999  0.4636
 1984TIP3    H227444   2.373   3.687   5.221  0.6806  0.4257 -1.1595
 1985TIP3   OH227445   1.789   4.066  12.460  0.2230  0.4762  0.2974
 1985TIP3    H127446   1.699   4.068  12.493 -0.5607 -1.7270 -1.4350
 1985TIP3    H227447   1.781   4.088  12.368  1.6584  1.4559  0.3832
 1986TIP3   OH227448   2.305   5.415  12.722 -0.1730 -0.1567 -0.4505
 1986TIP3    H127449   2.376   5.351  12.732 -0.1886 -0.5668 -2.4761
 1986TIP3    H227450   2.232   5.377  12.772  0.6135 -0.3625  0.5950
 1987TIP3   OH227451   1.610   5.825   6.261 -0.1136  0.0858  0.2165
 1987TIP3    H127452   1.548   5.889   6.295 -0.0879  0.2568 -0.0565
 1987TIP3    H227453   1.696   5.860   6.283 -0.1091 -0.0927  0.4889
 1988TIP3   OH227454   5.144   1.533  16.707 -0.2489  0.4985 -0.0437
 1988TIP3    H127455   5.193   1.539  16.625 -1.0869  1.9539 -0.4688
 1988TIP3    H227456   5.200   1.575  16.771 -0.7387  1.8618 -0.4628
 1989TIP3   OH227457   1.026   5.068   5.511  0.5908  0.2740  0.0390
 1989TIP3    H127458   0.999   5.053   5.601  1.7024 -0.3309  0.2865
 1989TIP3    H227459   1.072   5.153   5.513 -0.2288  0.7356 -0.1592
 1990TIP3   OH227460   3.011   0.650  11.923 -0.4973  0.5763 -0.3333
 1990TIP3    H127461   3.099   0.671  11.892 -0.6053  0.8644 -0.4511
 1990TIP3    H227462   3.019   0.651  12.019  0.2434 -2.0315 -0.3047
 1991TIP3   OH227463   5.900   1.785  11.169 -0.7254 -0.0921  0.1140
 1991TIP3    H127464   5.934   1.724  11.103 -2.2161 -0.0660 -0.7363
 1991TIP3    H227465   5.855   1.729  11.232 -4.6483  0.0779 -2.1689
 1992TIP3   OH227466   2.404   6.549   0.139  0.1116  0.1557  0.0674
 1992TIP3    H127467   2.342   6.492   0.095  0.8643 -1.9655  1.5601
 1992TIP3    H227468   2.356   6.629   0.157 -1.0956 -0.0967 -1.8254
 1993TIP3   OH227469   3.384   1.131  12.759  0.4440 -0.4238 -0.4968
 1993TIP3    H127470   3.441   1.177  12.820  0.4976 -1.3511  0.1859
 1993TIP3    H227471   3.300   1.124  12.805  0.0099  0.2173 -1.1650
 1994TIP3   OH227472   6.809   6.308  16.048 -0.3135  0.2704  0.2750
 1994TIP3    H127473   6.806   6.279  16.139  0.7417 -1.6537 -0.2530
 1994TIP3    H227474   6.898   6.287  16.019 -0.7299  0.5410 -1.3061
 1995TIP3   OH227475   6.403   3.878  11.667 -0.1632  0.2482  0.1191
 1995TIP3    H127476   6.358   3.859  11.585 -0.2460 -0.5289  0.3388
 1995TIP3    H227477   6.334   3.870  11.734  0.3440 -1.2093  0.4861
 1996TIP3   OH227478   2.285   5.704  12.317  0.3292 -0.3062 -0.6500
 1996TIP3    H127479   2.253   5.704  12.226 -0.8392  1.2999 -0.2877
 1996TIP3    H227480   2.222   5.649  12.364 -0.9106  1.3680 -0.2771
 1997TIP3   OH227481   1.835   1.765  14.178  0.3888  0.2418  0.3417
 1997TIP3    H127482   1.774   1.731  14.243 -0.7891 -1.6020 -1.6065
 1997TIP3    H227483   1.806   1.854  14.161  0.8862  0.8553  2.4653
 1998TIP3   OH227484   2.586   4.420  15.862 -0.2460 -0.2813  0.1075
 1998TIP3    H127485   2.521   4.401  15.795 -1.1129  0.0151  0.8452
 1998TIP3    H227486   2.607   4.335  15.900  0.3631 -0.4702 -0.6280
 1999TIP3   OH227487   5.314   6.076   0.270  0.4500 -0.6894 -0.0643
 1999TIP3    H127488   5.225   6.047   0.250 -0.2451  1.3454 -0.1048
 1999TIP3    H227489   5.369   6.032   0.205 -0.7068 -0.8628 -0.9420
 2000TIP3   OH227490   5.810   1.806  15.649 -0.3554  0.4648 -0.1310
 2000TIP3    H127491   5.801   1.823  15.555 -1.2477  2.5618  0.2843
 2000TIP3    H227492   5.902   1.822  15.668 -0.1906  0.1280 -0.6188
 2001TIP3   OH227493   2.022   3.002  12.662 -0.1651  0.2645  0.3254
 2001TIP3    H127494   1.981   3.087  12.675 -0.4049  1.0175 -3.7704
 2001TIP3    H227495   2.108   3.010  12.702 -1.0918  1.4656  2.1929
 2002TIP3   OH227496   1.870   0.803   6.005 -0.0673 -0.5558  0.1624
 2002TIP3    H127497   1.946   0.751   5.979  1.1741  0.8944  0.7372
 2002TIP3    H227498   1.799   0.739   6.011  1.0521 -1.9433 -0.5138
 2003TIP3   OH227499   4.318   4.171   1.221  0.0757  0.0649 -0.1883
 2003TIP3    H127500   4.408   4.144   1.206  0.5286  0.5145  1.5702
 2003TIP3    H227501   4.274   4.153   1.138  1.7860 -0.0951 -1.1041
 2004TIP3   OH227502   4.358   5.669   2.180  0.5434 -0.8638  0.1637
 2004TIP3    H127503   4.387   5.578   2.187  0.8414 -0.9947 -1.9043
 2004TIP3    H227504   4.262   5.663   2.173  0.6638 -1.2520 -1.8915
 2005TIP3   OH227505   3.658   6.052  15.002  0.0653  0.7159 -0.3761
 2005TIP3    H127506   3.641   5.995  14.927 -0.4779 -0.1608  0.3917
 2005TIP3    H227507   3.689   5.992  15.070 -3.3816  0.7745  1.4679
 2006TIP3   OH227508   4.525   5.497   4.400 -0.5291  0.0103  0.0155
 2006TIP3    H127509   4.553   5.587   4.380 -2.1315  0.6504  0.5444
 2006TIP3    H227510   4.439   5.507   4.440  0.7612 -1.4784  3.5553
 2007TIP3   OH227511   5.108   2.547  16.446 -0.1800  0.0005  0.2679
 2007TIP3    H127512   5.042   2.499  16.496 -0.8699  1.0302  0.3631
 2007TIP3    H227513   5.126   2.625  16.498  0.7548 -0.0116 -0.0106
 2008TIP3   OH227514   1.217   1.216  13.467 -0.1936 -0.2151  0.1645
 2008TIP3    H127515   1.214   1.307  13.494 -0.7687 -0.1103 -0.2443
 2008TIP3    H227516   1.210   1.218  13.372 -1.4594 -0.7351  0.2262
 2009TIP3   OH227517   1.451   1.459  12.481  0.7799  0.8510  0.3273
 2009TIP3    H127518   1.375   1.450  12.538 -0.5737  0.9110 -1.3888
 2009TIP3    H227519   1.526   1.451  12.540 -0.4613 -2.2218  1.6861
 2010TIP3   OH227520   5.078   4.990   1.758 -0.1748 -0.2689  0.2125
 2010TIP3    H127521   5.063   4.948   1.673 -1.3015  0.4201  0.0447
 2010TIP3    H227522   5.110   4.920   1.814  0.7763 -0.6924 -0.8203
 2011TIP3   OH227523   0.886   0.031   1.924 -0.3679  0.2119 -0.2788
 2011TIP3    H127524   0.884   0.095   1.996  0.3221  0.3737 -0.3892
 2011TIP3    H227525   0.805  -0.018   1.932 -2.3603  2.9878 -1.9295
 2012TIP3   OH227526   2.994   6.189   3.885 -0.2634 -0.0690  0.6721
 2012TIP3    H127527   3.031   6.254   3.826 -1.3480  0.5553  0.6621
 2012TIP3    H227528   3.070   6.152   3.931  0.3526  1.3207  0.8149
 2013TIP3   OH227529   1.773   4.768  12.568  0.3512  0.8423  0.1463
 2013TIP3    H127530   1.733   4.846  12.529  0.4519  0.5572 -0.5474
 2013TIP3    H227531   1.864   4.771  12.537  0.5749  0.8833  0.7891
 2014TIP3   OH227532   5.125   4.545   0.594  0.8352 -0.4118 -0.2558
 2014TIP3    H127533   5.193   4.559   0.528  0.8438 -1.2297 -0.4271
 2014TIP3    H227534   5.171   4.553   0.677  1.3574 -1.9146 -0.3752
 2015TIP3   OH227535   1.659   6.572  16.648 -0.1363  0.1264 -0.2426
 2015TIP3    H127536   1.692   6.596  16.735 -0.7876  3.3523 -0.7494
 2015TIP3    H227537   1.564   6.581  16.656 -0.3664 -1.6050 -0.7716
 2016TIP3   OH227538   6.809   1.107  15.282  0.4112 -0.2524 -0.0634
 2016TIP3    H127539   6.903   1.109  15.265  0.6627 -1.4145  1.0128
 2016TIP3    H227540   6.781   1.198  15.276  2.0290  0.4261  1.8057
 2017TIP3   OH227541   6.385   0.197  13.076  0.4436  0.4150  0.5124
 2017TIP3    H127542   6.467   0.219  13.031  0.3206 -0.8462 -0.3927
 2017TIP3    H227543   6.411   0.136  13.145  0.3654  0.6527  0.7528
 2018TIP3   OH227544   1.171   5.289  13.312  0.3737 -0.2551  0.2318
 2018TIP3    H127545   1.229   5.311  13.239 -0.6988 -0.2407 -0.6386
 2018TIP3    H227546   1.144   5.199  13.295 -0.9703  0.2019 -0.1612
 2019TIP3   OH227547   1.595   3.769   0.040  0.2079 -0.4950 -0.5591
 2019TIP3    H127548   1.524   3.733  -0.012  0.0511 -1.1562  0.1089
 2019TIP3    H227549   1.566   3.858   0.061 -0.7985 -1.0294  0.4016
 2020TIP3   OH227550   4.003   2.998   2.836 -0.4907  0.2454  0.0648
 2020TIP3    H127551   4.005   3.091   2.814  0.0631 -0.1098 -1.5102
 2020TIP3    H227552   4.001   2.954   2.751 -0.6062 -1.1860  0.7894
 2021TIP3   OH227553   3.294   1.892  16.674 -0.9020 -0.6108 -0.2228
 2021TIP3    H127554   3.388   1.891  16.658 -1.0878  0.1012 -1.4533
 2021TIP3    H227555   3.265   1.803  16.652 -0.6449 -0.5822 -0.6880
 2022TIP3   OH227556   6.675   1.107   1.023 -0.1809  0.5329 -0.1963
 2022TIP3    H127557   6.740   1.053   0.978  1.7669  2.9463 -0.5087
 2022TIP3    H227558   6.607   1.124   0.957  1.3861  1.9555 -1.5317
 2023TIP3   OH227559   5.021   3.045   5.215 -0.0658  0.3566 -0.4057
 2023TIP3    H127560   5.059   2.978   5.271  0.0179  0.1350 -0.7230
 2023TIP3    H227561   5.028   3.126   5.266  1.0458  0.3676 -0.5473
 2024TIP3   OH227562   0.056   0.774   5.330  0.0819 -0.7777 -0.2298
 2024TIP3    H127563  -0.004   0.714   5.373 -0.9279  1.6070  2.0042
 2024TIP3    H227564   0.011   0.801   5.251 -1.0983 -0.2824  0.5849
 2025TIP3   OH227565   1.339   0.741  16.515  0.0925  0.5057  0.0640
 2025TIP3    H127566   1.341   0.823  16.563  2.9074  0.7634 -0.2761
 2025TIP3    H227567   1.422   0.698  16.537 -0.5806 -1.5044 -0.9996
 2026TIP3   OH227568   6.097   3.471  13.713  0.2318  0.6544 -0.4400
 2026TIP3    H127569   6.032   3.430  13.770 -0.1775  0.9244 -0.7095
 2026TIP3    H227570   6.121   3.551  13.758  2.3766 -0.6880  1.0001
 2027TIP3   OH227571   0.190   4.430  16.368  0.1561  0.1892  0.0292
 2027TIP3    H127572   0.149   4.485  16.302  0.2335 -0.9417 -0.9990
 2027TIP3    H227573   0.284   4.445  16.356  0.1666  0.0620 -0.0469
 2028TIP3   OH227574   3.383   4.160   0.099 -0.5318  0.2456  0.2775
 2028TIP3    H127575   3.430   4.210   0.032 -0.0629  0.3403  0.6732
 2028TIP3    H227576   3.332   4.225   0.147  1.0505  0.5722  1.6151
 2029TIP3   OH227577   0.101   6.510   5.425  0.1455  0.0195 -0.0877
 2029TIP3    H127578   0.007   6.529   5.423  0.0951 -0.2953 -0.6156
 2029TIP3    H227579   0.133   6.560   5.501 -0.7076 -1.1172  1.0640
 2030TIP3   OH227580   6.763   3.256  11.638 -0.7264 -0.1174  0.1534
 2030TIP3    H127581   6.693   3.283  11.698 -0.9938  0.9181 -0.5855
 2030TIP3    H227582   6.770   3.329  11.577  1.2404 -0.0533  0.4117
 2031TIP3   OH227583   4.663   0.287   4.663 -0.5577 -0.0015  0.4174
 2031TIP3    H127584   4.619   0.372   4.670 -1.5619 -0.1701 -2.3769
 2031TIP3    H227585   4.599   0.230   4.620  1.7935 -0.6167 -2.6394
 2032TIP3   OH227586   4.189   0.470   5.548 -0.7695 -0.2837  0.2870
 2032TIP3    H127587   4.180   0.410   5.474  1.2981 -0.9483  0.5128
 2032TIP3    H227588   4.271   0.517   5.530 -1.0904  0.7128  1.3481
 2033TIP3   OH227589   0.417   4.590  12.686 -0.7328  0.2954  0.0878
 2033TIP3    H127590   0.395   4.525  12.618 -1.2011 -0.3620  0.8435
 2033TIP3    H227591   0.372   4.558  12.764  1.2023  0.0832  1.1778
 2034TIP3   OH227592   1.069   5.383   3.116  0.5793  0.0313  0.0139
 2034TIP3    H127593   1.119   5.409   3.039  0.2973  0.4252 -0.0414
 2034TIP3    H227594   1.134   5.367   3.184  0.8899 -1.1144 -0.5294
 2035TIP3   OH227595   2.751   0.309  10.976  0.4641  0.1113 -0.4520
 2035TIP3    H127596   2.810   0.269  10.912  0.7483  1.0501 -0.7955
 2035TIP3    H227597   2.698   0.236  11.008  3.4092 -1.2966  1.6981
 2036TIP3   OH227598   1.573   5.143   0.979 -0.2467  0.3209  0.2189
 2036TIP3    H127599   1.576   5.049   0.962 -0.3771  0.4077 -0.3145
 2036TIP3    H227600   1.664   5.169   0.989 -0.0019  0.5667 -2.1630
 2037TIP3   OH227601   1.718   1.358   2.595 -0.3972 -0.1665  0.4691
 2037TIP3    H127602   1.741   1.331   2.506 -1.1359 -1.0884  0.5455
 2037TIP3    H227603   1.734   1.280   2.648  0.5531  0.5353  1.2476
 2038TIP3   OH227604   6.607   0.393   0.776  0.4773  0.8418  0.1148
 2038TIP3    H127605   6.522   0.368   0.812  1.3678  0.4347  2.0989
 2038TIP3    H227606   6.621   0.334   0.702 -0.7963  0.6943 -0.0308
 2039TIP3   OH227607   6.421   3.392   0.401  0.1599  0.3993  0.1449
 2039TIP3    H127608   6.361   3.345   0.343  0.7903 -0.5603  0.2636
 2039TIP3    H227609   6.502   3.342   0.398  0.2253  0.3580  1.8225
 2040TIP3   OH227610   5.271   6.838   5.493  0.1996 -0.1028  0.0917
 2040TIP3    H127611   5.238   6.916   5.449 -0.5926 -0.6255 -0.2585
 2040TIP3    H227612   5.217   6.767   5.459  2.2356 -1.1299 -1.1634
 2041TIP3   OH227613   6.146   0.517   5.155  0.2876 -0.3033 -0.0379
 2041TIP3    H127614   6.189   0.457   5.216  1.5692  2.0365  1.5063
 2041TIP3    H227615   6.076   0.558   5.206  1.0801  1.3481 -0.2251
 2042TIP3   OH227616   1.687   5.433   2.065  0.1084 -0.0600 -0.1896
 2042TIP3    H127617   1.603   5.416   2.023 -1.6405  0.4264  2.7978
 2042TIP3    H227618   1.671   5.508   2.122  1.9810 -1.1758  1.9978
 2043TIP3   OH227619   0.908   2.261  14.800 -0.4543 -0.0448 -0.3472
 2043TIP3    H127620   0.966   2.195  14.838 -0.2648  0.7059  0.7425
 2043TIP3    H227621   0.936   2.268  14.709  0.5780 -0.3541 -0.0735
 2044TIP3   OH227622   3.475   2.833  14.810  0.5171 -0.2716  0.1278
 2044TIP3    H127623   3.519   2.772  14.751  0.0201  1.0194 -1.6967
 2044TIP3    H227624   3.430   2.778  14.873  1.4611 -1.7204 -0.4140
 2045TIP3   OH227625   4.686   0.479  13.579 -0.2218 -0.0406  0.5776
 2045TIP3    H127626   4.750   0.413  13.552  0.0698  0.4470  0.0726
 2045TIP3    H227627   4.605   0.430  13.591  0.1697 -0.6145  0.9332
 2046TIP3   OH227628   2.122   0.392   2.141 -0.1282 -0.3631 -0.0225
 2046TIP3    H127629   2.194   0.419   2.084 -1.2400 -0.3896 -1.4983
 2046TIP3    H227630   2.078   0.473   2.165 -0.5276 -0.4637 -0.4040
 2047TIP3   OH227631   3.959   3.643  12.194 -0.6956  0.0142  0.0624
 2047TIP3    H127632   3.992   3.590  12.267  0.1406  0.2656 -0.1241
 2047TIP3    H227633   3.958   3.732  12.228  1.1594  0.3666 -0.6853
 2048TIP3   OH227634   3.275   3.734  11.162 -0.5596  0.1382 -0.2419
 2048TIP3    H127635   3.212   3.806  11.173  1.0333  1.5770 -0.0881
 2048TIP3    H227636   3.297   3.737  11.069 -1.9032 -1.4537 -0.6609
 2049TIP3   OH227637   6.452   3.731  15.071 -0.1602 -0.0039 -0.3860
 2049TIP3    H127638   6.364   3.699  15.091  0.5217 -1.2925  0.6600
 2049TIP3    H227639   6.503   3.652  15.053  1.3053  0.5516  1.1256
 2050TIP3   OH227640   5.402   4.865   4.671 -0.5881  0.3707  0.2515
 2050TIP3    H127641   5.357   4.910   4.600 -0.3307  0.9349  0.4437
 2050TIP3    H227642   5.336   4.805   4.706 -0.3090 -0.9906 -1.3813
 2051TIP3   OH227643   6.100   4.676   0.312 -0.1768 -0.5396  0.1487
 2051TIP3    H127644   6.176   4.697   0.368 -0.5652  0.0935  0.4391
 2051TIP3    H227645   6.028   4.664   0.374  0.0676 -3.0735  0.0517
 2052TIP3   OH227646   2.800   5.446   0.337 -0.2391  0.5090  0.3685
 2052TIP3    H127647   2.831   5.465   0.249 -0.6829  0.8094  0.2746
 2052TIP3    H227648   2.863   5.489   0.395  0.1369  0.1846  0.2046
 2053TIP3   OH227649   6.330   1.559   4.777 -0.2172  0.4743  0.5540
 2053TIP3    H127650   6.263   1.522   4.720 -0.5481 -0.7464  1.6890
 2053TIP3    H227651   6.282   1.593   4.852  0.1639  2.5643 -0.0901
 2054TIP3   OH227652   6.648   1.169   2.339  0.0784  0.0683  0.0839
 2054TIP3    H127653   6.634   1.077   2.318  1.9110 -0.4845  1.0838
 2054TIP3    H227654   6.633   1.175   2.433  0.8208  0.6140  0.1733
 2055TIP3   OH227655   6.501   4.704  12.605  0.2028 -0.1454 -0.1315
 2055TIP3    H127656   6.571   4.690  12.542  0.6250 -1.8921  0.6863
 2055TIP3    H227657   6.544   4.745  12.681  0.1008 -0.0955 -0.0993
 2056TIP3   OH227658   2.665   3.444   2.595 -0.0915  0.9992 -0.5998
 2056TIP3    H127659   2.636   3.476   2.510  3.5156  2.9349 -1.3102
 2056TIP3    H227660   2.634   3.509   2.658  0.3785  1.6091 -0.9852
 2057TIP3   OH227661   3.373   3.463  10.746 -0.3288 -0.2968  0.1989
 2057TIP3    H127662   3.301   3.483  10.806  0.8272  0.0609  1.5361
 2057TIP3    H227663   3.408   3.549  10.722  2.4734 -0.4202  3.2126
 2058TIP3   OH227664   4.580   2.095  14.430 -0.1822  0.2836  0.0899
 2058TIP3    H127665   4.523   2.069  14.503  0.3592  2.1164  1.2435
 2058TIP3    H227666   4.585   2.018  14.375 -3.2952 -0.1678  0.2507
 2059TIP3   OH227667   0.948   5.056   6.561 -0.7925 -0.5897 -0.4754
 2059TIP3    H127668   1.026   5.108   6.541 -0.4388 -1.7367 -2.2766
 2059TIP3    H227669   0.982   4.974   6.597 -1.2597 -0.4347  0.3499
 2060TIP3   OH227670   2.572   0.802  14.060  0.4310  1.0577 -0.1297
 2060TIP3    H127671   2.662   0.821  14.086  0.0791  3.2626 -0.2678
 2060TIP3    H227672   2.522   0.879  14.088 -1.1114  0.6298 -1.4935
 2061TIP3   OH227673   3.862   1.938  14.258  0.8855 -0.0107 -1.2955
 2061TIP3    H127674   3.804   1.925  14.182  0.5820 -1.8661 -0.7787
 2061TIP3    H227675   3.807   1.986  14.321  0.3250 -0.6078 -1.3161
 2062TIP3   OH227676   0.336   5.593   1.688 -0.2991  0.6983  0.4444
 2062TIP3    H127677   0.270   5.656   1.719 -0.5412  1.1772 -0.9677
 2062TIP3    H227678   0.292   5.546   1.617  0.0338 -0.7874  1.1804
 2063TIP3   OH227679   4.806   2.196  16.720 -0.5216 -0.1320 -0.2944
 2063TIP3    H127680   4.882   2.217  16.775  0.7226  0.6479 -2.1741
 2063TIP3    H227681   4.741   2.263  16.742  0.0664  0.3390  0.0510
 2064TIP3   OH227682   3.032   1.821   2.740  0.4500  0.1973  0.0698
 2064TIP3    H127683   2.955   1.845   2.792 -0.3928 -0.6907 -0.7263
 2064TIP3    H227684   3.021   1.868   2.658 -0.2273 -1.3191 -0.7578
 2065TIP3   OH227685   3.359   1.501  10.639  0.3236 -0.4458  0.7926
 2065TIP3    H127686   3.343   1.588  10.674 -1.6459  0.3380 -1.7202
 2065TIP3    H227687   3.453   1.486  10.651  1.0552  2.7155 -0.1064
 2066TIP3   OH227688   6.061   0.733   3.675 -0.0724  0.5764 -0.0999
 2066TIP3    H127689   6.106   0.792   3.614 -1.5425  1.5755 -0.2823
 2066TIP3    H227690   6.014   0.671   3.619  0.5982 -0.1037  0.0781
 2067TIP3   OH227691   4.737   1.676  12.176  0.3524 -0.5189 -0.0549
 2067TIP3    H127692   4.672   1.732  12.220 -0.5480 -1.0290 -0.6920
 2067TIP3    H227693   4.715   1.588  12.207  0.7316 -0.6974 -0.3006
 2068TIP3   OH227694   0.030   5.523   5.942 -0.0145 -0.1042  0.0530
 2068TIP3    H127695   0.009   5.582   5.870  2.4558  0.7380 -0.0786
 2068TIP3    H227696   0.015   5.436   5.907  0.6170  0.3097 -1.3343
 2069TIP3   OH227697   1.947   0.815  13.832 -0.5089  0.2661 -0.3086
 2069TIP3    H127698   1.894   0.840  13.756 -1.7068 -0.3240  0.2984
 2069TIP3    H227699   1.909   0.732  13.862  0.4299  0.0938  0.4785
 2070TIP3   OH227700   6.312   0.166  16.381  0.0619 -0.1153  0.1103
 2070TIP3    H127701   6.391   0.126  16.417  0.9317  0.0157 -1.5354
 2070TIP3    H227702   6.240   0.128  16.432  1.1958  0.1872  2.0220
 2071TIP3   OH227703   2.390   5.241  12.373  0.3657 -0.3583  0.5012
 2071TIP3    H127704   2.459   5.308  12.373 -0.7200  0.8005 -0.5688
 2071TIP3    H227705   2.435   5.160  12.349  1.3149  0.4467 -0.5440
 2072TIP3   OH227706   5.306   4.391  13.454 -0.3232 -0.5963 -0.4017
 2072TIP3    H127707   5.234   4.450  13.477 -0.2832 -0.8599  0.4322
 2072TIP3    H227708   5.366   4.446  13.404 -1.3613 -0.5163 -1.6129
 2073TIP3   OH227709   6.426   0.221   3.580  0.0625  0.3759 -0.5701
 2073TIP3    H127710   6.415   0.128   3.560 -1.1290  0.7902 -2.0368
 2073TIP3    H227711   6.418   0.227   3.675 -0.5434 -0.9340 -0.5244
 2074TIP3   OH227712   2.794   4.947   0.320 -0.5045 -0.1446  0.1570
 2074TIP3    H127713   2.701   4.949   0.301 -0.3836  2.5483 -0.5610
 2074TIP3    H227714   2.806   5.008   0.393  0.5563 -1.5386  1.2217
 2075TIP3   OH227715   1.881   0.922  11.280  0.3746 -0.2226  0.1397
 2075TIP3    H127716   1.807   0.975  11.310  0.3302 -0.1766 -0.0521
 2075TIP3    H227717   1.857   0.894  11.192  0.2731 -0.7968  0.3439
 2076TIP3   OH227718   5.324   2.328   3.957  0.5523  0.0693 -0.0166
 2076TIP3    H127719   5.288   2.366   4.037 -1.0451 -1.0093 -0.1909
 2076TIP3    H227720   5.417   2.350   3.960  0.0297  2.4836  0.7332
 2077TIP3   OH227721   3.314   3.987  16.473 -0.3485  0.5241  0.9384
 2077TIP3    H127722   3.253   3.948  16.410  0.7920 -1.5776  1.0274
 2077TIP3    H227723   3.287   4.078  16.480 -3.4563 -0.3006  0.9782
 2078TIP3   OH227724   4.566   1.962  12.206  0.2049  0.3763 -0.1719
 2078TIP3    H127725   4.520   1.898  12.151 -0.8031  0.3263  0.7049
 2078TIP3    H227726   4.550   1.932  12.295  1.5616  0.6326  0.1809
 2079TIP3   OH227727   5.087   6.250   1.624  0.2077 -0.7214  0.1501
 2079TIP3    H127728   5.135   6.225   1.703 -0.1381 -1.2313  0.2037
 2079TIP3    H227729   5.060   6.166   1.585  1.4060 -0.5369 -1.1601
 2080TIP3   OH227730   1.648   3.205   3.466  0.4610 -0.2315 -0.1211
 2080TIP3    H127731   1.561   3.225   3.500  0.2944 -0.4850 -0.3848
 2080TIP3    H227732   1.705   3.205   3.543  0.4520  1.1116 -0.1017
 2081TIP3   OH227733   3.549   2.456  12.398  1.0925  0.5674  0.3303
 2081TIP3    H127734   3.488   2.474  12.327 -0.1442 -0.8215  1.0017
 2081TIP3    H227735   3.611   2.393  12.361  0.0175 -0.7206  0.6636
 2082TIP3   OH227736   4.991   1.686   2.617  0.2278 -0.0002  0.0728
 2082TIP3    H127737   4.940   1.730   2.685  0.2530 -2.0247  1.5202
 2082TIP3    H227738   5.060   1.748   2.594  0.4790  0.6224  2.2549
 2083TIP3   OH227739   3.671   0.477  12.665  0.4101  0.2913 -0.1211
 2083TIP3    H127740   3.634   0.550  12.615 -1.6296 -0.5290  0.0924
 2083TIP3    H227741   3.636   0.488  12.753  1.1695 -0.2351  0.2591
 2084TIP3   OH227742   0.230   4.595  14.286 -0.2253 -0.5586  0.3465
 2084TIP3    H127743   0.166   4.588  14.216  0.1610  0.8253 -0.1916
 2084TIP3    H227744   0.273   4.510  14.289 -0.8697 -0.9237 -0.4887
 2085TIP3   OH227745   5.924   6.231   1.726 -0.1885 -0.2364 -0.5960
 2085TIP3    H127746   5.924   6.152   1.672  0.7846  0.1399 -1.1625
 2085TIP3    H227747   5.854   6.286   1.690 -0.2444 -0.4382 -0.7900
 2086TIP3   OH227748   6.447   4.387   1.056  0.0087 -0.0144  0.1966
 2086TIP3    H127749   6.459   4.390   0.961  0.3767 -1.1634  0.1925
 2086TIP3    H227750   6.533   4.363   1.090  0.2156  1.6509  0.9342
 2087TIP3   OH227751   3.767   5.053  12.939  0.1007  0.3532  0.4043
 2087TIP3    H127752   3.798   5.048  12.848 -0.7020  2.7192 -0.0535
 2087TIP3    H227753   3.813   4.981  12.983 -0.4097 -1.6796 -2.1034
 2088TIP3   OH227754   6.671   2.292   2.643  0.1887 -0.5030 -0.3582
 2088TIP3    H127755   6.657   2.279   2.736  1.7588  1.1493  0.1693
 2088TIP3    H227756   6.591   2.335   2.612  0.1060 -0.0272  0.4819
 2089TIP3   OH227757   4.023   2.044   0.633 -0.5975 -0.4478 -0.7698
 2089TIP3    H127758   3.961   2.058   0.560 -1.4256 -1.7921 -0.3769
 2089TIP3    H227759   4.093   1.991   0.594 -0.7119 -0.6153 -0.7511
 2090TIP3   OH227760   2.923   5.305   5.766  0.4373  0.4275  0.0591
 2090TIP3    H127761   2.955   5.321   5.677  2.2514  0.5783  0.7011
 2090TIP3    H227762   2.985   5.352   5.822  0.3351 -1.0957  1.4923
 2091TIP3   OH227763   4.407   6.520   2.287  0.2486  0.5776 -0.0778
 2091TIP3    H127764   4.325   6.508   2.336  0.1296  1.4357 -0.0552
 2091TIP3    H227765   4.476   6.510   2.353  0.1587  0.2142 -0.0317
 2092TIP3   OH227766   4.956   4.532   3.422 -0.5398  0.3755  0.3006
 2092TIP3    H127767   4.967   4.481   3.342  0.8093 -1.3208  1.4805
 2092TIP3    H227768   5.021   4.602   3.415  1.1937 -1.0880  0.8183
 2093TIP3   OH227769   3.951   3.241   3.090 -0.0027  0.1226 -0.7602
 2093TIP3    H127770   3.867   3.260   3.049  0.3764  0.4710 -1.3719
 2093TIP3    H227771   3.939   3.155   3.130 -1.0768  0.7376  0.3090
 2094TIP3   OH227772   0.190   6.457  15.401 -0.4111  0.2653  0.6017
 2094TIP3    H127773   0.106   6.434  15.441  0.5067  1.3718  3.4244
 2094TIP3    H227774   0.175   6.541  15.358 -1.7200 -1.4902 -2.7030
 2095TIP3   OH227775   3.530   4.614   4.792 -0.2278 -0.5936  0.6436
 2095TIP3    H127776   3.592   4.547   4.821  0.0743 -0.5256  0.1611
 2095TIP3    H227777   3.506   4.660   4.872  1.8709  0.6833  0.6302
 2096TIP3   OH227778   6.812   2.288  16.497 -0.2601  0.0326  0.9217
 2096TIP3    H127779   6.759   2.356  16.457  1.7870  0.6326 -0.9558
 2096TIP3    H227780   6.753   2.212  16.504 -1.5255  0.8306 -0.4900
 2097TIP3   OH227781   2.654   0.997  15.927 -0.9096  0.6024  0.0000
 2097TIP3    H127782   2.704   0.921  15.957 -0.5840  1.3951  1.6012
 2097TIP3    H227783   2.563   0.967  15.926 -0.9638  0.5544  2.0384
 2098TIP3   OH227784   5.727   6.668   1.427 -0.3824  0.0455 -0.6255
 2098TIP3    H127785   5.705   6.585   1.383 -1.8523 -0.2710  0.5960
 2098TIP3    H227786   5.644   6.716   1.429  0.1707  1.0022 -0.1772
 2099TIP3   OH227787   0.740   5.147  12.551 -0.4154 -0.1972  0.1106
 2099TIP3    H127788   0.676   5.140  12.622 -0.5587  0.6975  0.0808
 2099TIP3    H227789   0.688   5.139  12.471 -0.6304  1.2903  0.0675
 2100TIP3   OH227790   0.386   0.413  12.673  0.7291 -0.2364  0.4196
 2100TIP3    H127791   0.430   0.351  12.614 -0.3952 -1.3589  0.7031
 2100TIP3    H227792   0.294   0.408  12.648  0.6639  1.6813  0.1724
 2101TIP3   OH227793   4.123   0.179   3.258  0.9831 -0.3178  0.0398
 2101TIP3    H127794   4.067   0.113   3.299 -0.8275  0.6227 -0.7955
 2101TIP3    H227795   4.175   0.130   3.195  0.1890 -1.0590 -0.0641
 2102TIP3   OH227796   4.037   6.783  15.572 -0.4147 -0.0962 -0.0240
 2102TIP3    H127797   3.993   6.714  15.622 -1.5875 -1.6597 -2.9444
 2102TIP3    H227798   3.967   6.826  15.523  0.8783 -0.7389 -2.6345
 2103TIP3   OH227799   6.824   4.743  11.639  0.5114  0.1677  0.9945
 2103TIP3    H127800   6.833   4.653  11.670  0.3789 -0.7412 -1.4265
 2103TIP3    H227801   6.729   4.756  11.631  0.5684 -0.0713 -0.2056
 2104TIP3   OH227802   2.176   0.812  15.020  0.4116 -0.2669 -0.5989
 2104TIP3    H127803   2.096   0.838  15.065 -0.1294 -2.6603 -0.0262
 2104TIP3    H227804   2.160   0.835  14.928 -0.5741  0.0611 -0.3567
 2105TIP3   OH227805   1.501   2.473  10.934  0.0082 -0.3312  0.0624
 2105TIP3    H127806   1.415   2.499  10.900 -0.9772 -0.6288  2.1276
 2105TIP3    H227807   1.558   2.547  10.914 -1.4308  1.1326  1.0782
 2106TIP3   OH227808   1.077   6.589   1.251 -0.5744 -0.7846  0.1408
 2106TIP3    H127809   1.067   6.518   1.315 -1.7009  1.3443  2.5103
 2106TIP3    H227810   1.164   6.625   1.270 -0.8399 -0.2551  0.3497
 2107TIP3   OH227811   5.775   3.802   4.750 -0.4739 -0.2739  0.7066
 2107TIP3    H127812   5.687   3.794   4.714 -0.9734 -0.6037  1.9498
 2107TIP3    H227813   5.833   3.801   4.674 -1.6701  2.7814 -0.3472
 2108TIP3   OH227814   1.519   0.636   3.303  0.1115  0.1564  1.0625
 2108TIP3    H127815   1.481   0.562   3.256 -0.1579  0.0141  1.4980
 2108TIP3    H227816   1.483   0.713   3.260  2.3382  0.1339 -1.0640
 2109TIP3   OH227817   6.166   5.645  15.429  0.2592 -0.0724  0.1703
 2109TIP3    H127818   6.254   5.638  15.391 -0.7722  0.2689 -2.5046
 2109TIP3    H227819   6.151   5.739  15.436  0.5397 -0.1210  1.8499
 2110TIP3   OH227820   6.370   3.247  16.562 -0.3944 -0.0116  0.1542
 2110TIP3    H127821   6.383   3.340  16.578 -2.0418  0.4308 -0.8145
 2110TIP3    H227822   6.372   3.239  16.467  0.9518 -1.1853  0.2604
 2111TIP3   OH227823   1.127   0.843   0.411  0.0091 -0.1719  0.3436
 2111TIP3    H127824   1.141   0.884   0.497 -0.7649 -1.0090  0.8854
 2111TIP3    H227825   1.182   0.765   0.411 -1.8355 -1.5544  1.1079
 2112TIP3   OH227826   3.599   1.864   1.679  0.5248 -0.6843  0.1058
 2112TIP3    H127827   3.620   1.841   1.588  1.0764 -0.1245  0.0831
 2112TIP3    H227828   3.623   1.787   1.729  1.6272 -0.4623 -0.0561
 2113TIP3   OH227829   2.844   6.026   5.440 -0.2037  0.0671 -0.2224
 2113TIP3    H127830   2.898   5.976   5.378  0.1419  2.0626 -1.6215
 2113TIP3    H227831   2.755   6.016   5.408 -0.3060 -0.6326  0.2431
 2114TIP3   OH227832   0.128   2.843   1.434 -0.0505 -0.4998  0.5231
 2114TIP3    H127833   0.209   2.817   1.479 -0.2682  0.9131  1.8279
 2114TIP3    H227834   0.062   2.845   1.503 -0.9266 -0.4408 -0.3019
 2115TIP3   OH227835   1.541   5.928  16.918  0.0814 -0.2820  0.2169
 2115TIP3    H127836   1.519   5.969  17.002  1.0645 -1.7802  1.2543
 2115TIP3    H227837   1.635   5.944  16.907  0.4551 -2.0281  0.5627
 2116TIP3   OH227838   3.488   4.737  12.630 -0.1225 -0.5958  0.0283
 2116TIP3    H127839   3.429   4.690  12.689 -1.5101  0.5998 -0.3219
 2116TIP3    H227840   3.449   4.824  12.622  2.3828  0.6886  0.7322
 2117TIP3   OH227841   1.400   6.777   0.747 -0.6051 -0.2932  0.7596
 2117TIP3    H127842   1.347   6.731   0.812  1.0825 -1.7485  1.2063
 2117TIP3    H227843   1.424   6.710   0.683 -0.4284  0.6345 -0.1853
 2118TIP3   OH227844   6.612   4.905   3.761 -0.2062  0.1927  0.2661
 2118TIP3    H127845   6.518   4.915   3.746  0.1112  1.1786 -1.2507
 2118TIP3    H227846   6.646   4.870   3.678  1.1117  2.2621 -0.1256
 2119TIP3   OH227847   3.748   1.128  15.215 -0.3446 -0.0729 -0.1791
 2119TIP3    H127848   3.692   1.202  15.190  0.7847  0.3256 -1.6578
 2119TIP3    H227849   3.837   1.161  15.202  0.2006 -1.3691  0.1637
 2120TIP3   OH227850   1.813   4.903  16.880  0.4886  0.3692 -0.2570
 2120TIP3    H127851   1.829   4.829  16.821  2.7244  1.4124 -1.1016
 2120TIP3    H227852   1.847   4.875  16.964  1.3728  0.3968 -0.5863
 2121TIP3   OH227853   4.073   5.710  16.824 -0.2303 -0.1834 -0.6608
 2121TIP3    H127854   4.164   5.683  16.834  0.0719  0.8796 -0.3567
 2121TIP3    H227855   4.078   5.796  16.782 -0.9569  0.8968  1.3261
 2122TIP3   OH227856   6.016   2.490  15.568 -0.0965 -0.5839 -0.1251
 2122TIP3    H127857   6.091   2.437  15.593  1.6267  1.3691 -0.8590
 2122TIP3    H227858   5.980   2.521  15.652 -0.0850 -1.5286  0.2341
 2123TIP3   OH227859   0.799   1.388  11.882  0.4079  0.1626 -0.0171
 2123TIP3    H127860   0.876   1.393  11.940  2.0212 -1.0491 -1.9200
 2123TIP3    H227861   0.754   1.308  11.909  0.3235  0.3947  0.5315
 2124TIP3   OH227862   1.188   6.193  11.705  0.0990  0.3127  0.0032
 2124TIP3    H127863   1.274   6.207  11.745 -0.0885  2.6306 -0.2522
 2124TIP3    H227864   1.203   6.125  11.640  1.4855 -0.1046  0.7153
 2125TIP3   OH227865   4.392   3.406   3.458  0.0697 -0.0869 -0.0722
 2125TIP3    H127866   4.480   3.368   3.465  0.0237 -0.0450  0.9641
 2125TIP3    H227867   4.402   3.494   3.495 -0.2563  0.1936 -0.6387
 2126TIP3   OH227868   3.385   3.613  14.206  0.1393  0.8010  0.7206
 2126TIP3    H127869   3.389   3.670  14.129 -0.8736  2.5853  1.9047
 2126TIP3    H227870   3.476   3.600  14.231  0.4480  0.7648 -0.3863
 2127TIP3   OH227871   2.149   1.755  13.253  0.5574 -0.3626  0.1703
 2127TIP3    H127872   2.109   1.743  13.167  1.3356 -0.5002 -0.1880
 2127TIP3    H227873   2.244   1.753  13.236  0.7293 -1.0831  1.1180
 2128TIP3   OH227874   4.753   2.895   4.999 -0.9388 -0.0617 -0.6647
 2128TIP3    H127875   4.832   2.843   5.016 -0.8248  0.5107  0.6230
 2128TIP3    H227876   4.783   2.986   4.998 -1.1992  0.0571 -2.5769
 2129TIP3   OH227877   5.056   0.870   0.219  0.5080 -0.2506  0.3384
 2129TIP3    H127878   4.994   0.934   0.255  0.8301  0.0980  0.2791
 2129TIP3    H227879   5.141   0.916   0.219  0.7835 -0.7583  0.5138
 2130TIP3   OH227880   3.826   3.320  12.674  0.1359  0.3815  0.0722
 2130TIP3    H127881   3.887   3.248  12.693  1.5747  0.7630 -2.6081
 2130TIP3    H227882   3.859   3.394  12.725  1.9783  0.5537 -1.2542
 2131TIP3   OH227883   1.565   3.421   1.230  0.4649  0.1942  0.0344
 2131TIP3    H127884   1.575   3.454   1.319  1.9290  1.0447 -0.4128
 2131TIP3    H227885   1.653   3.390   1.206 -0.1071 -0.8303 -0.8007
 2132TIP3   OH227886   0.023   3.192   3.793 -0.6607 -0.1089  0.2057
 2132TIP3    H127887  -0.034   3.117   3.809  1.0884 -1.1538  2.2069
 2132TIP3    H227888   0.004   3.252   3.865  0.5144 -0.3877  0.7934
 2133TIP3   OH227889   1.362   3.598   3.346 -0.0225 -0.3941 -0.2521
 2133TIP3    H127890   1.350   3.571   3.437  0.4171  0.1538 -0.0237
 2133TIP3    H227891   1.455   3.583   3.329  0.1701  0.6907 -0.2074
 2134TIP3   OH227892   0.801   3.524   2.497  0.2061 -0.4594  0.0840
 2134TIP3    H127893   0.871   3.588   2.482  0.1141 -0.6120 -1.0697
 2134TIP3    H227894   0.812   3.460   2.427 -1.7336  0.0738 -0.7624
 2135TIP3   OH227895   6.240   0.641   0.942 -0.4011  0.1326 -0.2926
 2135TIP3    H127896   6.206   0.717   0.896  0.6307  0.4111 -0.6233
 2135TIP3    H227897   6.173   0.573   0.929 -1.3253  0.9623  0.0050
 2136TIP3   OH227898   6.720   4.481  15.214 -0.6712 -0.5961  0.0774
 2136TIP3    H127899   6.705   4.452  15.125 -0.3714  0.7399 -0.4351
 2136TIP3    H227900   6.779   4.556  15.205  0.4556 -1.2552  1.4969
 2137TIP3   OH227901   0.206   5.946  12.282  0.2692  0.1277 -0.5023
 2137TIP3    H127902   0.297   5.966  12.262  0.0963  0.2431 -1.2104
 2137TIP3    H227903   0.162   6.032  12.283  0.0243  0.0120 -0.9420
 2138TIP3   OH227904   1.506   0.205   5.479 -0.3939 -0.3908 -0.3427
 2138TIP3    H127905   1.419   0.227   5.447 -0.8225 -1.1056  0.2893
 2138TIP3    H227906   1.500   0.215   5.574  0.5987  0.8262 -0.3788
 2139TIP3   OH227907   6.212   0.349   5.350 -0.1935  0.1445  0.1012
 2139TIP3    H127908   6.260   0.390   5.421  1.0486  0.3143 -0.8025
 2139TIP3    H227909   6.269   0.277   5.321 -0.9113 -0.2413 -0.3824
 2140TIP3   OH227910   5.917   2.928   5.288 -0.2889 -0.0448 -0.0725
 2140TIP3    H127911   5.955   2.951   5.373 -0.5287 -0.5257  0.1704
 2140TIP3    H227912   5.841   2.875   5.310  0.4009 -1.3090 -0.6135
 2141TIP3   OH227913   2.116   2.585  12.492  0.1244  0.0239 -0.0158
 2141TIP3    H127914   2.149   2.543  12.571  1.4567  1.3501  0.1686
 2141TIP3    H227915   2.186   2.644  12.465 -0.8204  0.5263 -1.4755
 2142TIP3   OH227916   3.040   4.932   2.749 -0.3277 -0.0101 -1.0195
 2142TIP3    H127917   3.050   4.901   2.839  1.0834  2.6440 -0.1550
 2142TIP3    H227918   2.952   4.969   2.746  0.4158  2.0498  0.1127
 2143TIP3   OH227919   5.461   3.002  15.811 -0.5683  0.3653 -0.2670
 2143TIP3    H127920   5.449   2.912  15.780  0.4170  0.3151 -0.5466
 2143TIP3    H227921   5.539   2.997  15.866 -0.5479  1.0429 -0.2311
 2144TIP3   OH227922   5.804   2.874  16.334 -0.4829  0.3883 -0.6739
 2144TIP3    H127923   5.737   2.923  16.382  0.6908  0.4883  0.9327
 2144TIP3    H227924   5.862   2.941  16.297  0.0450  0.2617 -0.0866
 2145TIP3   OH227925   1.289   0.573   3.672 -0.2937  0.2795 -0.4054
 2145TIP3    H127926   1.300   0.503   3.607 -0.3090  0.5484 -0.6952
 2145TIP3    H227927   1.356   0.638   3.650  1.3957 -0.7460  1.3462
 2146TIP3   OH227928   0.845   4.070  15.029 -0.4646 -0.1232 -0.4725
 2146TIP3    H127929   0.847   4.163  15.007  1.1408  0.0213  0.1479
 2146TIP3    H227930   0.931   4.052  15.068 -1.8752 -1.0868  2.5420
 2147TIP3   OH227931   4.512   5.380   0.989  0.3099 -0.1251 -0.3268
 2147TIP3    H127932   4.574   5.319   0.950  0.6908 -1.7228  2.5383
 2147TIP3    H227933   4.427   5.336   0.982  0.1423  0.2329 -0.5996
 2148TIP3   OH227934   4.263   1.568   2.309  0.1892  0.3795  0.1092
 2148TIP3    H127935   4.177   1.608   2.302  1.0786  2.3543 -0.2398
 2148TIP3    H227936   4.266   1.506   2.237 -0.2901  1.6541 -1.0629
 2149TIP3   OH227937   1.705   3.924   6.460  0.1027 -0.0916  0.1301
 2149TIP3    H127938   1.678   3.949   6.372 -1.6385  3.2633  1.4779
 2149TIP3    H227939   1.728   3.831   6.452  3.4623  0.7890 -4.5705
 2150TIP3   OH227940   4.482   2.712  11.969  0.0957  0.1457  0.5696
 2150TIP3    H127941   4.573   2.682  11.961 -0.2432 -1.0381  0.8750
 2150TIP3    H227942   4.431   2.631  11.978 -1.1612  0.7049 -1.0130
 2151TIP3   OH227943   3.600   1.630   0.770 -0.5614 -0.4381  0.2452
 2151TIP3    H127944   3.555   1.574   0.707 -0.5635  0.2659 -0.4028
 2151TIP3    H227945   3.595   1.718   0.731 -1.4597  0.1980  1.7035
 2152TIP3   OH227946   4.856   6.416  13.574  0.0538 -0.3272 -0.0990
 2152TIP3    H127947   4.837   6.510  13.580  0.7753 -0.1387 -0.6114
 2152TIP3    H227948   4.907   6.397  13.653  0.4172 -0.1575 -0.2922
 2153TIP3   OH227949   2.901   3.616  15.115 -0.2101  0.1482 -0.5706
 2153TIP3    H127950   2.817   3.621  15.162 -0.3457 -1.2657 -0.6322
 2153TIP3    H227951   2.919   3.523  15.107  1.6104  0.4269 -0.1586
 2154TIP3   OH227952   2.824   6.196   1.417  0.3226  0.2905  0.8004
 2154TIP3    H127953   2.749   6.230   1.466 -0.4238 -0.7355  0.4005
 2154TIP3    H227954   2.796   6.109   1.388  1.8708 -0.3334  1.1039
 2155TIP3   OH227955   4.879   2.305   5.565  0.5277  0.3101  0.1535
 2155TIP3    H127956   4.873   2.304   5.470  2.4251  1.3101 -0.0323
 2155TIP3    H227957   4.872   2.398   5.588  1.4248  0.2164  0.8586
 2156TIP3   OH227958   4.303   0.826   4.387  0.2471  0.1680 -0.1269
 2156TIP3    H127959   4.258   0.829   4.303  0.2912  0.3554 -0.1434
 2156TIP3    H227960   4.241   0.783   4.447  0.1547  0.1807 -0.2149
 2157TIP3   OH227961   0.308   4.243   4.260 -0.1483 -0.2149  0.4677
 2157TIP3    H127962   0.309   4.194   4.177  0.2343 -0.0993  0.4039
 2157TIP3    H227963   0.396   4.281   4.267 -0.7906  1.4402 -0.0557
 2158TIP3   OH227964   4.039   2.211   3.682  0.0865 -0.1575 -0.5687
 2158TIP3    H127965   3.972   2.143   3.674  0.5659 -0.6971 -0.0982
 2158TIP3    H227966   4.087   2.207   3.600 -0.8389  0.6613 -1.1726
 2159TIP3   OH227967   0.741   0.868  12.910 -0.0751  0.4872 -0.3112
 2159TIP3    H127968   0.766   0.936  12.973 -1.1718 -0.0348  0.7310
 2159TIP3    H227969   0.646   0.864  12.916 -0.1456 -0.0071 -1.5760
 2160TIP3   OH227970   5.330   4.074   2.669  0.4771 -0.2882  0.3783
 2160TIP3    H127971   5.360   4.035   2.751 -0.9525 -2.7503 -0.1675
 2160TIP3    H227972   5.260   4.133   2.695  1.8913  1.1228  1.1304
 2161TIP3   OH227973   3.887   0.930  17.123 -0.0322 -0.2895 -0.7313
 2161TIP3    H127974   3.844   1.001  17.075  0.3609 -1.5733 -3.1128
 2161TIP3    H227975   3.980   0.951  17.118  0.0121 -0.4459 -0.5422
 2162TIP3   OH227976   5.651   3.093  12.262 -0.4698 -0.1804 -0.0083
 2162TIP3    H127977   5.666   3.076  12.355  0.5463  2.1897  0.3403
 2162TIP3    H227978   5.737   3.120  12.228 -1.3703  1.7050 -0.9512
 2163TIP3   OH227979   2.860   4.211  14.921 -1.0227  0.2580  0.0793
 2163TIP3    H127980   2.909   4.155  14.861 -2.0669  0.2236 -0.7647
 2163TIP3    H227981   2.919   4.223  14.996  0.9085  1.4935 -1.5337
 2164TIP3   OH227982   4.291   2.359   5.113  0.6129 -0.3294  0.6542
 2164TIP3    H127983   4.200   2.332   5.124  0.4380  0.7957  2.3388
 2164TIP3    H227984   4.328   2.357   5.201  2.3078 -0.9557 -0.0240
 2165TIP3   OH227985   6.046   2.071  15.682 -0.1184  0.4883  0.0033
 2165TIP3    H127986   5.977   2.076  15.616 -0.0248  0.0563 -0.1308
 2165TIP3    H227987   6.009   2.017  15.751 -0.0779  0.6304  0.1373
 2166TIP3   OH227988   4.357   0.558  13.238 -0.5154  0.3279  0.0920
 2166TIP3    H127989   4.397   0.555  13.151 -0.2145  1.2069  0.1817
 2166TIP3    H227990   4.426   0.594  13.294 -0.2649 -1.4535  0.9684
 2167TIP3   OH227991   4.750   0.187  15.356 -0.6171 -0.2270  0.1086
 2167TIP3    H127992   4.829   0.197  15.408 -0.4930 -1.8150  0.2600
 2167TIP3    H227993   4.685   0.152  15.416 -0.8330 -0.8935 -0.4938
 2168TIP3   OH227994   0.415   5.946  13.125  0.5384 -0.5023 -0.2372
 2168TIP3    H127995   0.389   5.959  13.034  0.8253  1.1754 -0.1138
 2168TIP3    H227996   0.464   6.025  13.147 -0.4764 -0.3520  1.7114
 2169TIP3   OH227997   5.438   4.674   2.826  0.2392  0.2879 -0.1852
 2169TIP3    H127998   5.388   4.744   2.785  0.2527  1.0415  1.0524
 2169TIP3    H227999   5.495   4.718   2.889  3.1520 -0.4140 -2.0931
 2170TIP3   OH228000   0.126   4.922   4.366  0.1038 -0.1486  0.3721
 2170TIP3    H128001   0.161   4.857   4.427 -0.8462  0.3135  1.4533
 2170TIP3    H228002   0.044   4.883   4.335  0.0160  0.1047  0.2831
 2171TIP3   OH228003   3.520   5.311   6.052 -0.3006  0.3165 -0.4237
 2171TIP3    H128004   3.481   5.251   5.989 -0.1383 -0.6360  0.3606
 2171TIP3    H228005   3.614   5.295   6.046 -0.3370 -0.4540  0.6927
 2172TIP3   OH228006   1.622   2.097   4.257  0.1944 -0.2501  0.6545
 2172TIP3    H128007   1.554   2.044   4.217 -0.0484  1.1162 -0.8560
 2172TIP3    H228008   1.703   2.050   4.240  0.1742  0.5537 -2.1023
 2173TIP3   OH228009   1.059   2.395   1.354  0.2378 -0.1342  0.1595
 2173TIP3    H128010   1.118   2.446   1.410  1.3144 -0.5301 -0.5785
 2173TIP3    H228011   1.019   2.331   1.414  0.1929  0.4400  0.7570
 2174TIP3   OH228012   3.321   2.273  11.837 -0.2440 -0.1827  0.2295
 2174TIP3    H128013   3.342   2.256  11.929 -0.5191  0.8630  0.5010
 2174TIP3    H228014   3.233   2.311  11.839  0.3020  1.2014 -0.3033
 2175TIP3   OH228015   0.955   5.556  11.579  0.3782 -0.1153 -0.4462
 2175TIP3    H128016   1.030   5.598  11.622 -1.4308  0.0269  2.8795
 2175TIP3    H228017   0.924   5.621  11.516  0.8245  1.3899  0.8239
 2176TIP3   OH228018   5.311   3.939   2.419  0.2342  0.2433 -0.0973
 2176TIP3    H128019   5.328   4.006   2.354  0.1894  1.5063  1.1426
 2176TIP3    H228020   5.309   3.986   2.502  1.1608 -1.4435  0.9316
 2177TIP3   OH228021   5.361   1.824  15.883 -0.6270  0.1625  0.6530
 2177TIP3    H128022   5.447   1.864  15.869 -0.6823 -0.0626 -0.4355
 2177TIP3    H228023   5.301   1.898  15.889 -0.7024  0.2997 -1.1554
 2178TIP3   OH228024   6.498   0.890  11.580 -0.2912  0.3053 -0.4579
 2178TIP3    H128025   6.410   0.916  11.606 -0.9210 -0.7915 -1.4239
 2178TIP3    H228026   6.500   0.796  11.595  0.7394  0.3213 -0.4258
 2179TIP3   OH228027   3.188   0.833   3.916  0.3757 -0.0983 -0.0280
 2179TIP3    H128028   3.236   0.769   3.864  0.0711 -1.0583  0.8372
 2179TIP3    H228029   3.095   0.815   3.898  0.2725 -0.3275  0.7046
 2180TIP3   OH228030   4.011   4.895   3.652 -0.1845 -0.2773  0.4102
 2180TIP3    H128031   4.020   4.984   3.687  2.0709 -0.2148 -0.1664
 2180TIP3    H228032   4.100   4.869   3.630 -1.1265 -1.4601 -2.4719
 2181TIP3   OH228033   6.326   5.899  16.161 -0.8819  0.1244 -0.0889
 2181TIP3    H128034   6.404   5.941  16.124 -1.4604  0.3142 -1.1262
 2181TIP3    H228035   6.259   5.968  16.161 -1.4835 -0.4374 -0.6596
 2182TIP3   OH228036   1.769   6.619   2.373  0.8223 -0.0935  0.3189
 2182TIP3    H128037   1.842   6.609   2.312 -0.0458 -2.2115 -0.4628
 2182TIP3    H228038   1.761   6.534   2.416 -1.6280 -0.2061 -0.1779
 2183TIP3   OH228039   6.084   0.656   2.680  0.1306 -0.0908  0.5164
 2183TIP3    H128040   6.093   0.715   2.755  1.2974  0.2977  0.0892
 2183TIP3    H228041   6.090   0.568   2.718  2.2641  0.0988  0.7594
 2184TIP3   OH228042   0.752   4.979  12.912  0.1328 -0.0852  0.3582
 2184TIP3    H128043   0.693   4.904  12.915  0.8716 -0.6891  0.2538
 2184TIP3    H228044   0.804   4.964  12.833 -0.8377  1.4174 -0.6067
 2185TIP3   OH228045   4.619   4.221   0.866  0.4518  0.0118  0.2107
 2185TIP3    H128046   4.548   4.224   0.801  1.1240  0.3770 -0.5246
 2185TIP3    H228047   4.575   4.200   0.948 -0.6937  1.4573  0.0138
 2186TIP3   OH228048   4.565   4.371   2.623 -0.3931 -0.3413 -0.4050
 2186TIP3    H128049   4.541   4.308   2.691 -0.7354  0.4805  0.2528
 2186TIP3    H228050   4.542   4.328   2.541 -1.7933 -0.5778  0.0842
 2187TIP3   OH228051   3.915   4.502   1.382  0.2038 -0.1073  0.2367
 2187TIP3    H128052   3.857   4.575   1.404 -0.0200 -0.7549  1.9493
 2187TIP3    H228053   3.994   4.517   1.433  1.6845  0.8045 -2.1369
 2188TIP3   OH228054   4.131   2.026  14.479 -0.2873 -0.1467 -0.1075
 2188TIP3    H128055   4.076   2.084  14.532 -0.9923  0.0800 -1.0640
 2188TIP3    H228056   4.219   2.035  14.517 -0.6548  0.4862  0.6215
 2189TIP3   OH228057   0.020   3.837  14.574 -0.1081  0.1256 -0.1335
 2189TIP3    H128058   0.063   3.814  14.656 -0.7516 -0.5281  0.0371
 2189TIP3    H228059   0.051   3.771  14.512 -0.6283 -0.1783 -0.0803
 2190TIP3   OH228060   5.808   2.270   2.419  0.3680  0.3841  0.1968
 2190TIP3    H128061   5.885   2.266   2.476  1.0875  1.1165 -0.6848
 2190TIP3    H228062   5.823   2.201   2.355 -0.0212  0.1109  0.4042
 2191TIP3   OH228063   1.376   2.571   2.776 -0.0466  0.5048 -0.2456
 2191TIP3    H128064   1.470   2.565   2.791  0.1543  1.1219 -1.1418
 2191TIP3    H228065   1.367   2.645   2.716 -1.1983  1.1004  0.6331
 2192TIP3   OH228066   2.270   4.572   5.583 -0.6255  0.4125  0.7634
 2192TIP3    H128067   2.356   4.566   5.624  0.3434 -1.5814 -1.3277
 2192TIP3    H228068   2.208   4.558   5.654  0.7487  1.6456  2.2786
 2193TIP3   OH228069   0.920   3.501  16.422 -0.2180  0.2569  0.2395
 2193TIP3    H128070   0.830   3.468  16.423  0.0288 -0.6030  2.9603
 2193TIP3    H228071   0.911   3.596  16.423 -1.1256  0.1780  0.7997
 2194TIP3   OH228072   6.018   4.927  13.658 -0.0092 -0.0048  0.0515
 2194TIP3    H128073   6.047   4.995  13.718 -2.1209 -0.1475  1.3246
 2194TIP3    H228074   6.067   4.849  13.685 -2.1027 -0.5006  2.8236
 2195TIP3   OH228075   1.199   3.581  12.996  0.1200  0.0858 -0.1718
 2195TIP3    H128076   1.173   3.597  13.087 -1.3163 -2.4766 -0.0541
 2195TIP3    H228077   1.165   3.657  12.948  2.5489  2.4882  1.5706
 2196TIP3   OH228078   6.480   6.686   0.284 -0.3061  0.2819 -0.0009
 2196TIP3    H128079   6.497   6.628   0.358  0.7823 -2.6428 -2.3755
 2196TIP3    H228080   6.384   6.692   0.281 -0.4789 -1.6409  0.1944
 2197TIP3   OH228081   2.196   1.178   0.829  0.5492 -0.3465  0.3363
 2197TIP3    H128082   2.257   1.251   0.839 -0.1487  0.2121  0.5550
 2197TIP3    H228083   2.252   1.100   0.827  1.4223  0.2603 -1.1494
 2198TIP3   OH228084   6.270   5.104  16.089 -0.3506 -0.3801 -0.0443
 2198TIP3    H128085   6.299   5.108  16.180 -2.4009 -0.2779  0.6578
 2198TIP3    H228086   6.176   5.089  16.095 -0.5502 -0.2126 -2.1612
 2199TIP3   OH228087   5.826   2.173   3.465  0.3110  0.3221 -0.0896
 2199TIP3    H128088   5.882   2.224   3.407  3.0037  0.8539  2.7014
 2199TIP3    H228089   5.879   2.096   3.488 -1.4952 -0.9409  0.0486
 2200TIP3   OH228090   1.551   1.081   4.020 -0.5077 -0.4812  0.6380
 2200TIP3    H128091   1.599   1.002   3.993 -0.0759 -0.3921  1.1157
 2200TIP3    H228092   1.504   1.054   4.099 -2.4110 -0.9716 -0.6057
 2201TIP3   OH228093   2.508   2.454   5.627 -0.0048  0.2338 -0.1203
 2201TIP3    H128094   2.520   2.472   5.534 -1.7142 -0.6810 -0.5615
 2201TIP3    H228095   2.572   2.386   5.646  0.7264  0.7992 -0.4681
 2202TIP3   OH228096   5.659   4.289  11.568 -0.4350 -1.0983  0.7600
 2202TIP3    H128097   5.611   4.370  11.549 -1.6599 -1.9154  0.1690
 2202TIP3    H228098   5.598   4.219  11.543  0.6406 -2.2066  1.1185
 2203TIP3   OH228099   4.710   5.586  11.320 -0.1667 -0.1713 -0.6248
 2203TIP3    H128100   4.715   5.678  11.296  0.0514  0.4411  1.5590
 2203TIP3    H228101   4.780   5.544  11.271  1.4059  1.3071  0.2447
 2204TIP3   OH228102   5.262   2.094   1.101 -0.4413  0.0602 -0.1212
 2204TIP3    H128103   5.271   2.177   1.053  0.3234 -0.8380 -1.6128
 2204TIP3    H228104   5.265   2.027   1.032 -1.1990 -1.2015  1.0400
 2205TIP3   OH228105   5.250   4.988  16.623  0.4384 -0.3629 -0.4347
 2205TIP3    H128106   5.327   4.946  16.585  1.0757 -0.6834  1.1080
 2205TIP3    H228107   5.255   5.079  16.596  2.6059  0.1352  1.3700
 2206TIP3   OH228108   2.619   3.181   3.116  0.2034 -0.4925 -0.2136
 2206TIP3    H128109   2.681   3.242   3.076 -0.3754  0.1887 -0.1069
 2206TIP3    H228110   2.647   3.095   3.086  0.1194 -0.0498 -1.6419
 2207TIP3   OH228111   1.854   2.953   6.295 -0.0083  0.2833  0.1946
 2207TIP3    H128112   1.903   2.875   6.322 -0.5787 -0.1204  0.1013
 2207TIP3    H228113   1.826   2.934   6.205  3.0823  2.2142 -1.3241
 2208TIP3   OH228114   3.247   4.871  11.320  0.0009 -0.1889  0.2207
 2208TIP3    H128115   3.244   4.776  11.309 -0.2926 -0.0842 -0.6696
 2208TIP3    H228116   3.155   4.898  11.319  0.0906  0.1225  0.2978
 2209TIP3   OH228117   4.228   4.688   2.268 -0.0124  0.0224  0.3533
 2209TIP3    H128118   4.269   4.774   2.281  0.2319 -0.1385  0.6542
 2209TIP3    H228119   4.137   4.708   2.249  0.4219  0.4494 -1.4840
 2210TIP3   OH228120   3.223   1.052   0.316  0.3263  0.1010 -0.4884
 2210TIP3    H128121   3.160   1.010   0.374 -1.4378  1.3477 -1.4300
 2210TIP3    H228122   3.267   1.117   0.371  1.3123 -1.1986  0.3299
 2211TIP3   OH228123   2.193   1.903   1.933  0.7262  0.7028 -0.0505
 2211TIP3    H128124   2.271   1.858   1.901 -2.1864 -3.1050 -2.7138
 2211TIP3    H228125   2.166   1.852   2.010 -0.1661  0.6485 -0.3840
 2212TIP3   OH228126   0.262   1.827  17.078  0.1765 -0.1211 -0.4489
 2212TIP3    H128127   0.280   1.744  17.122 -0.3246 -0.1013 -0.1945
 2212TIP3    H228128   0.173   1.818  17.045 -0.2040  0.6227  0.3199
 2213TIP3   OH228129   6.185   0.305  16.691 -0.0077  0.3693 -0.5754
 2213TIP3    H128130   6.235   0.240  16.740  0.2335  0.2030 -1.0422
 2213TIP3    H228131   6.242   0.381  16.686  0.7651 -0.2755 -2.2695
 2214TIP3   OH228132   3.102   0.510  13.413 -0.1170  0.1108 -0.5390
 2214TIP3    H128133   3.109   0.448  13.486 -1.4926  1.4833  0.8146
 2214TIP3    H228134   3.180   0.565  13.420  1.4254 -1.6821 -2.0936
 2215TIP3   OH228135   4.019   5.395   3.919  0.7098 -0.5886  0.5203
 2215TIP3    H128136   3.947   5.455   3.899 -1.5457 -2.6344  1.8980
 2215TIP3    H228137   4.097   5.440   3.887 -1.1834  1.5636 -1.4889
 2216TIP3   OH228138   6.154   5.373  12.545 -0.1306  0.1624  0.0717
 2216TIP3    H128139   6.176   5.427  12.468  1.6732  1.0352  1.1287
 2216TIP3    H228140   6.077   5.323  12.518 -0.9533  2.1243 -1.5059
 2217TIP3   OH228141   3.314   3.195  17.057 -0.2941  0.0891 -0.4668
 2217TIP3    H128142   3.247   3.231  17.115  0.2529  1.0280 -0.3903
 2217TIP3    H228143   3.300   3.240  16.974 -0.4709 -0.5453 -0.7828
 2218TIP3   OH228144   1.778   2.121  10.640 -0.0442 -0.3144 -0.3537
 2218TIP3    H128145   1.796   2.201  10.591  0.7327 -0.2252  0.0685
 2218TIP3    H228146   1.686   2.103  10.622  0.1505 -0.1201 -1.5966
 2219TIP3   OH228147   3.919   5.043   1.558 -0.4480  0.7753 -0.1470
 2219TIP3    H128148   4.015   5.047   1.560 -0.1110 -3.0027 -0.9421
 2219TIP3    H228149   3.894   5.027   1.649 -0.2102  0.6784 -0.0972
 2220TIP3   OH228150   2.223   6.225  11.933 -0.2015 -0.3124  0.0035
 2220TIP3    H128151   2.186   6.176  11.859 -0.6644  1.8194 -1.2477
 2220TIP3    H228152   2.307   6.258  11.901  0.1576 -0.3686  0.8619
 2221TIP3   OH228153   0.469   5.096   6.321 -0.5599  0.1471  0.0889
 2221TIP3    H128154   0.553   5.123   6.358 -1.7290  1.9178  1.6389
 2221TIP3    H228155   0.417   5.070   6.397 -1.4115 -1.0447 -0.8630
 2222TIP3   OH228156   6.101   1.018   0.447 -0.0579 -0.2032 -0.3135
 2222TIP3    H128157   6.171   0.954   0.464 -0.9250 -1.5352 -1.5027
 2222TIP3    H228158   6.067   1.040   0.534 -0.1946 -1.9093  0.1023
 2223TIP3   OH228159   0.767   2.817   0.030  0.0368 -0.5321 -0.1928
 2223TIP3    H128160   0.740   2.888   0.088  2.0223  1.6764 -1.7533
 2223TIP3    H228161   0.808   2.753   0.088 -2.7713 -1.0630  1.3971
 2224TIP3   OH228162   3.490   5.800  13.969  1.2602  0.7238  0.2931
 2224TIP3    H128163   3.460   5.743  14.040 -1.4034  1.5307 -0.0708
 2224TIP3    H228164   3.584   5.805  13.981  1.1388 -0.7965  2.5493
 2225TIP3   OH228165   3.461   6.433  16.000 -1.0430  0.1741  0.2184
 2225TIP3    H128166   3.450   6.464  15.910 -1.7553  1.5261  0.7392
 2225TIP3    H228167   3.509   6.503  16.044  0.8691 -1.2211  0.5114
 2226TIP3   OH228168   3.069   0.660  16.043 -0.0308  0.3884 -0.0724
 2226TIP3    H128169   3.112   0.605  16.108 -2.3235 -0.3928  0.8632
 2226TIP3    H228170   3.135   0.726  16.019  1.8672 -1.1437  0.7503
 2227TIP3   OH228171   3.543   1.406  16.132  0.6822  0.3356  0.3050
 2227TIP3    H128172   3.464   1.358  16.157  0.9656 -0.8144 -0.8544
 2227TIP3    H228173   3.512   1.493  16.108 -0.1573  0.0785  0.4384
 2228TIP3   OH228174   3.691   0.207   5.130 -0.7880 -0.0709  1.0476
 2228TIP3    H128175   3.612   0.259   5.146 -1.6935  0.2276 -3.2147
 2228TIP3    H228176   3.662   0.135   5.075  1.7175 -0.4958  0.1326
 2229TIP3   OH228177   6.434   3.676  13.023 -0.0104  0.0796 -0.1015
 2229TIP3    H128178   6.409   3.626  13.100  0.7684  0.6826  0.5477
 2229TIP3    H228179   6.399   3.764  13.039 -0.8157 -0.0692 -0.9480
 2230TIP3   OH228180   0.609   2.168   1.952 -1.1145  0.0790  0.2591
 2230TIP3    H128181   0.516   2.155   1.972 -1.6127  2.7339  0.0598
 2230TIP3    H228182   0.655   2.106   2.009 -3.0092 -2.5757 -0.9124
 2231TIP3   OH228183   5.883   1.564  11.804  0.1234  0.1052 -1.1313
 2231TIP3    H128184   5.918   1.498  11.743 -0.1160 -0.5417 -0.5818
 2231TIP3    H228185   5.847   1.513  11.876  3.3264  0.8467  1.2329
 2232TIP3   OH228186   3.138   0.872   2.469 -0.6022  0.1693 -0.4338
 2232TIP3    H128187   3.203   0.820   2.517 -1.1554  0.6716  0.9119
 2232TIP3    H228188   3.163   0.963   2.484 -2.2086  0.4313  1.0954
 2233TIP3   OH228189   0.885   2.234   1.497 -0.1261  0.5336 -0.0481
 2233TIP3    H128190   0.810   2.177   1.478  0.4763  0.3557 -2.1131
 2233TIP3    H228191   0.896   2.228   1.592 -1.6158 -0.8386  0.0780
 2234TIP3   OH228192   0.600   5.068   0.896 -0.0812  0.4020  0.5458
 2234TIP3    H128193   0.550   4.988   0.916 -0.4823  0.9861  2.0459
 2234TIP3    H228194   0.619   5.062   0.803  0.2581 -1.6423  0.7057
 2235TIP3   OH228195   1.833   4.496   4.853 -1.0278 -0.1057 -1.0461
 2235TIP3    H128196   1.882   4.517   4.773 -1.2394  0.4472 -1.0328
 2235TIP3    H228197   1.847   4.402   4.865  0.4740  0.1355 -0.7345
 2236TIP3   OH228198   4.357   3.098  11.463  0.3961  0.2190 -0.0988
 2236TIP3    H128199   4.344   3.184  11.423  0.3168  1.3816  2.2799
 2236TIP3    H228200   4.270   3.071  11.492  0.4192 -0.7067 -0.8322
 2237TIP3   OH228201   5.505   1.758   0.258  0.3448  0.2529  0.7623
 2237TIP3    H128202   5.594   1.761   0.293  0.9304 -2.3727 -0.2439
 2237TIP3    H228203   5.467   1.678   0.295 -0.1501 -0.8354 -1.9048
 2238TIP3   OH228204   5.026   2.237  12.607 -0.0495  0.0289 -0.2495
 2238TIP3    H128205   5.017   2.332  12.600 -0.0904  0.0146 -0.3865
 2238TIP3    H228206   4.997   2.204  12.522  1.2166 -0.0282 -0.6785
 2239TIP3   OH228207   3.454   2.175   0.202  0.2654  0.1015 -0.0122
 2239TIP3    H128208   3.439   2.107   0.268  0.7859 -0.1802 -0.1847
 2239TIP3    H228209   3.368   2.185   0.159  0.3684 -1.0346 -0.5370
 2240TIP3   OH228210   1.779   3.229  11.295 -0.5369 -0.4838  0.2190
 2240TIP3    H128211   1.833   3.151  11.280  0.1162  0.3703 -2.3797
 2240TIP3    H228212   1.711   3.200  11.357 -0.7840 -3.3375 -1.2369
 2241TIP3   OH228213   0.030   4.633   1.363 -0.4372 -0.1603 -0.1150
 2241TIP3    H128214   0.029   4.542   1.334 -1.6216 -0.3862  0.5631
 2241TIP3    H228215   0.073   4.631   1.449 -2.6698 -0.5083  1.0689
 2242TIP3   OH228216   4.360   0.404  12.810  0.0719 -0.6921  0.2992
 2242TIP3    H128217   4.332   0.452  12.731  0.0704  0.9024  1.2159
 2242TIP3    H228218   4.420   0.464  12.854 -0.6899 -1.1285  2.0133
 2243TIP3   OH228219   2.186   3.149   5.451 -0.7094 -0.2344 -0.5707
 2243TIP3    H128220   2.160   3.144   5.359  0.5524 -2.0479 -0.8651
 2243TIP3    H228221   2.262   3.206   5.452 -0.1072 -1.0165 -0.8229
 2244TIP3   OH228222   6.390   0.500   4.541 -0.2697 -0.1616 -0.2309
 2244TIP3    H128223   6.471   0.455   4.517 -0.3666 -0.1189 -0.6440
 2244TIP3    H228224   6.356   0.534   4.458 -0.3242  0.4624  0.0406
 2245TIP3   OH228225   2.622   2.277   2.139  0.3477 -0.0847 -0.4300
 2245TIP3    H128226   2.641   2.371   2.145  0.5534 -0.1628  0.2354
 2245TIP3    H228227   2.557   2.270   2.069  1.0131  0.4483 -1.1050
 2246TIP3   OH228228   5.447   0.530  11.743  0.0924  0.6127  0.1580
 2246TIP3    H128229   5.383   0.530  11.672  0.1428  0.5073  0.1111
 2246TIP3    H228230   5.456   0.437  11.767 -0.5842  0.7303  0.8976
 2247TIP3   OH228231   0.247   4.415  12.301  0.5642 -0.3666  0.3998
 2247TIP3    H128232   0.299   4.470  12.242  0.5531 -0.0438  0.6831
 2247TIP3    H228233   0.298   4.411  12.382 -0.3560  0.9007  1.0830
 2248TIP3   OH228234   2.087   4.943  15.458  0.5683 -0.3633 -0.1227
 2248TIP3    H128235   2.173   4.985  15.462  0.0187  0.7399  0.6949
 2248TIP3    H228236   2.024   5.015  15.467 -0.4780 -1.0517 -1.3963
 2249TIP3   OH228237   0.518   5.891   3.392  0.6294 -0.2166 -0.0507
 2249TIP3    H128238   0.512   5.927   3.304  0.6921 -0.7579 -0.2834
 2249TIP3    H228239   0.431   5.852   3.407  1.1847 -1.7273 -0.5967
 2250TIP3   OH228240   1.669   1.388   5.271  0.0237 -0.6984 -0.0729
 2250TIP3    H128241   1.725   1.419   5.342 -0.1990 -0.0241 -0.1841
 2250TIP3    H228242   1.619   1.465   5.244 -0.1829 -1.0397 -0.6934
 2251TIP3   OH228243   4.859   2.717   2.588 -0.3526 -0.2485  0.6754
 2251TIP3    H128244   4.923   2.756   2.648  0.1037  0.4513 -0.2391
 2251TIP3    H228245   4.912   2.682   2.516 -0.9744  0.1519  0.0060
 2252TIP3   OH228246   3.486   6.734   2.180  0.2026 -0.8280  0.5652
 2252TIP3    H128247   3.477   6.775   2.094  0.5482 -3.1126 -0.6289
 2252TIP3    H228248   3.398   6.738   2.217 -0.0338 -0.1243 -0.0400
 2253TIP3   OH228249   5.863   5.834   5.090  0.1866 -0.0373 -0.5432
 2253TIP3    H128250   5.929   5.900   5.068  2.0328 -2.0886 -1.4520
 2253TIP3    H228251   5.874   5.766   5.024 -1.1385 -1.6324  0.7853
 2254TIP3   OH228252   3.011   2.737   0.387  0.1968  0.1578  0.3344
 2254TIP3    H128253   3.054   2.652   0.388  0.0506  0.0860  0.6219
 2254TIP3    H228254   2.937   2.728   0.447 -0.3130  0.2349 -0.2624
 2255TIP3   OH228255   1.156   0.556   5.410  0.2553  0.3624  0.4185
 2255TIP3    H128256   1.069   0.521   5.430  0.5397 -0.1321  0.7913
 2255TIP3    H228257   1.191   0.583   5.495  0.6850  0.0649  0.3351
 2256TIP3   OH228258   5.101   2.967   4.612 -0.2442 -0.1298  0.1831
 2256TIP3    H128259   5.029   3.018   4.648  0.0243 -0.1764  0.7951
 2256TIP3    H228260   5.059   2.905   4.552 -0.6180  0.4538 -0.1621
 2257TIP3   OH228261   3.494   0.396   4.585  0.0367  0.7044  0.1997
 2257TIP3    H128262   3.578   0.393   4.538 -0.1712 -0.7276 -0.1066
 2257TIP3    H228263   3.519   0.395   4.677  0.3619 -2.4657  0.1633
 2258TIP3   OH228264   0.993   4.395   0.607 -0.9670 -0.1386 -0.7370
 2258TIP3    H128265   0.925   4.328   0.599  0.3932 -1.8715  1.1129
 2258TIP3    H228266   0.953   4.464   0.660 -2.1653  0.2132 -2.0627
 2259TIP3   OH228267   6.331   3.927  12.711  0.0601  0.2838 -0.8561
 2259TIP3    H128268   6.299   4.005  12.665 -0.5377  1.1058  0.8649
 2259TIP3    H228269   6.328   3.857  12.645  1.9515  1.9460 -2.8801
 2260TIP3   OH228270   1.887   0.685   2.466 -0.2121  0.2162 -0.0587
 2260TIP3    H128271   1.835   0.630   2.525  0.3006  1.3841  1.5496
 2260TIP3    H228272   1.826   0.750   2.433 -0.4082 -0.1966 -0.5283
 2261TIP3   OH228273   5.362   1.868  12.448 -0.4474 -0.2053 -0.2742
 2261TIP3    H128274   5.392   1.817  12.523  2.7951  0.7276 -0.8230
 2261TIP3    H228275   5.404   1.828  12.372  0.7893  2.0988 -0.9139
 2262TIP3   OH228276   0.497   3.744   3.116 -0.4178 -0.2465 -0.1147
 2262TIP3    H128277   0.449   3.684   3.173 -2.8542  1.3479 -0.3620
 2262TIP3    H228278   0.528   3.813   3.174  0.2295 -0.4621 -0.1990
 2263TIP3   OH228279   5.441   2.980   3.385  0.2311  0.2490  0.2629
 2263TIP3    H128280   5.445   2.884   3.382 -1.3758  0.1689 -0.7078
 2263TIP3    H228281   5.518   3.009   3.338  0.9004 -0.5593  0.8309
 2264TIP3   OH228282   0.223   5.995  16.540 -0.2173 -0.2456  0.0860
 2264TIP3    H128283   0.204   5.912  16.583 -0.0990 -0.7409 -0.7912
 2264TIP3    H228284   0.185   5.987  16.453  1.3071 -0.0662 -0.6265
 2265TIP3   OH228285   2.469   2.815  13.078 -0.1496 -0.6666 -0.1807
 2265TIP3    H128286   2.466   2.782  12.988  1.1475 -1.3543  0.0046
 2265TIP3    H228287   2.415   2.755  13.128  0.4368 -1.2433 -0.2303
 2266TIP3   OH228288   6.462   5.315   2.462 -0.3241 -0.1737  0.1986
 2266TIP3    H128289   6.451   5.353   2.374  1.5473 -0.8446 -0.3769
 2266TIP3    H228290   6.464   5.221   2.447  1.0424 -0.2665  0.7946
 2267TIP3   OH228291   3.367   5.145  13.897  0.9028  0.0684 -0.8934
 2267TIP3    H128292   3.390   5.106  13.813 -1.2869  0.9067 -1.9538
 2267TIP3    H228293   3.381   5.239  13.885  0.1028  0.2451 -0.5132
 2268TIP3   OH228294   2.018   6.374   1.155  0.0015 -0.4030 -0.1193
 2268TIP3    H128295   2.097   6.389   1.102  0.0780  1.5249  0.4533
 2268TIP3    H228296   1.948   6.363   1.091 -0.1766  3.3946 -0.7839
 2269TIP3   OH228297   0.833   3.956  16.216 -0.1211 -0.0257 -0.0979
 2269TIP3    H128298   0.858   3.982  16.128  0.1732  1.1590  0.3122
 2269TIP3    H228299   0.903   3.898  16.246 -0.1318 -0.2816 -0.5728
 2270TIP3   OH228300   0.027   6.200  15.759  0.8917 -0.0121 -0.0868
 2270TIP3    H128301   0.035   6.291  15.787  0.7131 -0.7935  2.7539
 2270TIP3    H228302   0.009   6.151  15.839  1.7966 -2.6860 -1.3895
 2271TIP3   OH228303   0.707   2.246   4.747 -0.0366  0.0721  0.0950
 2271TIP3    H128304   0.677   2.182   4.812 -0.9635  1.5305  1.1914
 2271TIP3    H228305   0.650   2.232   4.672 -0.6352 -0.0337  0.5525
 2272TIP3   OH228306   5.295   0.665   3.698 -0.4882 -0.1398 -0.1970
 2272TIP3    H128307   5.224   0.639   3.640 -0.6344  0.1649 -0.1552
 2272TIP3    H228308   5.254   0.671   3.784 -0.6234  0.9624 -0.3306
 2273TIP3   OH228309   2.334   0.104  16.472 -0.9834 -0.0052 -0.2167
 2273TIP3    H128310   2.310   0.026  16.522 -0.5855 -0.6245 -0.9739
 2273TIP3    H228311   2.386   0.071  16.399 -2.3626  0.7738 -1.6090
 2274TIP3   OH228312   4.808   1.776   1.123 -0.0488  0.0732  0.5266
 2274TIP3    H128313   4.872   1.800   1.056 -0.5470  2.0433  0.6904
 2274TIP3    H228314   4.861   1.759   1.201  0.4611 -1.3623 -0.0899
 2275TIP3   OH228315   0.740   2.541   0.901 -0.1538  0.2692  0.1439
 2275TIP3    H128316   0.794   2.514   0.975 -0.1974 -0.5700 -0.1241
 2275TIP3    H228317   0.722   2.634   0.917 -0.3706  0.0336  1.3127
 2276TIP3   OH228318   6.426   4.759   4.569  0.3615 -0.9293 -0.0859
 2276TIP3    H128319   6.474   4.836   4.538  0.3490  0.0705  2.1688
 2276TIP3    H228320   6.334   4.785   4.566  0.2178 -1.5139 -0.9685
 2277TIP3   OH228321   2.257   6.078  14.064  0.6380 -0.3788 -0.4879
 2277TIP3    H128322   2.226   6.128  14.139 -1.4650 -0.7961 -1.0151
 2277TIP3    H228323   2.205   6.110  13.990  0.8517 -1.7490 -1.2718
 2278TIP3   OH228324   5.928   4.496   3.094 -0.3110  0.4599  0.0634
 2278TIP3    H128325   5.929   4.516   3.188  0.8060 -0.4787  0.2704
 2278TIP3    H228326   5.913   4.401   3.090  0.0249  0.4355 -0.6893
 2279TIP3   OH228327   6.565   0.339   1.287 -0.5819  0.0040 -0.0215
 2279TIP3    H128328   6.586   0.316   1.378 -0.3419  0.4975  0.0531
 2279TIP3    H228329   6.546   0.256   1.245 -1.3865 -0.1838  0.6592
 2280TIP3   OH228330   3.044   6.801  12.168 -0.6960 -0.4846 -0.0813
 2280TIP3    H128331   3.133   6.829  12.145 -0.5574 -1.0630 -0.2470
 2280TIP3    H228332   2.993   6.882  12.167 -0.3358 -0.2571 -0.7537
 2281TIP3   OH228333   6.024   1.415   5.122  0.3334  0.2003 -0.1917
 2281TIP3    H128334   6.026   1.321   5.109 -0.1783  0.3431 -1.4590
 2281TIP3    H228335   5.962   1.428   5.194 -1.6250 -0.3131 -1.6752
 2282TIP3   OH228336   5.892   3.965   0.656  0.1317 -0.0218  0.0672
 2282TIP3    H128337   5.843   3.996   0.732  1.5255  0.7787  0.6628
 2282TIP3    H228338   5.830   3.973   0.583 -0.8302  0.3517  0.9026
 2283TIP3   OH228339   0.193   5.859   0.576  0.0819 -0.2075 -0.1055
 2283TIP3    H128340   0.140   5.886   0.501  0.1836 -1.5815 -0.7070
 2283TIP3    H228341   0.282   5.886   0.553 -0.0942  0.6231  0.1625
 2284TIP3   OH228342   3.096   2.856  12.733 -0.1306 -0.0758  0.9207
 2284TIP3    H128343   3.050   2.780  12.698 -0.9071  0.3708  0.9394
 2284TIP3    H228344   3.109   2.913  12.657 -0.4010  0.1927  1.0758
 2285TIP3   OH228345   4.369   0.252  14.800 -0.2506  0.6213  0.1304
 2285TIP3    H128346   4.400   0.342  14.787 -0.8818  0.7680 -0.4205
 2285TIP3    H228347   4.424   0.218  14.871 -0.4046  1.6393  0.7614
 2286TIP3   OH228348   5.170   3.225  16.184 -0.4205  0.6326 -0.5013
 2286TIP3    H128349   5.204   3.137  16.199 -1.5987 -0.1108 -2.0106
 2286TIP3    H228350   5.184   3.270  16.268  0.9555 -0.7032  0.0420
 2287TIP3   OH228351   2.465   2.041  13.394 -0.1091  0.0306 -0.3130
 2287TIP3    H128352   2.476   2.134  13.373  0.8041  0.2815  1.1302
 2287TIP3    H228353   2.551   2.013  13.425 -0.2128 -1.4788 -1.2780
 2288TIP3   OH228354   2.679   6.805   1.473 -0.2773  0.8205  0.6315
 2288TIP3    H128355   2.661   6.863   1.399  1.6566  0.4081 -0.2588
 2288TIP3    H228356   2.748   6.849   1.523  1.0245 -0.4865  0.0989
 2289TIP3   OH228357   1.362   6.605  13.118 -0.6654  0.1540 -0.3737
 2289TIP3    H128358   1.374   6.693  13.155  1.2278  1.2167 -3.1624
 2289TIP3    H228359   1.389   6.546  13.188 -0.7038  1.8253  1.1350
 2290TIP3   OH228360   5.869   0.795   0.615 -0.1974 -0.1302  0.2416
 2290TIP3    H128361   5.833   0.883   0.605  0.9367  0.2559 -0.6470
 2290TIP3    H228362   5.869   0.780   0.710  0.0287  1.0058  0.4341
 2291TIP3   OH228363   3.960   2.945   3.153 -0.0906 -0.1495 -0.0655
 2291TIP3    H128364   3.943   2.944   3.058 -0.7569  1.0180  0.0320
 2291TIP3    H228365   4.027   2.878   3.165  0.3292 -0.0191 -1.4387
 2292TIP3   OH228366   2.126   2.974  12.347  0.0534 -0.0448  0.1440
 2292TIP3    H128367   2.066   2.999  12.417 -1.3606 -1.0967 -0.6474
 2292TIP3    H228368   2.180   3.052  12.333 -2.1989  1.5453 -0.2151
 2293TIP3   OH228369   6.543   4.732   1.365 -0.3126 -0.0395 -0.1116
 2293TIP3    H128370   6.539   4.636   1.364 -1.4299 -0.0129 -2.0720
 2293TIP3    H228371   6.455   4.760   1.340  0.6777  1.4482 -2.2023
 2294TIP3   OH228372   2.317   5.044  15.578  0.1540  0.7026 -0.1167
 2294TIP3    H128373   2.331   5.028  15.671 -0.8264  2.1889  0.3240
 2294TIP3    H228374   2.398   5.084  15.548  0.0060  1.4203  0.4196
 2295TIP3   OH228375   6.136   3.402  11.183 -0.0547  0.2764 -0.7214
 2295TIP3    H128376   6.091   3.480  11.216  0.8803  1.0808 -1.2817
 2295TIP3    H228377   6.109   3.395  11.091 -0.0198  0.0277 -0.7145
 2296TIP3   OH228378   1.293   1.523   3.219 -0.2636 -0.1333 -0.6487
 2296TIP3    H128379   1.293   1.533   3.124 -1.7221  0.8752 -0.5711
 2296TIP3    H228380   1.213   1.476   3.239  1.2522 -2.6557 -0.0686
 2297TIP3   OH228381   2.786   4.001  12.619  0.6432  0.2638  0.0747
 2297TIP3    H128382   2.747   4.053  12.549 -1.2302  0.0916  0.9318
 2297TIP3    H228383   2.757   3.912  12.601 -0.6292  0.3422  1.5020
 2298TIP3   OH228384   1.974   0.388  16.102  0.3957  0.0517  0.3498
 2298TIP3    H128385   1.900   0.356  16.154  0.3083 -1.7374 -0.8003
 2298TIP3    H228386   1.934   0.425  16.023  0.6297  1.1455  0.7260
 2299TIP3   OH228387   0.359   3.614  15.925  0.0147  0.7403 -0.3715
 2299TIP3    H128388   0.368   3.577  15.837 -0.2071  1.6012 -0.7597
 2299TIP3    H228389   0.393   3.703  15.918 -0.4943  0.9933  0.2891
 2300TIP3   OH228390   4.762   0.754  13.752  0.0675  0.4747  0.7510
 2300TIP3    H128391   4.694   0.776  13.816 -2.7834 -0.9272 -1.6000
 2300TIP3    H228392   4.762   0.659  13.748  2.0387  0.4441  0.4786
 2301TIP3   OH228393   1.004   3.454   0.810 -1.1004  0.2579  0.1380
 2301TIP3    H128394   1.050   3.430   0.730 -0.2376  0.8296  0.4390
 2301TIP3    H228395   1.069   3.442   0.879 -1.5457  0.6544  0.6388
 2302TIP3   OH228396   3.394   4.069   0.976  0.4319  0.2132  0.0861
 2302TIP3    H128397   3.489   4.052   0.975  0.4172  0.1341 -1.0012
 2302TIP3    H228398   3.384   4.145   1.032  1.0413 -0.3416  0.9788
 2303TIP3   OH228399   2.542   4.775   3.397 -0.5395  0.1731  0.6525
 2303TIP3    H128400   2.572   4.754   3.309  0.7344 -1.4283  1.4233
 2303TIP3    H228401   2.498   4.859   3.388  0.1074  0.3383 -1.3860
 2304TIP3   OH228402   4.007   2.384   3.907 -0.1658 -0.4397  0.2555
 2304TIP3    H128403   4.016   2.471   3.868  0.5118  0.0942  1.5481
 2304TIP3    H228404   4.044   2.325   3.842  1.8253  0.5241  0.4208
 2305TIP3   OH228405   0.574   4.416   2.428 -0.7212  0.1139 -0.3003
 2305TIP3    H128406   0.582   4.360   2.350 -0.3108  1.4956 -1.2889
 2305TIP3    H228407   0.488   4.457   2.418 -0.4622  0.6657 -0.2945
 2306TIP3   OH228408   3.809   4.163  16.623 -0.1806 -1.2932  0.1672
 2306TIP3    H128409   3.781   4.233  16.564  1.3604 -0.7204  0.0589
 2306TIP3    H228410   3.881   4.120  16.576  0.3322 -1.5399  1.1489
 2307TIP3   OH228411   1.776   4.241  16.227  0.1388 -0.1096  0.1638
 2307TIP3    H128412   1.702   4.291  16.262  0.6233 -0.1843  1.3391
 2307TIP3    H228413   1.735   4.165  16.185 -0.4661 -0.0287  0.5892
 2308TIP3   OH228414   6.665   3.983   1.504 -0.0320 -0.1862  0.0513
 2308TIP3    H128415   6.579   3.969   1.543  0.0059 -0.5406  0.0156
 2308TIP3    H228416   6.711   3.900   1.517  1.0372  0.6199  1.8724
 2309TIP3   OH228417   6.322   0.138   5.149 -0.0103  0.3152 -0.9436
 2309TIP3    H128418   6.308   0.044   5.146  0.5584  0.1709  0.2135
 2309TIP3    H228419   6.386   0.150   5.219 -1.2896  1.6945  0.0492
 2310TIP3   OH228420   5.536   2.842  15.532  0.4207 -0.1513  0.2687
 2310TIP3    H128421   5.504   2.766  15.581 -0.1416  0.7634  1.3464
 2310TIP3    H228422   5.623   2.859  15.568 -0.2133  0.8578  1.3638
 2311TIP3   OH228423   5.144   5.033   5.631 -0.2704 -0.4840 -0.2926
 2311TIP3    H128424   5.061   5.039   5.582 -0.6033 -0.4172  0.2710
 2311TIP3    H228425   5.211   5.058   5.567 -0.8463  1.1541 -0.3004
 2312TIP3   OH228426   0.337   1.257  11.341  0.1101 -0.1922 -0.0274
 2312TIP3    H128427   0.423   1.233  11.306  0.1304 -0.2410  0.0538
 2312TIP3    H228428   0.282   1.268  11.263 -0.7899 -3.7639 -0.1150
 2313TIP3   OH228429   2.775   0.748   4.585 -0.0131 -0.2288  0.5299
 2313TIP3    H128430   2.695   0.754   4.638  0.1769  1.5182  0.6696
 2313TIP3    H228431   2.744   0.729   4.497 -0.5876  0.3535  0.5975
 2314TIP3   OH228432   0.236   5.695   5.353 -0.1926 -0.0669 -0.1228
 2314TIP3    H128433   0.226   5.621   5.294 -0.5532 -0.3441  0.2835
 2314TIP3    H228434   0.315   5.740   5.321 -0.2595 -0.3339 -0.6770
 2315TIP3   OH228435   4.521   1.307   4.719 -0.4062  0.6683 -0.3154
 2315TIP3    H128436   4.547   1.215   4.723  0.2460  0.8780  1.6683
 2315TIP3    H228437   4.569   1.343   4.645 -1.7014 -0.8348 -1.9821
 2316TIP3   OH228438   2.617   4.669   4.205 -0.3651 -0.4674 -0.1658
 2316TIP3    H128439   2.525   4.690   4.187  0.0495  1.5314 -0.1767
 2316TIP3    H228440   2.637   4.596   4.146 -1.7332 -0.4494 -0.6944
 2317TIP3   OH228441   5.343   1.752   1.883 -0.1160  0.0277  0.7246
 2317TIP3    H128442   5.337   1.695   1.807  0.4643 -1.6123  1.8538
 2317TIP3    H228443   5.368   1.837   1.848  1.2004 -0.9472 -0.8241
 2318TIP3   OH228444   6.743   2.376  10.712  0.2067  0.5130 -0.3608
 2318TIP3    H128445   6.729   2.297  10.764 -0.7158  1.3808  0.7642
 2318TIP3    H228446   6.741   2.346  10.621 -0.6482 -0.6716  0.0253
 2319TIP3   OH228447   5.865   4.220   0.311  0.1085 -0.7109 -0.5784
 2319TIP3    H128448   5.904   4.199   0.396  0.2492 -1.9899 -0.9311
 2319TIP3    H228449   5.926   4.280   0.270  0.5625 -0.8997 -0.1878
 2320TIP3   OH228450   6.553   0.268   4.448 -0.2172 -0.6908  0.4420
 2320TIP3    H128451   6.477   0.226   4.407 -0.2280  0.8030 -1.1975
 2320TIP3    H228452   6.621   0.201   4.447 -0.5075 -1.0094 -1.2256
 2321TIP3   OH228453   4.354   1.660   6.057  0.0768 -0.0872 -0.2339
 2321TIP3    H128454   4.438   1.614   6.061 -0.1447 -0.5996 -1.3246
 2321TIP3    H228455   4.291   1.597   6.092  0.0363  0.0361 -0.0840
 2322TIP3   OH228456   5.039   3.954   1.152 -0.4942  0.2979  0.0275
 2322TIP3    H128457   5.083   4.031   1.116 -0.2596  0.0359 -0.2569
 2322TIP3    H228458   5.051   3.962   1.247  1.4648 -0.4905 -0.0858
 2323TIP3   OH228459   1.567   0.001   3.128  0.0345 -0.5514 -0.5048
 2323TIP3    H128460   1.639   0.047   3.171  1.2753 -2.3645 -0.4901
 2323TIP3    H228461   1.611  -0.051   3.060 -1.2296 -1.8682 -0.3526
 2324TIP3   OH228462   2.919   5.353  15.005  0.3988  0.4300 -0.5274
 2324TIP3    H128463   2.963   5.274  15.037 -0.7743  0.1600  0.4755
 2324TIP3    H228464   2.860   5.321  14.937  1.2250  0.7106 -1.4101
 2325TIP3   OH228465   1.289   4.463  15.302  0.4231  0.3975  0.2956
 2325TIP3    H128466   1.359   4.514  15.343  0.5197 -1.0152  1.9822
 2325TIP3    H228467   1.335   4.403  15.243  0.4997  0.4749  0.2745
 2326TIP3   OH228468   5.839   5.556   4.592  0.4221 -0.1543 -0.6028
 2326TIP3    H128469   5.835   5.601   4.507  0.8290  0.0946 -0.4956
 2326TIP3    H228470   5.841   5.463   4.570 -0.3294 -0.1231 -0.8334
 2327TIP3   OH228471   1.535   0.817  17.015 -0.1515 -0.5956  0.0627
 2327TIP3    H128472   1.560   0.903  16.981  0.7675 -1.3474 -1.2327
 2327TIP3    H228473   1.618   0.776  17.040 -0.5563 -1.2329  0.3926
 2328TIP3   OH228474   3.162   1.473  12.392 -0.1678  0.4299  0.7466
 2328TIP3    H128475   3.184   1.549  12.445 -1.5346  0.2373  1.6429
 2328TIP3    H228476   3.222   1.405  12.422  0.8635  1.0590  0.1434
 2329TIP3   OH228477   6.471   0.037   4.718  0.6316 -0.1395 -0.2525
 2329TIP3    H128478   6.390   0.019   4.669 -0.3605  0.3599  1.1220
 2329TIP3    H228479   6.445   0.030   4.810  1.7902  1.5328  0.2441
 2330TIP3   OH228480   6.071   1.308  11.587  0.5010  0.2270 -0.2756
 2330TIP3    H128481   6.095   1.270  11.502  0.8916  1.8236 -0.9176
 2330TIP3    H228482   5.999   1.368  11.567 -0.1340 -0.1642  0.7214
 2331TIP3   OH228483   5.611   2.562  16.955  0.6952 -0.8598  0.0363
 2331TIP3    H128484   5.612   2.509  16.875 -1.7715  0.1731 -0.7721
 2331TIP3    H228485   5.567   2.507  17.019 -0.9128 -0.2291 -0.4981
 2332TIP3   OH228486   5.014   6.118  11.412  0.4810  0.1514  0.7679
 2332TIP3    H128487   4.950   6.047  11.426  2.1676 -1.5711  0.1194
 2332TIP3    H228488   5.003   6.142  11.320 -0.7481  1.4814  1.2151
 2333TIP3   OH228489   1.869   5.357  16.646 -0.4204  0.0343 -0.7242
 2333TIP3    H128490   1.787   5.399  16.620 -1.2570 -1.2886 -0.3092
 2333TIP3    H228491   1.842   5.281  16.697  1.0936  1.0738  1.8238
 2334TIP3   OH228492   4.954   6.182  11.139  0.1784  0.3103 -0.0366
 2334TIP3    H128493   4.897   6.247  11.098 -0.6232  1.7300  2.9991
 2334TIP3    H228494   4.934   6.100  11.093 -1.6783  1.4507 -1.4262
 2335TIP3   OH228495   5.702   5.199   1.925 -0.0047  0.0969 -1.0263
 2335TIP3    H128496   5.620   5.149   1.923  0.3928 -0.5720 -1.0972
 2335TIP3    H228497   5.674   5.290   1.932 -0.7924 -0.2216  3.1410
 2336TIP3   OH228498   2.691   1.200   0.630 -0.3448 -0.2594  0.1917
 2336TIP3    H128499   2.740   1.171   0.553 -0.1427  0.0641  0.1976
 2336TIP3    H228500   2.756   1.246   0.684 -0.9362  1.4565 -0.4758
 2337TIP3   OH228501   6.702   2.320   0.432 -0.4452  0.2546 -0.1114
 2337TIP3    H128502   6.780   2.321   0.488  0.1694  0.5112 -0.9472
 2337TIP3    H228503   6.718   2.390   0.368 -0.7564 -0.5667 -1.1089
 2338TIP3   OH228504   5.185   0.328  12.685  0.4138  0.1342  0.1875
 2338TIP3    H128505   5.203   0.255  12.743  0.8581  2.5365  3.3146
 2338TIP3    H228506   5.097   0.356  12.708 -0.7479 -0.7866 -2.7034
 2339TIP3   OH228507   0.391   0.927  12.608 -0.0981 -0.5850 -0.2010
 2339TIP3    H128508   0.317   0.877  12.575  0.9179 -2.5755  0.3249
 2339TIP3    H228509   0.354   0.982  12.678 -1.2312 -0.7583 -0.6484
 2340TIP3   OH228510   0.986   5.774  12.114 -0.7756 -0.4089 -0.3944
 2340TIP3    H128511   0.985   5.733  12.200  1.4887 -0.4506 -0.3277
 2340TIP3    H228512   0.979   5.868  12.131  1.1173 -0.3027 -0.0080
 2341TIP3   OH228513   3.648   2.656  15.486 -0.4099  0.2831  0.1825
 2341TIP3    H128514   3.726   2.635  15.434 -1.4593  1.0036 -1.8118
 2341TIP3    H228515   3.680   2.714  15.555  0.9955 -0.4516  0.1857
 2342TIP3   OH228516   0.189   3.879  12.902  0.2197  0.2742  0.3486
 2342TIP3    H128517   0.144   3.887  12.986  1.9871  1.4875  1.2326
 2342TIP3    H228518   0.143   3.940  12.844  0.1552  0.8379  0.9815
 2343TIP3   OH228519   2.385   6.848   3.484 -0.0122  0.3258  0.1224
 2343TIP3    H128520   2.472   6.887   3.479  0.4243 -0.1314  2.5630
 2343TIP3    H228521   2.331   6.900   3.424  1.3836  2.1959  0.3967
 2344TIP3   OH228522   4.390   1.762   5.379 -0.3315 -0.3601 -0.3120
 2344TIP3    H128523   4.310   1.812   5.360 -1.3539 -1.5200  0.7024
 2344TIP3    H228524   4.459   1.828   5.386 -1.4023  0.7824 -0.1791
 2345TIP3   OH228525   0.688   0.401   6.352  0.3386  0.5498 -0.5910
 2345TIP3    H128526   0.669   0.450   6.431 -2.8531  0.6016 -1.2565
 2345TIP3    H228527   0.783   0.391   6.352  0.5242  1.1300  2.8429
 2346TIP3   OH228528   5.832   5.191   1.313  0.3466 -0.1085 -0.4290
 2346TIP3    H128529   5.812   5.282   1.336  1.0802  0.6231 -2.4642
 2346TIP3    H228530   5.746   5.152   1.295  0.0605  0.2815  0.0378
 2347TIP3   OH228531   3.806   4.367  13.480 -0.4139  0.2087 -0.4763
 2347TIP3    H128532   3.792   4.409  13.396 -3.3882 -2.6309 -1.5984
 2347TIP3    H228533   3.832   4.277  13.458  0.9921  0.0070  1.7023
 2348TIP3   OH228534   5.689   0.561  11.921 -0.1654  0.1106  0.2712
 2348TIP3    H128535   5.595   0.545  11.911 -0.1529  0.5913 -0.6708
 2348TIP3    H228536   5.725   0.555  11.833  0.6483  0.1995  0.5860
 2349TIP3   OH228537   4.371   4.337   1.667 -0.1524  0.1944  0.0252
 2349TIP3    H128538   4.349   4.307   1.755 -0.3807  0.6357  0.1209
 2349TIP3    H228539   4.413   4.262   1.625  0.5569  0.1867  0.7316
 2350TIP3   OH228540   3.828   0.761   5.316 -0.6904 -0.2608 -0.0789
 2350TIP3    H128541   3.794   0.673   5.336  0.7190 -1.0688 -1.0029
 2350TIP3    H228542   3.913   0.744   5.276  0.2411  1.6014  0.9751
 2351TIP3   OH228543   4.049   1.000  15.834  0.1759  0.7102  0.8083
 2351TIP3    H128544   4.098   0.931  15.789 -1.0406  1.2802 -1.5514
 2351TIP3    H228545   4.114   1.046  15.886  1.2220 -1.4732  1.5446
 2352TIP3   OH228546   2.509   5.918   0.107 -0.3130 -0.3812 -0.0788
 2352TIP3    H128547   2.548   5.887   0.189  0.1061  2.2601  0.8284
 2352TIP3    H228548   2.417   5.891   0.113 -0.4101  0.1592  1.5554
 2353TIP3   OH228549   6.156   3.641  10.926 -0.0286 -0.2190  0.2062
 2353TIP3    H128550   6.082   3.700  10.939 -2.2831 -2.2824 -2.1005
 2353TIP3    H228551   6.195   3.668  10.843  0.5934 -0.3644  0.4419
 2354TIP3   OH228552   4.899   2.423   1.753 -0.3415 -0.2014 -0.0877
 2354TIP3    H128553   4.816   2.377   1.745 -0.3472 -0.0026 -1.4165
 2354TIP3    H228554   4.929   2.434   1.663  1.1088 -0.2346  0.3658
 2355TIP3   OH228555   4.961   6.601   4.616 -0.5177 -0.3495  0.8402
 2355TIP3    H128556   4.925   6.512   4.620  2.4381 -1.6586  1.0264
 2355TIP3    H228557   4.983   6.613   4.524  0.4235 -0.4109  1.0507
 2356TIP3   OH228558   4.838   2.046   3.363 -0.0258 -0.5957  0.0605
 2356TIP3    H128559   4.801   1.994   3.434 -0.6175 -0.4935 -0.1675
 2356TIP3    H228560   4.778   2.033   3.290 -0.0986  0.2670 -0.0518
 2357TIP3   OH228561   4.510   6.822   3.251  0.0752  0.1188  0.5319
 2357TIP3    H128562   4.577   6.757   3.272  0.0605  0.1150  0.5666
 2357TIP3    H228563   4.556   6.906   3.254  1.2893 -0.1303 -3.9388
 2358TIP3   OH228564   0.389   2.610  12.024 -0.0812 -0.3962 -0.4173
 2358TIP3    H128565   0.464   2.558  12.055  0.1300 -0.3471 -0.8399
 2358TIP3    H228566   0.314   2.572  12.069  0.2750 -0.0255  0.5129
 2359TIP3   OH228567   0.751   6.676  15.495 -0.3012  0.3296 -0.2947
 2359TIP3    H128568   0.684   6.740  15.520  0.9319  1.4230  0.3393
 2359TIP3    H228569   0.706   6.591  15.502 -1.3064  0.9262  1.2761
 2360TIP3   OH228570   5.862   5.974   4.457 -0.1822 -0.3861 -0.0132
 2360TIP3    H128571   5.825   6.020   4.532 -1.2137  0.2239 -0.8630
 2360TIP3    H228572   5.789   5.921   4.423  0.6773 -1.8296  0.2821
 2361TIP3   OH228573   6.839   6.250  10.768 -0.0792  0.9681 -0.1103
 2361TIP3    H128574   6.766   6.213  10.718 -0.4500  0.0389  1.0874
 2361TIP3    H228575   6.888   6.174  10.799  0.5371  1.5477  0.3492
 2362TIP3   OH228576   3.151   4.336  11.434  0.2918 -0.1305  0.0889
 2362TIP3    H128577   3.184   4.305  11.518  0.0272  0.2504  0.3402
 2362TIP3    H228578   3.146   4.258  11.379  1.4025 -0.2232  0.1127
 2363TIP3   OH228579   1.294   3.078   0.072  0.0614 -0.6731  0.3194
 2363TIP3    H128580   1.226   3.082   0.005 -0.0931 -0.6337  0.4779
 2363TIP3    H228581   1.375   3.099   0.025 -0.1059 -0.2104  0.2284
 2364TIP3   OH228582   4.475   2.779   5.823  0.1788  1.0732  0.0114
 2364TIP3    H128583   4.556   2.822   5.797 -0.8609  1.7612 -2.3654
 2364TIP3    H228584   4.494   2.743   5.910  3.0811  0.9894 -0.5508
 2365TIP3   OH228585   6.510   1.496   4.146 -0.1438 -0.0842 -0.3214
 2365TIP3    H128586   6.457   1.574   4.127 -0.1095  0.7316  2.4406
 2365TIP3    H228587   6.598   1.517   4.115 -0.2514  0.7958 -0.0383
 2366TIP3   OH228588   1.809   2.414  15.755 -0.5373  0.1558 -0.2394
 2366TIP3    H128589   1.898   2.421  15.790 -0.6251  0.6468 -0.1036
 2366TIP3    H228590   1.805   2.481  15.687 -1.2570  1.1484  0.7429
 2367TIP3   OH228591   6.094   2.965  11.192 -0.3569  0.2512 -0.2180
 2367TIP3    H128592   6.044   3.029  11.141  1.8674  1.6078 -0.8532
 2367TIP3    H228593   6.042   2.885  11.187 -1.1334  0.8198 -3.1416
 2368TIP3   OH228594   2.476   4.670  12.626  0.2242 -0.3131  0.2990
 2368TIP3    H128595   2.381   4.664  12.618  0.1410  1.8365 -1.0906
 2368TIP3    H228596   2.509   4.595  12.577 -0.7360 -0.1143 -0.6778
 2369TIP3   OH228597   1.457   2.842   0.707  0.8339 -0.2915 -0.3136
 2369TIP3    H128598   1.495   2.828   0.620  0.7527  0.4255 -0.4674
 2369TIP3    H228599   1.488   2.767   0.759  0.7418 -0.8177 -1.0002
 2370TIP3   OH228600   2.100   1.435   6.360 -0.2213 -0.6931 -0.5604
 2370TIP3    H128601   2.148   1.513   6.387 -0.5370 -0.3028 -1.1201
 2370TIP3    H228602   2.081   1.389   6.442  1.8913 -1.3367 -0.3777
 2371TIP3   OH228603   3.045   0.221  12.117 -0.3266  0.1330 -0.2197
 2371TIP3    H128604   3.131   0.248  12.084  0.2635 -0.1284  1.0287
 2371TIP3    H228605   3.017   0.293  12.174 -0.4122 -0.2769  0.2650
 2372TIP3   OH228606   0.690   5.894   4.294 -0.2793 -0.3412  0.5497
 2372TIP3    H128607   0.642   5.933   4.366  0.6659  0.8513  0.5594
 2372TIP3    H228608   0.623   5.871   4.230 -0.9998 -0.2427  1.2557
 2373TIP3   OH228609   2.778   0.442   5.806  0.1470  0.5893 -0.4565
 2373TIP3    H128610   2.746   0.503   5.872  1.8501 -0.5464  1.5373
 2373TIP3    H228611   2.732   0.360   5.825 -0.4440  0.6109 -1.6779
 2374TIP3   OH228612   4.707   3.165  16.908  0.2244 -0.7942  0.8130
 2374TIP3    H128613   4.724   3.219  16.831 -2.5318  0.3107  0.8456
 2374TIP3    H228614   4.787   3.170  16.960  0.2403  3.1731  0.7048
 2375TIP3   OH228615   3.881   0.488   1.558  0.0839  0.6294 -0.1500
 2375TIP3    H128616   3.820   0.466   1.487 -0.9097 -0.4744  0.9884
 2375TIP3    H228617   3.833   0.549   1.614  0.7141  1.1922 -0.2074
 2376TIP3   OH228618   3.716   3.094  14.152  0.1835  0.4485 -0.2857
 2376TIP3    H128619   3.655   3.161  14.182 -1.1292 -0.5888 -0.5570
 2376TIP3    H228620   3.801   3.121  14.188  0.5121  4.2251 -3.3282
 2377TIP3   OH228621   3.039   0.117   2.773  0.6091 -0.0738  0.1089
 2377TIP3    H128622   3.002   0.030   2.787 -1.4562  0.4791 -1.4140
 2377TIP3    H228623   2.967   0.177   2.790  1.4389  1.2137 -0.7154
 2378TIP3   OH228624   2.038   5.850  12.983 -0.2081 -0.1195  0.0212
 2378TIP3    H128625   2.027   5.848  12.888 -0.0774 -0.4257  0.0126
 2378TIP3    H228626   1.964   5.800  13.017  1.2696 -2.4873 -0.0506
 2379TIP3   OH228627   0.512   0.174  11.113 -0.6967  0.0207  0.0119
 2379TIP3    H128628   0.529   0.215  11.028 -1.2084 -0.9032 -0.5577
 2379TIP3    H228629   0.417   0.164  11.116 -0.6693 -0.0908  0.6299
 2380TIP3   OH228630   6.069   3.447   5.555  0.0337 -0.1769  0.1650
 2380TIP3    H128631   6.089   3.435   5.462  0.0431  0.2995  0.1022
 2380TIP3    H228632   6.144   3.409   5.600 -0.7729 -2.0281  0.0375
 2381TIP3   OH228633   1.108   0.735  14.480 -0.1630  0.3171  0.6521
 2381TIP3    H128634   1.025   0.688  14.484  0.0376 -0.1606 -0.4777
 2381TIP3    H228635   1.169   0.673  14.439  0.4760  1.0336  0.4901
 2382TIP3   OH228636   4.705   0.507   1.213  0.0819  0.0028  0.1062
 2382TIP3    H128637   4.679   0.478   1.125 -0.5510 -3.0900  1.1751
 2382TIP3    H228638   4.650   0.583   1.230  0.5115  0.9326 -2.3036
 2383TIP3   OH228639   3.228   2.189   2.588 -0.2476  0.1650 -0.0424
 2383TIP3    H128640   3.228   2.095   2.572 -0.5665 -0.0394  1.0576
 2383TIP3    H228641   3.178   2.226   2.515 -1.0010 -0.6274  0.0576
 2384TIP3   OH228642   5.398   2.215  16.255  0.4054  0.0606 -0.9238
 2384TIP3    H128643   5.456   2.218  16.331 -0.1391 -1.7591 -0.3926
 2384TIP3    H228644   5.339   2.289  16.266  0.7974  0.2386  0.0538
 2385TIP3   OH228645   3.500   6.794  12.573 -0.9380  0.3299 -0.4538
 2385TIP3    H128646   3.414   6.792  12.530 -0.5623  1.2245 -1.2934
 2385TIP3    H228647   3.541   6.875  12.541 -0.1970  0.4672  0.7632
 2386TIP3   OH228648   2.035   3.752  13.618 -0.3353  0.4412 -0.2009
 2386TIP3    H128649   2.061   3.819  13.680  0.1441  0.6392 -0.6136
 2386TIP3    H228650   2.063   3.785  13.533  1.4780 -1.0286 -0.2421
 2387TIP3   OH228651   5.614   3.390  16.112 -0.5359 -0.0609  0.1188
 2387TIP3    H128652   5.593   3.482  16.097  1.4798  0.3218 -0.7830
 2387TIP3    H228653   5.702   3.392  16.150 -0.6290 -1.6068  0.4720
 2388TIP3   OH228654   6.084   3.814   2.649  0.3992 -0.2306 -0.6569
 2388TIP3    H128655   6.093   3.791   2.556  2.7166  0.0210 -0.5501
 2388TIP3    H228656   6.015   3.880   2.651  1.3722  0.9020 -2.4194
 2389TIP3   OH228657   3.600   6.182   5.961  0.0547  0.1349  0.2927
 2389TIP3    H128658   3.579   6.094   5.993  0.6178 -0.1485 -0.1033
 2389TIP3    H228659   3.577   6.240   6.033 -2.2187 -0.1236 -0.1364
 2390TIP3   OH228660   2.620   3.438   6.078  0.0955  0.2828 -0.5652
 2390TIP3    H128661   2.586   3.350   6.092  3.1235 -0.8552  0.4604
 2390TIP3    H228662   2.564   3.494   6.132 -1.5962 -1.0573 -0.8639
 2391TIP3   OH228663   2.570   2.907   2.642 -0.1097  0.2208  0.1701
 2391TIP3    H128664   2.569   2.832   2.702 -0.8165 -0.3010 -0.4785
 2391TIP3    H228665   2.505   2.968   2.679 -1.2202 -0.5055 -0.5585
 2392TIP3   OH228666   1.261   0.257   1.638  0.0927  0.0372 -0.0145
 2392TIP3    H128667   1.260   0.351   1.621  2.0410  0.3210  1.1216
 2392TIP3    H228668   1.341   0.226   1.595 -0.9086 -1.2781 -1.0327
 2393TIP3   OH228669   2.810   5.347  14.017  0.3403  0.0751 -0.5938
 2393TIP3    H128670   2.870   5.275  14.035 -0.8842 -0.9870 -0.5430
 2393TIP3    H228671   2.738   5.306  13.968 -0.0183  1.4256 -1.2434
 2394TIP3   OH228672   0.603   2.789   0.900  0.0178  0.0763 -0.5354
 2394TIP3    H128673   0.510   2.769   0.912  0.3740 -0.8121  1.0396
 2394TIP3    H228674   0.614   2.876   0.940  0.1295 -0.4866  0.7137
 2395TIP3   OH228675   6.085   2.286   1.883  0.2960  1.1248  0.1504
 2395TIP3    H128676   6.165   2.234   1.883 -0.4312 -0.0990 -1.5595
 2395TIP3    H228677   6.046   2.271   1.969  0.4958 -0.5950 -0.0330
 2396TIP3   OH228678   5.746   0.546   4.082  1.1219  0.1903  0.1196
 2396TIP3    H128679   5.795   0.566   4.002  0.3024  0.4642 -0.3236
 2396TIP3    H228680   5.731   0.631   4.123  1.9673  0.0053  0.8288
 2397TIP3   OH228681   0.183   6.832  12.630 -0.6800  0.0269  0.0431
 2397TIP3    H128682   0.235   6.850  12.709  2.2349  0.6415 -1.8565
 2397TIP3    H228683   0.118   6.902  12.627 -0.6030  0.2132  1.6368
 2398TIP3   OH228684   5.602   2.563   1.270  0.2095 -0.2457  0.1785
 2398TIP3    H128685   5.650   2.489   1.308 -0.7240 -1.1278 -0.3260
 2398TIP3    H228686   5.597   2.544   1.177 -0.3043  0.3133  0.0835
 2399TIP3   OH228687   2.557   3.200  11.319  0.0349  0.1459 -0.2048
 2399TIP3    H128688   2.557   3.254  11.239  0.2209  0.5556  0.0676
 2399TIP3    H228689   2.473   3.218  11.360  0.7465  1.5349  0.7394
 2400TIP3   OH228690   5.183   4.264   3.128  0.2519  0.3095  0.1950
 2400TIP3    H128691   5.140   4.277   3.212 -1.2926  1.7274 -0.7604
 2400TIP3    H228692   5.274   4.243   3.151 -0.3500 -0.3391  2.2120
 2401TIP3   OH228693   5.930   2.477  17.036 -0.2883 -0.6803  0.0695
 2401TIP3    H128694   5.957   2.385  17.030 -1.5037 -1.0191 -0.7355
 2401TIP3    H228695   5.834   2.473  17.040 -0.3241  0.5003  1.5658
 2402TIP3   OH228696   1.251   4.211   2.323  0.3930 -0.2674  0.3756
 2402TIP3    H128697   1.167   4.164   2.321  0.3326 -0.1886 -2.1361
 2402TIP3    H228698   1.302   4.166   2.390 -0.5646 -2.3419 -0.1977
 2403TIP3   OH228699   0.981   2.548   5.616  0.3643 -0.1093 -0.0487
 2403TIP3    H128700   0.957   2.498   5.694 -0.2293 -0.5947 -0.5326
 2403TIP3    H228701   0.913   2.616   5.610  0.2871 -0.2028 -0.2549
 2404TIP3   OH228702   3.716   3.435  16.730 -0.9100 -0.4497 -0.3008
 2404TIP3    H128703   3.696   3.497  16.800 -0.5781  0.3498 -0.8900
 2404TIP3    H228704   3.728   3.351  16.774 -0.2436  0.1316  0.6533
 2405TIP3   OH228705   5.972   4.689   4.583 -0.1986  0.1940 -0.5458
 2405TIP3    H128706   5.998   4.776   4.551  0.8454  0.3188  0.5618
 2405TIP3    H228707   6.002   4.628   4.516  1.1149  0.5274 -0.3036
 2406TIP3   OH228708   4.336   5.375   2.501  0.1965 -0.6056 -0.3639
 2406TIP3    H128709   4.267   5.415   2.553  0.5674  0.4495 -0.6715
 2406TIP3    H228710   4.290   5.315   2.443 -0.5352  0.5600 -1.0141
 2407TIP3   OH228711   1.373   2.203   2.403  0.0968  0.0223  0.1169
 2407TIP3    H128712   1.361   2.266   2.474 -0.3453 -0.6266  0.6332
 2407TIP3    H228713   1.464   2.214   2.376 -0.1740  1.4052 -0.3230
 2408TIP3   OH228714   1.799   0.301   0.355 -0.3655 -0.3149  0.2727
 2408TIP3    H128715   1.840   0.267   0.276  1.7754 -1.0350  1.5908
 2408TIP3    H228716   1.767   0.387   0.331  0.2691 -0.5083 -1.3691
 2409TIP3   OH228717   3.574   4.977   0.347  0.1691 -0.3231  0.5197
 2409TIP3    H128718   3.623   4.967   0.265  0.0515  1.6101  0.1609
 2409TIP3    H228719   3.625   4.929   0.412  0.7183 -1.1693 -0.5102
 2410TIP3   OH228720   4.762   0.019   3.895  0.2029  0.0688  0.3006
 2410TIP3    H128721   4.854   0.001   3.876 -0.2741  0.0514 -2.4766
 2410TIP3    H228722   4.717  -0.062   3.872 -0.6017  0.3621  0.8076
 2411TIP3   OH228723   4.809   6.343  16.984 -0.3839 -0.2107 -0.2921
 2411TIP3    H128724   4.874   6.398  16.941  1.4333 -0.6651  1.7277
 2411TIP3    H228725   4.830   6.254  16.956 -0.1000 -0.3624  0.3816
 2412TIP3   OH228726   0.070   3.257  10.709 -0.2220  0.3968 -0.2817
 2412TIP3    H128727   0.116   3.191  10.658  0.5381  0.1857  0.6532
 2412TIP3    H228728   0.060   3.331  10.649 -1.5207 -0.7149 -1.4899
 2413TIP3   OH228729   4.366   2.953  12.061 -0.0620 -0.0733  0.8393
 2413TIP3    H128730   4.359   2.990  11.973 -1.4083 -0.2076  0.8762
 2413TIP3    H228731   4.420   2.874  12.049 -0.9256 -0.5537 -0.0223
 2414TIP3   OH228732   6.148   1.435  11.984  0.5090 -0.2859  0.8413
 2414TIP3    H128733   6.129   1.527  12.002 -1.3728 -0.1502 -1.3976
 2414TIP3    H228734   6.071   1.388  12.014  0.2049 -0.7708 -0.6211
 2415TIP3   OH228735   3.085   6.687  13.305  0.2699  0.5255 -0.2088
 2415TIP3    H128736   3.063   6.616  13.366 -1.3732  0.9441 -0.2826
 2415TIP3    H228737   3.002   6.710  13.263  1.0122  1.6142 -1.1460
 2416TIP3   OH228738   1.810   5.453   4.948  0.4637  0.1199  0.1994
 2416TIP3    H128739   1.754   5.464   4.872  2.9355 -0.6537 -1.8805
 2416TIP3    H228740   1.849   5.539   4.962 -0.2910  0.3636  0.9030
 2417TIP3   OH228741   6.439   3.442  12.452 -0.2043 -0.5742  0.0493
 2417TIP3    H128742   6.479   3.495  12.520 -0.7785 -0.7917  0.5685
 2417TIP3    H228743   6.464   3.352  12.473 -0.2402 -0.6273 -0.1281
 2418TIP3   OH228744   0.957   3.689   3.526  0.0063 -0.2320  0.0677
 2418TIP3    H128745   1.036   3.648   3.490 -0.3160 -1.3207  0.5470
 2418TIP3    H228746   0.888   3.665   3.464 -0.4501 -1.6612  1.0641
 2419TIP3   OH228747   0.860   1.642   3.410  0.2347  0.6074 -0.2413
 2419TIP3    H128748   0.842   1.574   3.475  0.9076 -0.2278 -0.8953
 2419TIP3    H228749   0.775   1.665   3.374  0.1023 -1.0734 -1.1363
 2420TIP3   OH228750   1.497   3.705  16.331  0.0994 -0.2038  0.1501
 2420TIP3    H128751   1.473   3.744  16.247 -1.2012  1.6732  1.3099
 2420TIP3    H228752   1.547   3.773  16.376 -0.8026 -0.4495  1.5990
 2421TIP3   OH228753   0.985   4.716  16.086 -0.3217 -0.0307  0.7212
 2421TIP3    H128754   1.019   4.758  16.165  1.8864 -1.4087  0.5785
 2421TIP3    H228755   0.976   4.787  16.023  1.3667  0.5528  1.1028
 2422TIP3   OH228756   2.925   0.457  14.556  0.5768 -0.3491  0.8067
 2422TIP3    H128757   2.895   0.371  14.526 -0.6406  0.6544 -1.0356
 2422TIP3    H228758   2.855   0.489  14.612  0.7887 -0.3490  1.0717
 2423TIP3   OH228759   0.662   6.323   0.320  0.2322 -0.1178  0.3760
 2423TIP3    H128760   0.722   6.356   0.254  0.5531 -0.0468  0.7055
 2423TIP3    H228761   0.704   6.341   0.404 -1.5876  2.7444  0.8106
 2424TIP3   OH228762   2.429   1.764  13.311 -0.0457 -0.0629 -0.2875
 2424TIP3    H128763   2.497   1.701  13.290  0.7130  0.5837  0.1783
 2424TIP3    H228764   2.474   1.834  13.358 -1.2045 -0.1217  0.9801
 2425TIP3   OH228765   1.318   4.985  17.108 -0.8922  0.0646 -0.1521
 2425TIP3    H128766   1.408   4.980  17.075 -1.0612 -0.3301 -0.5565
 2425TIP3    H228767   1.327   5.027  17.194 -0.1194 -1.4491  0.5517
 2426TIP3   OH228768   3.370   1.980  14.250  0.2788 -0.1157  0.2952
 2426TIP3    H128769   3.430   2.048  14.221 -0.3390  1.8941  3.2353
 2426TIP3    H228770   3.285   2.005  14.214  0.4057 -0.4400 -0.2288
 2427TIP3   OH228771   2.848   2.519  15.037  0.1587  0.1750 -0.2917
 2427TIP3    H128772   2.768   2.528  14.985 -1.4175 -0.7673  1.8065
 2427TIP3    H228773   2.874   2.428  15.026 -0.2478 -0.0619  0.5901
 2428TIP3   OH228774   2.194   4.915   2.306  0.0289 -0.4048  0.3405
 2428TIP3    H128775   2.123   4.916   2.242  1.1751 -0.3693 -0.9833
 2428TIP3    H228776   2.232   4.828   2.297  1.4750  0.2847 -0.5104
 2429TIP3   OH228777   4.072   4.490  11.108 -0.2353  0.1327 -0.7985
 2429TIP3    H128778   4.079   4.569  11.053 -0.9311  0.4227 -0.4865
 2429TIP3    H228779   4.088   4.521  11.197 -1.3584  0.1036 -0.5611
 2430TIP3   OH228780   0.028   1.249  15.800 -0.0723 -0.1877 -0.0393
 2430TIP3    H128781   0.114   1.260  15.759  0.3085  3.4888  1.3781
 2430TIP3    H228782   0.045   1.194  15.877  0.6809 -0.7150 -0.5624
 2431TIP3   OH228783   6.802   2.038   4.391 -0.3332  0.4246 -0.0269
 2431TIP3    H128784   6.874   2.100   4.377  0.2964 -0.5942 -1.7045
 2431TIP3    H228785   6.739   2.086   4.444  1.3366  1.5323  1.0660
 2432TIP3   OH228786   3.177   3.619  11.975 -0.2546 -0.2379 -0.0713
 2432TIP3    H128787   3.213   3.535  11.947 -0.5178 -0.6487  0.7755
 2432TIP3    H228788   3.132   3.600  12.057 -0.6111  0.6689 -0.0383
 2433TIP3   OH228789   3.920   2.162  14.618  0.2584  0.3136 -0.3098
 2433TIP3    H128790   3.904   2.083  14.669 -1.1371  0.5042 -0.4253
 2433TIP3    H228791   3.993   2.205  14.664  0.7912 -0.8357 -0.0414
 2434TIP3   OH228792   5.943   5.737  12.199 -0.0276  0.1016 -0.6492
 2434TIP3    H128793   5.994   5.760  12.277  0.9994  0.2708 -1.3599
 2434TIP3    H228794   6.008   5.721  12.131 -0.9300  1.1899 -1.8272
 2435TIP3   OH228795   4.353   3.713   5.609 -0.2431  0.0310 -0.3440
 2435TIP3    H128796   4.283   3.690   5.669 -0.9903 -0.6044 -1.4255
 2435TIP3    H228797   4.323   3.794   5.567  1.0960  1.5075  1.3979
 2436TIP3   OH228798   2.785   5.014   2.468 -0.8715 -0.0969  0.1379
 2436TIP3    H128799   2.769   4.944   2.531 -1.2105 -0.9654 -0.8895
 2436TIP3    H228800   2.704   5.020   2.418 -0.9283  1.1995  0.3445
 2437TIP3   OH228801   3.520   2.248  15.557 -0.2267 -0.4573  0.0136
 2437TIP3    H128802   3.473   2.211  15.483  0.3790 -1.2071 -0.0103
 2437TIP3    H228803   3.488   2.337  15.564 -1.4261 -0.8568 -0.1839
 2438TIP3   OH228804   1.138   0.703  16.328 -0.4575  0.2159 -0.0321
 2438TIP3    H128805   1.173   0.626  16.284  2.1905  1.7054 -0.7524
 2438TIP3    H228806   1.203   0.723  16.396 -1.3439  1.5364  0.4722
 2439TIP3   OH228807   1.727   5.837   3.867  0.1308 -0.5676  0.4824
 2439TIP3    H128808   1.765   5.803   3.785  0.5141 -1.0424  0.8516
 2439TIP3    H228809   1.632   5.827   3.855  0.1602 -0.2912 -0.0482
 2440TIP3   OH228810   2.922   3.066  13.563  0.0180  0.8911  0.1564
 2440TIP3    H128811   2.865   3.104  13.629 -1.8237  1.1454 -1.5040
 2440TIP3    H228812   2.949   2.982  13.599  0.0881  1.5571  1.7320
 2441TIP3   OH228813   4.076   3.417  12.809 -0.4197  0.1666  0.2017
 2441TIP3    H128814   3.995   3.437  12.856  0.0589  3.2612 -0.1111
 2441TIP3    H228815   4.143   3.415  12.877 -0.4423 -0.4787  0.2162
 2442TIP3   OH228816   5.194   2.604   4.665  0.4774  0.3703 -0.0098
 2442TIP3    H128817   5.188   2.516   4.703  0.4539  0.1851 -0.4388
 2442TIP3    H228818   5.287   2.617   4.648  0.5403  0.6217  0.4943
 2443TIP3   OH228819   4.086   1.986   4.490  0.3367 -0.7030 -0.2819
 2443TIP3    H128820   4.066   1.940   4.409  2.5455 -2.3207 -0.0171
 2443TIP3    H228821   4.134   2.064   4.463 -1.8627  0.5934 -0.6422
 2444TIP3   OH228822   3.322   0.418   4.363 -0.5993  0.8099  0.5760
 2444TIP3    H128823   3.382   0.468   4.308  0.4534 -1.8778 -0.8997
 2444TIP3    H228824   3.369   0.405   4.445 -0.4316  1.2314  0.5491
 2445TIP3   OH228825   1.444   6.150  17.101 -0.1343 -0.4949  0.0848
 2445TIP3    H128826   1.484   6.144  17.187  0.4435 -0.3575 -0.1684
 2445TIP3    H228827   1.450   6.243  17.078 -0.9619 -0.4006  0.2056
 2446TIP3   OH228828   2.429   5.654  12.683  0.1399 -0.4067  0.8583
 2446TIP3    H128829   2.365   5.585  12.700  0.4893 -0.5704  1.5620
 2446TIP3    H228830   2.387   5.734  12.712 -0.0307 -0.4045  0.6123
 2447TIP3   OH228831   0.423   5.379  13.723 -0.2821 -0.1475 -0.6011
 2447TIP3    H128832   0.345   5.398  13.671  0.1597 -1.4453 -1.7716
 2447TIP3    H228833   0.412   5.287  13.750  0.0563  0.1533  0.6408
 2448TIP3   OH228834   5.114   3.388   5.331  0.0977  0.2844 -0.5046
 2448TIP3    H128835   5.193   3.440   5.318 -0.5083  1.5684  0.7059
 2448TIP3    H228836   5.072   3.386   5.245  0.6548  0.9297 -0.7989
 2449TIP3   OH228837   5.880   3.571   3.828 -0.2108 -0.4167  0.0663
 2449TIP3    H128838   5.921   3.533   3.750  0.1747  0.7710 -0.3280
 2449TIP3    H228839   5.788   3.547   3.821 -0.4650  0.8624 -1.5123
 2450TIP3   OH228840   0.331   5.519  11.566  0.1635 -0.2722  0.1130
 2450TIP3    H128841   0.284   5.480  11.639  0.9133  0.9719  1.2952
 2450TIP3    H228842   0.370   5.599  11.602 -0.0282  0.7549 -1.8161
 2451TIP3   OH228843   0.696   3.283  16.711 -0.0953  0.4718 -0.2212
 2451TIP3    H128844   0.672   3.193  16.686 -0.4561 -0.1223  2.0498
 2451TIP3    H228845   0.692   3.283  16.806  0.7065  2.7109 -0.1375
 2452TIP3   OH228846   4.277   3.769  14.072  0.1546  0.2778 -0.4687
 2452TIP3    H128847   4.296   3.724  13.990 -0.2193  1.9836 -1.5364
 2452TIP3    H228848   4.352   3.828  14.084 -0.0724  0.4476  0.1253
 2453TIP3   OH228849   4.993   5.480  11.303  0.5338 -0.0927  0.5981
 2453TIP3    H128850   5.074   5.516  11.268  0.9477  1.5163  2.9551
 2453TIP3    H228851   4.993   5.507  11.395 -1.3389 -2.4625  1.3795
 2454TIP3   OH228852   4.088   2.638   4.134 -0.1598  0.3334 -0.0452
 2454TIP3    H128853   4.078   2.544   4.150  1.4491  0.1254 -0.0250
 2454TIP3    H228854   4.154   2.643   4.065  0.1472  1.4603  0.3086
 2455TIP3   OH228855   1.986   5.285  11.159  1.0628 -0.2663  0.2011
 2455TIP3    H128856   1.986   5.285  11.063  0.0782  0.0267  0.1918
 2455TIP3    H228857   2.005   5.195  11.183 -2.1697 -1.2113 -0.3137
 2456TIP3   OH228858   1.376   6.513  11.068 -0.3100 -0.1784 -0.7200
 2456TIP3    H128859   1.383   6.586  11.007  1.0350  1.0517  0.7947
 2456TIP3    H228860   1.375   6.555  11.155 -3.3061 -1.7691  0.1251
 2457TIP3   OH228861   5.507   3.994  13.346  0.5486 -0.7635 -0.1923
 2457TIP3    H128862   5.524   3.960  13.258 -0.0191 -3.2447  0.5785
 2457TIP3    H228863   5.461   4.076  13.331  2.3206 -0.0380 -2.1989
 2458TIP3   OH228864   3.449   4.571  11.113  0.0494  0.1328  0.0076
 2458TIP3    H128865   3.460   4.646  11.056  1.5382 -0.5618 -0.6800
 2458TIP3    H228866   3.530   4.521  11.104  0.4857  0.1209  2.9442
 2459TIP3   OH228867   5.503   5.181   4.221  0.4506 -0.0658 -0.7337
 2459TIP3    H128868   5.558   5.225   4.157  1.4544 -0.1799  0.0388
 2459TIP3    H228869   5.500   5.240   4.296 -0.3708 -0.1212 -0.7135
 2460TIP3   OH228870   6.412   1.290   5.957  0.1184 -0.2480  0.0254
 2460TIP3    H128871   6.434   1.242   6.037 -0.0937 -0.7514 -0.2104
 2460TIP3    H228872   6.317   1.282   5.949  0.0841  0.2020 -0.0276
 2461TIP3   OH228873   0.376   5.040   1.888  0.4225 -0.6551  0.1075
 2461TIP3    H128874   0.335   5.099   1.824  0.9660 -0.5063 -0.1140
 2461TIP3    H228875   0.304   4.992   1.926 -0.3521  1.8053  2.0043
 2462TIP3   OH228876   6.806   6.411  15.516 -0.1062  0.7092 -0.0118
 2462TIP3    H128877   6.810   6.361  15.597  0.5838 -1.2529 -1.1891
 2462TIP3    H228878   6.713   6.424  15.500 -0.2456  1.6800  1.3766
 2463TIP3   OH228879   1.241   6.761   4.215 -0.3116  0.0601  0.0658
 2463TIP3    H128880   1.188   6.825   4.262  0.3701  0.1393  0.7393
 2463TIP3    H228881   1.249   6.687   4.275 -0.4163 -0.3313 -0.3917
 2464TIP3   OH228882   4.637   2.325  15.897 -0.0612 -0.3671 -0.6894
 2464TIP3    H128883   4.654   2.378  15.818 -0.4091  0.8623  0.0340
 2464TIP3    H228884   4.682   2.373  15.967 -2.0319  0.0733  0.3300
 2465TIP3   OH228885   4.387   4.952   5.820 -0.0679  0.0996 -0.4244
 2465TIP3    H128886   4.340   5.019   5.869 -0.5510  0.2278 -1.0507
 2465TIP3    H228887   4.321   4.884   5.804  0.5418 -0.7780  0.6534
 2466TIP3   OH228888   0.226   4.641   1.051 -0.0168  0.0253  0.0552
 2466TIP3    H128889   0.204   4.550   1.031 -1.2572  0.1502  0.7558
 2466TIP3    H228890   0.301   4.635   1.110  1.0385 -0.4613 -1.2689
 2467TIP3   OH228891   3.683   2.060  15.163  0.2449  0.2108 -0.0776
 2467TIP3    H128892   3.777   2.051  15.148  0.1471 -0.3217 -0.3889
 2467TIP3    H228893   3.672   2.150  15.196  0.6401  0.8985 -1.7390
 2468TIP3   OH228894   5.701   1.792  16.129 -0.5112  0.1750 -0.2057
 2468TIP3    H128895   5.733   1.832  16.210 -1.1887 -0.0487  0.1793
 2468TIP3    H228896   5.768   1.727  16.107  0.1438  0.8875 -0.3472
 2469TIP3   OH228897   4.023   6.192   5.586  0.1236  0.3158  0.2544
 2469TIP3    H128898   4.103   6.224   5.542  1.2283 -0.7268  1.4183
 2469TIP3    H228899   3.952   6.234   5.539  1.1805 -0.9711 -2.8306
 2470TIP3   OH228900   1.568   5.180   2.208  0.0676  0.2015 -0.3647
 2470TIP3    H128901   1.554   5.125   2.130 -2.7528  0.4671 -0.1594
 2470TIP3    H228902   1.539   5.267   2.181  2.0119  1.0505  0.1161
 2471TIP3   OH228903   4.086   1.727  12.328 -0.4426 -0.8965 -0.1069
 2471TIP3    H128904   4.052   1.770  12.249 -0.7166 -0.7471  0.0918
 2471TIP3    H228905   4.013   1.674  12.359 -0.2912 -1.0582 -0.0285
 2472TIP3   OH228906   1.000   3.799  16.909 -0.2200 -0.2022  0.1253
 2472TIP3    H128907   1.077   3.806  16.854 -0.2845 -0.9664 -0.0758
 2472TIP3    H228908   1.033   3.804  16.998  0.1988 -1.5584  0.0661
 2473TIP3   OH228909   4.570   1.174  16.971  1.2106  0.1742 -0.8078
 2473TIP3    H128910   4.515   1.239  17.014  2.4872  0.8003 -0.0558
 2473TIP3    H228911   4.558   1.095  17.023  0.9437  0.2779 -0.7092
 2474TIP3   OH228912   3.886   4.600   3.077  0.7163 -0.3337  0.2734
 2474TIP3    H128913   3.901   4.658   3.152  1.4503 -1.3564  0.9506
 2474TIP3    H228914   3.825   4.534   3.110 -1.1400  0.7137 -0.8712
 2475TIP3   OH228915   5.968   5.409   2.940  0.0124  0.2950  0.0595
 2475TIP3    H128916   6.052   5.408   2.985  0.0050 -1.5260  0.1303
 2475TIP3    H228917   5.903   5.399   3.010 -0.1738  0.3690 -0.1025
 2476TIP3   OH228918   3.981   5.369  14.751 -1.0514  0.1495 -0.4445
 2476TIP3    H128919   3.971   5.275  14.766  2.0191 -0.1333  0.6292
 2476TIP3    H228920   4.068   5.377  14.711 -0.8368  2.5998  0.3670
 2477TIP3   OH228921   3.448   1.661  16.073  0.3924  0.2009 -0.1635
 2477TIP3    H128922   3.430   1.754  16.063 -2.2139 -0.3630 -1.7991
 2477TIP3    H228923   3.443   1.626  15.984 -2.3250 -2.0140  0.7320
 2478TIP3   OH228924   4.437   5.182  13.467  0.6078 -0.4090 -0.1269
 2478TIP3    H128925   4.344   5.195  13.488  0.9028 -0.1774  1.1767
 2478TIP3    H228926   4.445   5.208  13.376 -0.5111  0.1064 -0.1030
 2479TIP3   OH228927   5.262   6.082  15.958  0.3098  0.4886 -0.2238
 2479TIP3    H128928   5.221   6.152  15.906  1.5774  1.0709 -0.4894
 2479TIP3    H228929   5.227   6.093  16.046  1.3572  2.2289  0.0151
 2480TIP3   OH228930   5.923   5.258  12.435 -0.0471  0.2422 -0.2580
 2480TIP3    H128931   5.856   5.303  12.382 -1.6877 -0.7726  0.8509
 2480TIP3    H228932   5.959   5.192  12.376  0.7730  1.4773 -1.1973
 2481TIP3   OH228933   4.477   0.869  12.095  0.6268 -0.0840 -0.1917
 2481TIP3    H128934   4.566   0.869  12.059  1.3347 -0.7159  1.4724
 2481TIP3    H228935   4.421   0.870  12.018  2.0624  0.8414 -1.2844
 2482TIP3   OH228936   4.715   0.182  16.444  0.1607  0.1466 -0.5934
 2482TIP3    H128937   4.667   0.215  16.520 -1.0735 -2.7189 -0.0155
 2482TIP3    H228938   4.651   0.187  16.372  0.8006  1.3079 -1.1156
 2483TIP3   OH228939   0.655   1.612  12.206  0.3275  0.3307  0.3459
 2483TIP3    H128940   0.742   1.645  12.179  0.0849  0.9990  0.3485
 2483TIP3    H228941   0.619   1.683  12.259 -0.3836  0.2190  0.0158
 2484TIP3   OH228942   5.474   4.314   4.556 -0.2696  0.1952 -0.2480
 2484TIP3    H128943   5.555   4.266   4.575 -0.2434  0.5142  0.4581
 2484TIP3    H228944   5.453   4.289   4.466 -0.9062 -2.0851  0.4689
 2485TIP3   OH228945   0.750   5.343  13.707 -0.4313 -0.0549 -0.0628
 2485TIP3    H128946   0.702   5.277  13.656  1.0232 -0.0144 -1.5774
 2485TIP3    H228947   0.709   5.426  13.681 -0.5317 -0.1398 -0.1824
 2486TIP3   OH228948   3.805   6.407   4.187 -0.3941 -0.0240  0.2512
 2486TIP3    H128949   3.801   6.314   4.207  0.3157 -0.3558 -1.0751
 2486TIP3    H228950   3.716   6.431   4.163 -0.8553 -0.0487  1.8024
 2487TIP3   OH228951   6.715   6.056   1.452  0.1224 -0.1102  0.2495
 2487TIP3    H128952   6.752   5.971   1.479 -2.7465 -2.0410 -1.4100
 2487TIP3    H228953   6.717   6.054   1.356  0.3848  1.9525  0.1636
 2488TIP3   OH228954   6.330   6.320   4.241  0.0746 -0.2350 -0.0737
 2488TIP3    H128955   6.244   6.359   4.226 -0.3423 -0.3744  1.7436
 2488TIP3    H228956   6.312   6.233   4.277  0.8981  0.5390  2.3929
 2489TIP3   OH228957   5.103   1.190  14.916 -0.8741  0.0847  0.0358
 2489TIP3    H128958   5.012   1.169  14.893 -1.1789 -0.1457  1.3660
 2489TIP3    H228959   5.155   1.155  14.844 -1.7670 -0.7461 -0.2249
 2490TIP3   OH228960   6.777   1.759  11.973  0.6526  0.0462  0.6462
 2490TIP3    H128961   6.693   1.713  11.970  0.7791 -0.1506 -0.8486
 2490TIP3    H228962   6.759   1.840  12.021  0.3665 -1.3740  3.0751
 2491TIP3   OH228963   5.749   0.229  13.101  0.3994  0.3092  0.7632
 2491TIP3    H128964   5.729   0.256  13.011 -2.7122  1.3133  1.6158
 2491TIP3    H228965   5.761   0.310  13.149 -0.1854 -0.1255  1.6734
 2492TIP3   OH228966   2.900   0.642   0.076 -0.0682 -0.1968 -0.6291
 2492TIP3    H128967   2.813   0.672   0.050  0.3508  1.2647 -0.4550
 2492TIP3    H228968   2.960   0.687   0.017  0.6263 -0.3038 -0.0267
 2493TIP3   OH228969   4.770   5.752   1.087 -0.0115 -0.5501 -0.1406
 2493TIP3    H128970   4.795   5.730   1.177  0.9115  0.0308 -0.2471
 2493TIP3    H228971   4.763   5.847   1.087 -2.8567 -0.6686  0.0301
 2494TIP3   OH228972   1.910   5.085  11.874 -0.0796  0.4025  0.5174
 2494TIP3    H128973   1.824   5.045  11.855 -0.1677  1.0874 -0.5808
 2494TIP3    H228974   1.897   5.129  11.958 -0.4321 -0.5471  0.9823
 2495TIP3   OH228975   3.481   2.914   3.031 -0.3900  0.0420 -0.2302
 2495TIP3    H128976   3.489   2.941   2.939 -2.7661  1.5125 -0.0818
 2495TIP3    H228977   3.552   2.959   3.076  0.7670 -0.6484 -1.3152
 2496TIP3   OH228978   2.961   1.965  15.913 -0.3635 -0.0133  0.3683
 2496TIP3    H128979   2.996   2.051  15.888 -1.3316  0.6786  1.3059
 2496TIP3    H228980   3.038   1.916  15.942  0.5751 -0.3241 -2.3216
 2497TIP3   OH228981   4.990   2.794   0.055 -0.2317  0.1202 -0.0075
 2497TIP3    H128982   5.073   2.750   0.034  0.8673  2.6592 -1.5154
 2497TIP3    H228983   4.989   2.798   0.150  1.1922 -0.3200  0.0571
 2498TIP3   OH228984   1.833   2.688   5.696 -0.0130  0.0321  0.0667
 2498TIP3    H128985   1.919   2.727   5.683  0.6313 -0.8980  1.2647
 2498TIP3    H228986   1.795   2.684   5.609  0.2020  2.5380 -0.2213
 2499TIP3   OH228987   6.213   3.698   5.765 -0.0641 -0.3417 -0.3730
 2499TIP3    H128988   6.211   3.605   5.791  1.8224  0.1449  1.8314
 2499TIP3    H228989   6.138   3.707   5.706 -2.0945 -2.6367  1.5889
 2500TIP3   OH228990   3.623   4.108   7.585 -0.0204 -0.3359 -0.1499
 2500TIP3    H128991   3.648   4.158   7.507 -0.1189  0.9842  0.6459
 2500TIP3    H228992   3.568   4.037   7.550  0.4421 -0.1384 -1.3372
 2501TIP3   OH228993   1.520   2.286   0.689  0.0949 -0.2138 -0.1819
 2501TIP3    H128994   1.577   2.302   0.614 -0.1000  0.2322 -0.2396
 2501TIP3    H228995   1.434   2.269   0.651  0.0858 -0.4009 -0.0763
 2502TIP3   OH228996   3.815   2.201  13.205 -0.1625 -0.8273  0.3122
 2502TIP3    H128997   3.786   2.110  13.216  0.5389 -1.1450 -0.3662
 2502TIP3    H228998   3.761   2.251  13.266 -4.1716 -0.9698 -2.7687
 2503TIP3   OH228999   2.143   6.351   5.806  0.4134 -0.2154  0.2565
 2503TIP3    H129000   2.054   6.359   5.772  0.1295  0.5852  1.1455
 2503TIP3    H229001   2.199   6.394   5.741  0.3246 -1.7237 -0.8864
 2504TIP3   OH229002   4.864   6.335  11.637  0.4652 -0.0968  0.3183
 2504TIP3    H129003   4.957   6.336  11.615  0.7420  1.2740  1.4093
 2504TIP3    H229004   4.857   6.391  11.715 -1.2278 -0.4105  0.4276
 2505TIP3   OH229005   0.802   4.760  14.080  0.0990 -0.1481 -0.1053
 2505TIP3    H129006   0.754   4.840  14.101 -1.1341 -0.9731  0.3286
 2505TIP3    H229007   0.772   4.737  13.993  1.1663  0.3471 -0.6251
 2506TIP3   OH229008   3.430   5.896  11.670  0.2985  0.2431 -0.5638
 2506TIP3    H129009   3.515   5.941  11.666  0.6236 -0.2192  0.6638
 2506TIP3    H229010   3.382   5.942  11.739  0.5425 -1.0969  0.5375
 2507TIP3   OH229011   2.319   0.933   0.887  0.3182 -0.2574 -0.0342
 2507TIP3    H129012   2.374   0.862   0.922  1.1245  0.8324  0.9555
 2507TIP3    H229013   2.230   0.896   0.886  0.8131 -1.4976 -0.1539
 2508TIP3   OH229014   1.179   1.545   4.393  0.2722  0.2523  0.0499
 2508TIP3    H129015   1.215   1.571   4.478  2.3204 -0.8342 -0.4137
 2508TIP3    H229016   1.229   1.597   4.330 -1.2246  1.0435 -0.5202
 2509TIP3   OH229017   4.599   4.921  16.376  0.2759  0.3111  0.4055
 2509TIP3    H129018   4.632   5.006  16.346 -1.2435  0.7388 -0.1734
 2509TIP3    H229019   4.601   4.865  16.299 -0.6700  0.4638  0.2555
 2510TIP3   OH229020   1.157   2.589  15.820 -0.1422  0.3801  0.4017
 2510TIP3    H129021   1.118   2.666  15.861  1.6264  1.7819 -0.4090
 2510TIP3    H229022   1.088   2.523  15.823 -1.4452  1.7141  1.8654
 2511TIP3   OH229023   5.478   6.206  11.565 -0.2363 -0.3931 -0.4848
 2511TIP3    H129024   5.500   6.299  11.556 -1.3611  0.2676  2.5532
 2511TIP3    H229025   5.528   6.177  11.641  0.1774 -2.3659 -1.4389
 2512TIP3   OH229026   5.439   2.977  10.847  0.2309 -0.0308  0.4834
 2512TIP3    H129027   5.406   3.056  10.889 -1.6197 -0.6705  0.3355
 2512TIP3    H229028   5.436   2.996  10.754  0.5630  0.0173  0.4836
 2513TIP3   OH229029   6.229   4.735  13.729 -0.4033 -0.1699  0.4196
 2513TIP3    H129030   6.315   4.719  13.768 -0.1416 -2.2415 -0.8414
 2513TIP3    H229031   6.170   4.677  13.776 -0.9528  0.5858  0.6747
 2514TIP3   OH229032   0.879   4.281  11.649  0.1605 -0.1459  0.1953
 2514TIP3    H129033   0.895   4.332  11.570 -0.1736  0.0568  0.2581
 2514TIP3    H229034   0.817   4.213  11.621  2.0833 -1.7781 -0.3891
 2515TIP3   OH229035   1.363   5.276   1.453  0.5811 -0.0818 -0.3069
 2515TIP3    H129036   1.295   5.218   1.487  0.1816  1.5682  1.8989
 2515TIP3    H229037   1.319   5.330   1.388  0.0034  0.3464  0.4338
 2516TIP3   OH229038   3.122   6.123  14.960 -0.4440  0.4400  0.4464
 2516TIP3    H129039   3.055   6.060  14.934  0.0555 -0.0687  0.3778
 2516TIP3    H229040   3.195   6.106  14.901  0.3567 -0.1034  1.5441
 2517TIP3   OH229041   1.731   5.170   5.709  0.2304  0.0177 -0.4864
 2517TIP3    H129042   1.719   5.076   5.701 -1.0792  0.0077  0.9260
 2517TIP3    H229043   1.685   5.193   5.791 -0.6369  2.0516 -1.4590
 2518TIP3   OH229044   4.043   1.837  16.707  0.4649  0.7997 -0.5354
 2518TIP3    H129045   3.953   1.823  16.677 -0.0080 -0.8417  1.4164
 2518TIP3    H229046   4.096   1.828  16.628 -0.9138 -0.4815 -1.3776
 2519TIP3   OH229047   1.739   0.217   5.314  0.1811  0.7092  0.1826
 2519TIP3    H129048   1.814   0.198   5.371  0.9891  0.0819 -1.0529
 2519TIP3    H229049   1.681   0.269   5.369  1.5670  1.3100  1.1492
 2520TIP3   OH229050   1.035   6.001   2.932 -0.3229  0.2725  0.0973
 2520TIP3    H129051   1.068   5.948   2.859 -0.1789 -0.9668  1.0377
 2520TIP3    H229052   1.106   5.999   2.996 -0.6298  0.9928  0.4649
 2521TIP3   OH229053   0.518   1.032   3.184 -0.0144  0.3327 -0.7014
 2521TIP3    H129054   0.439   0.984   3.160 -0.1984  0.3615 -0.1717
 2521TIP3    H229055   0.589   0.969   3.173 -0.0596  0.4082 -1.5184
 2522TIP3   OH229056   0.167   4.573   0.565  0.3521  0.0080 -0.3231
 2522TIP3    H129057   0.228   4.646   0.555  0.2693 -0.2790 -4.0530
 2522TIP3    H229058   0.223   4.498   0.586  0.8885  0.3723 -0.4239
 2523TIP3   OH229059   4.863   4.420   2.880  0.7051  0.2878  0.1093
 2523TIP3    H129060   4.957   4.411   2.892  0.6287  0.7299  1.1627
 2523TIP3    H229061   4.853   4.471   2.799  1.3850  0.6205  0.2290
 2524TIP3   OH229062   0.545   3.050  14.701 -0.2334  0.1170  0.3819
 2524TIP3    H129063   0.620   2.997  14.728  0.7882  1.4848  0.3439
 2524TIP3    H229064   0.506   3.001  14.628  1.5553  0.1222 -0.6224
 2525TIP3   OH229065   6.652   1.143  13.606  1.1131 -0.1005  0.0570
 2525TIP3    H129066   6.599   1.134  13.685  0.9469 -1.7627 -0.2105
 2525TIP3    H229067   6.631   1.066  13.554  1.2380  0.9476 -1.6261
 2526TIP3   OH229068   3.842   2.054  11.081  0.0831 -0.5310  0.3747
 2526TIP3    H129069   3.921   2.009  11.052 -0.8602 -1.1500 -1.3771
 2526TIP3    H229070   3.787   2.060  11.003 -1.1422  0.8965  1.2783
 2527TIP3   OH229071   6.504   5.256  15.935 -0.3884 -0.5742  0.2500
 2527TIP3    H129072   6.546   5.210  15.862 -0.5358 -1.6539  0.8278
 2527TIP3    H229073   6.546   5.220  16.013 -0.2442  0.5523  0.7219
 2528TIP3   OH229074   1.720   5.679  15.928  0.3160  0.2119 -0.1075
 2528TIP3    H129075   1.632   5.678  15.967  0.9664  1.2054  1.4802
 2528TIP3    H229076   1.779   5.657  16.001  1.3866 -0.5838 -1.1793
 2529TIP3   OH229077   6.171   0.606  15.720  0.0778 -0.1406 -0.0959
 2529TIP3    H129078   6.123   0.582  15.799  1.2113 -2.4440 -0.0238
 2529TIP3    H229079   6.192   0.699  15.731 -1.8325  0.1950  1.1584
 2530TIP3   OH229080   1.776   1.477  16.248 -0.1436  0.3422  0.7606
 2530TIP3    H129081   1.702   1.512  16.296 -0.4024 -1.5308  1.8209
 2530TIP3    H229082   1.758   1.500  16.156 -0.4773  2.5147  1.3234
 2531TIP3   OH229083   2.149   3.736  13.946 -0.1861 -0.4738  0.2630
 2531TIP3    H129084   2.181   3.660  13.896 -1.1413 -1.1629  0.6756
 2531TIP3    H229085   2.179   3.720  14.035 -0.0244 -0.1455  0.2670
 2532TIP3   OH229086   5.084   3.923   0.002 -0.2028 -0.3473  0.1767
 2532TIP3    H129087   5.069   3.995   0.063  1.1814 -0.2317  0.4050
 2532TIP3    H229088   5.138   3.861   0.050 -0.3743 -0.9768 -0.4237
 2533TIP3   OH229089   1.821   0.796   4.379 -0.3621  0.4715  0.3289
 2533TIP3    H129090   1.821   0.701   4.392  0.0796  0.3943 -0.2168
 2533TIP3    H229091   1.729   0.820   4.380 -0.4824  0.0198  0.3557
 2534TIP3   OH229092   6.008   2.705  16.803  0.7730 -0.0009 -0.2653
 2534TIP3    H129093   5.995   2.632  16.863  0.7409 -0.0876 -0.3776
 2534TIP3    H229094   5.988   2.783  16.855 -0.6217 -0.1444 -0.5602
 2535TIP3   OH229095   0.152   0.243   2.791  0.0314 -0.4019  0.3013
 2535TIP3    H129096   0.063   0.213   2.775  0.3675 -1.7397  0.8092
 2535TIP3    H229097   0.145   0.305   2.862 -0.4347 -0.9473  0.7396
 2536TIP3   OH229098   5.462   3.436   4.814 -0.5263 -0.1927 -0.4054
 2536TIP3    H129099   5.410   3.390   4.880 -0.5340  2.5895  1.6628
 2536TIP3    H229100   5.402   3.502   4.778  0.2013 -0.1125 -1.5095
 2537TIP3   OH229101   4.053   5.975   2.410  0.2360  0.5876  0.2430
 2537TIP3    H129102   4.081   5.891   2.448 -0.4161  0.1816 -0.1555
 2537TIP3    H229103   4.045   5.957   2.316 -0.4086  0.9522  0.2228
 2538TIP3   OH229104   5.603   4.093  10.288 -0.6954 -0.2032 -0.0600
 2538TIP3    H129105   5.656   4.170  10.270 -0.3102 -0.3619  0.3705
 2538TIP3    H229106   5.665   4.021  10.290 -0.7708 -0.2584  1.4230
 2539TIP3   OH229107   5.212   3.270   2.551 -0.8486  0.1692 -0.1862
 2539TIP3    H129108   5.186   3.215   2.477  0.8297  1.1484 -1.5950
 2539TIP3    H229109   5.202   3.360   2.519 -0.6393  0.6279  0.9831
 2540TIP3   OH229110   6.059   4.274  14.831 -0.5549  0.3408 -0.3932
 2540TIP3    H129111   6.025   4.186  14.814 -1.2225  0.4475  0.3278
 2540TIP3    H229112   6.105   4.298  14.751  0.6120 -1.1167 -0.2036
 2541TIP3   OH229113   1.787   4.891  11.223 -0.4704  0.2441  0.1538
 2541TIP3    H129114   1.739   4.808  11.219  1.0381 -0.7473  1.4293
 2541TIP3    H229115   1.830   4.897  11.137 -1.6988  0.4377 -0.4683
 2542TIP3   OH229116   5.620   5.112  16.648  0.6907 -0.0870  0.4133
 2542TIP3    H129117   5.623   5.173  16.574 -0.3406 -1.0298 -0.4359
 2542TIP3    H229118   5.564   5.040  16.618  0.7110 -0.7640  1.9107
 2543TIP3   OH229119   2.109   6.406  15.078 -0.0175 -0.1179 -0.0984
 2543TIP3    H129120   2.019   6.423  15.107  0.3586  0.9598  0.4644
 2543TIP3    H229121   2.118   6.311  15.084 -0.1067 -0.0241  2.9799
 2544TIP3   OH229122   6.311   4.953   0.207  0.2671 -0.8488  0.0069
 2544TIP3    H129123   6.331   4.984   0.296  2.0404  0.3886 -0.7572
 2544TIP3    H229124   6.222   4.984   0.190  0.7375  0.8949  0.5469
 2545TIP3   OH229125   0.387   1.025   2.375  0.1854 -0.1179  0.1047
 2545TIP3    H129126   0.435   1.096   2.333 -0.0782  0.9022  1.4397
 2545TIP3    H229127   0.370   0.962   2.305 -3.3907  3.0719 -2.2925
 2546TIP3   OH229128   0.671   4.965  14.236  0.1178  0.0276  0.6718
 2546TIP3    H129129   0.750   5.019  14.233  0.1674  0.0140  1.4920
 2546TIP3    H229130   0.658   4.947  14.329  0.1438 -1.4266  0.4182
 2547TIP3   OH229131   3.993   6.061  16.253  0.1233  0.6441 -0.6475
 2547TIP3    H129132   3.906   6.100  16.263  0.4992  1.3246  0.0008
 2547TIP3    H229133   4.026   6.098  16.171 -0.4910 -0.2074 -1.3023
 2548TIP3   OH229134   2.084   0.740   1.458 -0.2794 -0.1970 -0.2094
 2548TIP3    H129135   2.152   0.755   1.392 -0.1646  0.5473  0.0690
 2548TIP3    H229136   2.010   0.705   1.410 -0.7003  1.6370 -0.9676
 2549TIP3   OH229137   5.631   6.566   0.046  0.4224 -0.4592 -0.6005
 2549TIP3    H129138   5.623   6.549   0.139 -1.4576 -0.3690 -0.7074
 2549TIP3    H229139   5.715   6.528   0.022  0.7918 -0.7657  1.0594
 2550TIP3   OH229140   0.072   1.875  15.194 -0.1636 -0.2739 -0.1651
 2550TIP3    H129141  -0.012   1.864  15.238 -0.2177 -1.9404 -0.6152
 2550TIP3    H229142   0.136   1.839  15.255 -0.1946 -2.2161 -1.1979
 2551TIP3   OH229143   5.725   5.960   1.258 -0.0757 -0.2168  0.4092
 2551TIP3    H129144   5.781   5.958   1.335 -0.6191  0.2512  0.8260
 2551TIP3    H229145   5.654   6.020   1.282 -0.7627 -0.8156 -0.0955
 2552TIP3   OH229146   4.397   3.439  16.313  0.5197  0.0269  0.5518
 2552TIP3    H129147   4.354   3.524  16.305  0.3740 -0.0801  0.1644
 2552TIP3    H229148   4.385   3.398  16.227  0.3754 -0.4849  0.8145
 2553TIP3   OH229149   3.250   2.920   2.650  0.2342 -0.4341  0.0083
 2553TIP3    H129150   3.259   2.832   2.686  0.2395 -0.6023 -0.4062
 2553TIP3    H229151   3.335   2.961   2.665 -0.3998  0.2360  2.1438
 2554TIP3   OH229152   5.882   1.243   6.406  0.0991 -0.3714  0.1626
 2554TIP3    H129153   5.900   1.164   6.457 -0.6235 -1.8515 -1.7570
 2554TIP3    H229154   5.959   1.256   6.352 -0.1830 -0.3295 -0.2327
 2555TIP3   OH229155   5.432   6.731   5.208  0.0734 -0.1237 -0.1610
 2555TIP3    H129156   5.495   6.794   5.174 -1.4001  1.9815  0.7822
 2555TIP3    H229157   5.348   6.778   5.209 -1.8926 -3.1789 -2.5857
 2556TIP3   OH229158   3.462   1.884  14.492 -0.0022 -0.3276 -0.0245
 2556TIP3    H129159   3.388   1.852  14.542 -0.8255  2.8681  1.0440
 2556TIP3    H229160   3.423   1.924  14.414  0.7358 -0.1394 -0.3091
 2557TIP3   OH229161   3.479   5.593  13.625 -0.3982 -0.2396 -0.1203
 2557TIP3    H129162   3.572   5.573  13.615 -0.4182  0.0689 -1.0348
 2557TIP3    H229163   3.441   5.574  13.539 -1.3865 -1.3942  0.5415
 2558TIP3   OH229164   1.029   6.312   2.446 -0.3657  0.0220  0.2822
 2558TIP3    H129165   0.982   6.271   2.374 -0.9421 -0.0990  0.7230
 2558TIP3    H229166   1.031   6.405   2.424 -0.7022  0.0108  0.1965
 2559TIP3   OH229167   1.792   3.029   6.544 -0.4202 -0.2327  0.1769
 2559TIP3    H129168   1.817   3.034   6.451  1.8861  3.8281  0.7771
 2559TIP3    H229169   1.707   3.073   6.548  0.6879  2.0045  0.2205
 2560TIP3   OH229170   4.896   4.068  15.975 -0.3236 -0.0066  0.3916
 2560TIP3    H129171   4.902   3.974  15.957 -1.6165 -0.1292  0.5098
 2560TIP3    H229172   4.874   4.107  15.891 -1.5159 -0.0184  0.6868
 2561TIP3   OH229173   6.067   2.289   2.166 -0.6406  0.3068 -0.0815
 2561TIP3    H129174   6.008   2.214   2.174 -2.2100  1.5231  0.1291
 2561TIP3    H229175   6.138   2.270   2.228 -1.2579 -0.7663  0.3271
 2562TIP3   OH229176   5.942   3.037  16.085 -0.7739 -0.4917  0.0603
 2562TIP3    H129177   6.015   2.978  16.064  0.5550  1.4994 -1.2334
 2562TIP3    H229178   5.983   3.118  16.114 -2.5534 -0.1280  1.8474
 2563TIP3   OH229179   2.665   4.104  12.374 -0.2356 -0.3221  1.1096
 2563TIP3    H129180   2.750   4.123  12.334 -1.0700  0.6307 -0.3334
 2563TIP3    H229181   2.605   4.167  12.333 -1.6603 -1.0414  2.0045
 2564TIP3   OH229182   3.135   3.151   5.567  0.0693 -0.1073  0.3584
 2564TIP3    H129183   3.177   3.066   5.583  2.6389  1.3091  1.9211
 2564TIP3    H229184   3.047   3.141   5.603  0.7534 -1.7223  1.7465
 2565TIP3   OH229185   5.614   6.745  15.195 -0.1550 -0.0939  0.2580
 2565TIP3    H129186   5.597   6.671  15.254  1.9240  0.3964  1.5667
 2565TIP3    H229187   5.679   6.712  15.134 -1.5396 -0.2659 -1.2019
 2566TIP3   OH229188   1.268   6.772  16.199 -0.6226 -0.2494 -0.5479
 2566TIP3    H129189   1.330   6.844  16.189  0.5254 -0.8914  1.3593
 2566TIP3    H229190   1.301   6.703  16.143  1.0975 -0.9740  1.2439
 2567TIP3   OH229191   4.224   6.134  16.903 -0.3974  0.4906 -0.1723
 2567TIP3    H129192   4.282   6.193  16.856 -1.4981  1.1867 -0.6921
 2567TIP3    H229193   4.208   6.178  16.987 -0.5705  0.5422 -0.2322
 2568TIP3   OH229194   3.424   0.819   4.128  0.1152  1.2607 -0.4698
 2568TIP3    H129195   3.499   0.795   4.074  1.2775  0.9817  1.2095
 2568TIP3    H229196   3.349   0.815   4.067  0.8058 -2.4821 -1.3499
 2569TIP3   OH229197   0.887   0.620  11.958 -0.2965  0.4643  0.1691
 2569TIP3    H129198   0.853   0.555  11.897  2.2157  1.5390 -2.6646
 2569TIP3    H229199   0.816   0.635  12.020 -2.5227 -1.7719 -1.6260
 2570TIP3   OH229200   1.114   4.222  13.099 -0.1630  0.1819 -0.1999
 2570TIP3    H129201   1.153   4.184  13.178 -1.0010  0.0840  0.1708
 2570TIP3    H229202   1.162   4.304  13.086 -0.2334  0.3511  0.5874
 2571TIP3   OH229203   3.744   0.325   4.364 -0.1758  0.7013 -0.0483
 2571TIP3    H129204   3.752   0.234   4.338  0.3514  0.6503  0.2783
 2571TIP3    H229205   3.809   0.336   4.433 -0.6529  1.1702  0.3308
 2572TIP3   OH229206   5.862   2.637   0.970  0.1879  0.2514  0.1000
 2572TIP3    H129207   5.949   2.651   1.007  0.3402 -0.7922  0.1799
 2572TIP3    H229208   5.870   2.556   0.920 -1.3816 -1.4189  2.3407
 2573TIP3   OH229209   2.947   0.248  15.821  0.3121 -0.3320 -0.0819
 2573TIP3    H129210   2.893   0.221  15.747 -0.9217  0.3161  0.5458
 2573TIP3    H229211   3.032   0.271  15.783 -0.6365  1.0606 -1.4461
 2574TIP3   OH229212   2.269   1.590  13.461  0.9403  0.4403  0.4273
 2574TIP3    H129213   2.181   1.628  13.467  1.0172  0.4902  1.3811
 2574TIP3    H229214   2.308   1.633  13.385  0.1644  0.4627  0.0340
 2575TIP3   OH229215   2.714   6.257  16.449 -0.2147 -0.3812  0.3838
 2575TIP3    H129216   2.701   6.197  16.376 -0.3386  1.8099 -1.5049
 2575TIP3    H229217   2.649   6.327  16.436  0.7221  0.8308  1.7609
 2576TIP3   OH229218   4.235   5.473  12.117 -0.1226  0.3378  0.4559
 2576TIP3    H129219   4.289   5.395  12.129 -0.7509 -0.4357 -1.3263
 2576TIP3    H229220   4.182   5.453  12.040 -0.8497  2.2381  0.4168
 2577TIP3   OH229221   5.155   2.397  15.735 -0.0773 -0.2446 -0.1177
 2577TIP3    H129222   5.163   2.356  15.822 -0.4644 -0.4139 -0.1596
 2577TIP3    H229223   5.234   2.371  15.689 -0.1452 -0.6435 -0.0128
 2578TIP3   OH229224   4.782   3.490  13.892  0.0009 -0.3421  0.5575
 2578TIP3    H129225   4.860   3.459  13.937  0.1560 -0.1777  0.4007
 2578TIP3    H229226   4.749   3.562  13.946 -0.3634 -0.7803  0.9258
 2579TIP3   OH229227   0.225   4.810   1.991  0.1212 -0.2143  0.1191
 2579TIP3    H129228   0.198   4.730   1.946  0.8775 -1.0672  1.1359
 2579TIP3    H229229   0.274   4.779   2.067 -0.6813  1.2048  1.2437
 2580TIP3   OH229230   3.368   2.928   0.113  0.2201  0.0517  0.2039
 2580TIP3    H129231   3.370   3.015   0.154  1.9570  0.2624 -0.2609
 2580TIP3    H229232   3.459   2.911   0.087 -0.6147 -0.3826 -2.8765
 2581TIP3   OH229233   0.283   6.313   3.071 -0.0607 -0.0392 -0.0954
 2581TIP3    H129234   0.277   6.408   3.059  0.5694 -0.0240 -0.3138
 2581TIP3    H229235   0.367   6.289   3.032  0.0591 -0.6062  0.4999
 2582TIP3   OH229236   5.913   1.197  10.917 -0.1915  0.2617 -0.8784
 2582TIP3    H129237   6.007   1.180  10.918 -0.2319 -0.1634 -2.5069
 2582TIP3    H229238   5.894   1.221  10.826 -1.9980 -1.6906 -1.0841
 2583TIP3   OH229239   4.211   1.404   2.835 -0.0510  0.2763 -0.2557
 2583TIP3    H129240   4.271   1.459   2.885 -0.8341  0.5454  0.3956
 2583TIP3    H229241   4.251   1.317   2.839 -0.1494  0.2714  0.9278
 2584TIP3   OH229242   0.894   3.362  15.035 -1.0279  0.8685 -0.2110
 2584TIP3    H129243   0.880   3.456  15.022  0.4112  1.1454  0.1174
 2584TIP3    H229244   0.939   3.333  14.956 -0.0011  0.7977  0.3907
 2585TIP3   OH229245   2.746   5.361  15.903  0.1931 -0.5496  0.1968
 2585TIP3    H129246   2.835   5.326  15.913  0.7141  1.2371  3.2139
 2585TIP3    H229247   2.689   5.289  15.931  0.6894 -1.4354 -0.9773
 2586TIP3   OH229248   3.484   4.083  16.265  0.0490  0.0353  0.2121
 2586TIP3    H129249   3.499   4.004  16.213 -1.4226 -0.3626  0.3395
 2586TIP3    H229250   3.401   4.067  16.310 -0.0258  1.4508  0.6425
 2587TIP3   OH229251   3.098   0.344   5.080  0.2240 -0.2575 -0.2765
 2587TIP3    H129252   3.064   0.302   5.159 -0.1225 -0.2162 -0.4009
 2587TIP3    H229253   3.096   0.437   5.100 -0.3335 -0.2158 -0.5136
 2588TIP3   OH229254   4.352   0.509  11.840 -0.2087 -0.5284  0.4779
 2588TIP3    H129255   4.388   0.591  11.808  0.0593 -1.4520 -1.8254
 2588TIP3    H229256   4.275   0.534  11.890 -0.9945  1.0932 -1.4088
 2589TIP3   OH229257   0.701   6.590   0.176  0.9223 -1.0503 -0.0526
 2589TIP3    H129258   0.735   6.568   0.089  0.0764 -0.6907 -0.4977
 2589TIP3    H229259   0.676   6.683   0.169  1.2746 -0.8894  0.7218
 2590TIP3   OH229260   3.837   4.586   3.356 -0.2902 -0.0850 -0.1677
 2590TIP3    H129261   3.827   4.512   3.296  1.2206 -0.4292 -0.0204
 2590TIP3    H229262   3.857   4.547   3.440  1.7407  0.4839 -0.3411
 2591TIP3   OH229263   3.824   5.815   4.962  0.1780 -0.3741 -0.3275
 2591TIP3    H129264   3.816   5.765   4.881 -1.5861 -0.1534 -0.3240
 2591TIP3    H229265   3.736   5.815   4.999  0.8668 -0.1323  1.4014
 2592TIP3   OH229266   5.927   1.186  16.254  0.2096 -0.6309 -0.1526
 2592TIP3    H129267   5.850   1.130  16.247 -0.0151 -0.7929  2.5462
 2592TIP3    H229268   5.999   1.132  16.221 -0.5548 -1.1127 -1.0792
 2593TIP3   OH229269   1.674   1.302   1.152 -0.7682  0.0910  0.0942
 2593TIP3    H129270   1.638   1.214   1.150 -0.7831  0.0694  0.9061
 2593TIP3    H229271   1.678   1.324   1.245 -0.8054  0.9643 -0.1038
 2594TIP3   OH229272   1.328   0.693  12.138 -0.7897  0.0073 -0.7072
 2594TIP3    H129273   1.334   0.729  12.227  1.2468  4.0140 -2.1887
 2594TIP3    H229274   1.273   0.756  12.092 -0.3255 -0.9943 -2.7088
 2595TIP3   OH229275   1.897   6.067  10.695 -0.4997 -0.0837  0.7773
 2595TIP3    H129276   1.945   6.150  10.702 -0.0214 -0.3476  0.6641
 2595TIP3    H229277   1.962   6.000  10.714 -1.3583 -0.3615  2.9947
 2596TIP3   OH229278   0.979   3.396   6.001  0.5182  0.3807  0.0589
 2596TIP3    H129279   1.017   3.322   6.048 -0.6533 -0.8227 -0.8186
 2596TIP3    H229280   0.887   3.397   6.027  0.5338  1.5942  0.1225
 2597TIP3   OH229281   4.523   5.331   3.677  0.4367 -0.0416  0.6817
 2597TIP3    H129282   4.436   5.332   3.637  0.3993 -0.8636  0.7262
 2597TIP3    H229283   4.577   5.382   3.616  0.0374  0.0348  0.3847
 2598TIP3   OH229284   1.408   2.809   4.699  0.5508 -0.2435  0.2311
 2598TIP3    H129285   1.437   2.738   4.641 -2.1187  1.7931 -4.1293
 2598TIP3    H229286   1.313   2.814   4.684  0.6897  4.6868 -0.4402
 2599TIP3   OH229287   4.186   1.078  10.140 -0.0036  0.5958 -0.3980
 2599TIP3    H129288   4.100   1.099  10.175  1.0908  1.4355  1.9997
 2599TIP3    H229289   4.191   0.983  10.140 -0.9333  0.5435 -0.6499
 2600TIP3   OH229290   2.892   1.011   2.034 -0.0462 -0.2431  0.1325
 2600TIP3    H129291   2.905   0.977   1.945 -0.7057 -1.0444  0.3377
 2600TIP3    H229292   2.978   1.002   2.076  0.8016  1.8836 -0.9788
 2601TIP3   OH229293   2.943   6.732  15.490  0.3225  0.4304  0.1541
 2601TIP3    H129294   2.870   6.783  15.456 -0.4181  0.4368  1.6713
 2601TIP3    H229295   2.915   6.705  15.578  2.0292  0.1957  0.6662
 2602TIP3   OH229296   3.769   4.598   1.675  0.2154 -0.0269 -0.2008
 2602TIP3    H129297   3.734   4.686   1.666  0.2763  0.1540  1.0868
 2602TIP3    H229298   3.864   4.608   1.662  0.4091  0.3612  1.3466
 2603TIP3   OH229299   6.493   4.614   2.955  0.3602  0.0219  0.2445
 2603TIP3    H129300   6.583   4.622   2.987  0.0646  0.1966  1.0469
 2603TIP3    H229301   6.440   4.605   3.034 -0.2014 -1.4021 -0.2531
 2604TIP3   OH229302   4.110   6.792   1.174  0.3249  0.3512 -0.2934
 2604TIP3    H129303   4.120   6.804   1.079 -0.3942 -0.5299 -0.4878
 2604TIP3    H229304   4.021   6.758   1.185  1.0455 -1.3365  0.5353
 2605TIP3   OH229305   6.065   5.820   1.248  0.1144 -0.3813  0.4035
 2605TIP3    H129306   6.095   5.850   1.163 -1.8936 -2.0195 -0.9668
 2605TIP3    H229307   6.107   5.734   1.259 -0.9507 -0.9310  0.2569
 2606TIP3   OH229308   3.806   6.447  10.987 -0.0098 -0.0181  0.2438
 2606TIP3    H129309   3.885   6.394  10.998 -1.9428 -3.4218 -0.8265
 2606TIP3    H229310   3.820   6.494  10.904  1.4782  0.7315  0.8749
 2607TIP3   OH229311   1.010   1.511   2.776  0.1681 -0.2025 -0.3076
 2607TIP3    H129312   1.064   1.552   2.709 -0.2625  0.0045 -0.5348
 2607TIP3    H229313   0.962   1.584   2.816  1.2192 -0.1727  0.9793
 2608TIP3   OH229314   4.959   3.410   2.338  0.7042  0.6705 -0.1766
 2608TIP3    H129315   5.016   3.450   2.403  2.4910  0.7114 -1.6808
 2608TIP3    H229316   4.930   3.328   2.379  0.2681  1.5488  1.3504
 2609TIP3   OH229317   3.016   4.884   2.362 -0.1069 -0.1883  0.5302
 2609TIP3    H129318   2.963   4.933   2.424  0.2311  1.0468 -0.1079
 2609TIP3    H229319   2.960   4.873   2.286  0.6063  1.4666 -0.3010
 2610TIP3   OH229320   5.777   2.379  15.040  0.0704 -0.0049  0.6467
 2610TIP3    H129321   5.785   2.289  15.010 -1.4735  0.0062  0.1326
 2610TIP3    H229322   5.762   2.371  15.135  1.7339 -0.1754  0.9286
 2611TIP3   OH229323   3.532   4.584   3.030  0.4428  0.0723 -0.0919
 2611TIP3    H129324   3.471   4.529   2.981  2.9142 -0.3997 -2.9795
 2611TIP3    H229325   3.492   4.594   3.116 -1.7376 -3.4295 -0.5113
 2612TIP3   OH229326   4.751   0.105   2.070 -0.3042 -0.2337 -0.2633
 2612TIP3    H129327   4.683   0.165   2.040 -1.9367 -2.3573 -1.0745
 2612TIP3    H229328   4.726   0.020   2.033  1.6217 -1.5334  1.2280
 2613TIP3   OH229329   1.046   3.055  14.110 -0.0371 -0.4268  0.2267
 2613TIP3    H129330   1.104   3.076  14.183 -0.0884  1.7448 -0.2726
 2613TIP3    H229331   1.104   3.018  14.044  0.6061  0.5667  0.2050
 2614TIP3   OH229332   3.316   0.553  10.225  0.1317  0.0208 -0.1029
 2614TIP3    H129333   3.305   0.494  10.151 -2.3747  0.5964 -0.2708
 2614TIP3    H229334   3.375   0.507  10.285  1.8983 -0.6193 -2.2255
 2615TIP3   OH229335   0.560   4.650   1.596 -0.9151 -0.4283 -0.4405
 2615TIP3    H129336   0.649   4.667   1.564 -0.4488 -1.3516  0.3306
 2615TIP3    H229337   0.551   4.708   1.672 -0.6721 -0.8936 -0.0473
 2616TIP3   OH229338   0.616   5.060  11.804 -0.2473 -0.1302 -0.1414
 2616TIP3    H129339   0.561   5.138  11.802 -0.7835 -0.4812  0.4361
 2616TIP3    H229340   0.554   4.987  11.799  0.2286 -0.5227 -0.4301
 2617TIP3   OH229341   2.632   4.131   2.744 -0.0350  0.0829  0.4424
 2617TIP3    H129342   2.550   4.172   2.769  0.2196  0.6192  0.4229
 2617TIP3    H229343   2.685   4.132   2.824 -0.0272 -0.2212  0.4449
 2618TIP3   OH229344   5.300   2.634  13.783 -0.5562  0.3943 -0.3571
 2618TIP3    H129345   5.292   2.571  13.854 -1.3711 -0.5292 -1.2365
 2618TIP3    H229346   5.318   2.717  13.827 -1.6734 -0.0325  0.9769
 2619TIP3   OH229347   4.243   0.991  12.553 -0.4057 -0.0561 -0.4951
 2619TIP3    H129348   4.268   0.934  12.626  1.2558 -0.8933 -1.6485
 2619TIP3    H229349   4.296   0.960  12.480  1.0554  3.3628 -1.0791
 2620TIP3   OH229350   4.815   1.387   4.897 -0.1926  0.0814  0.2540
 2620TIP3    H129351   4.817   1.482   4.882 -0.5745  0.5603  2.7402
 2620TIP3    H229352   4.738   1.374   4.953  0.3573 -1.5841  0.6652
 2621TIP3   OH229353   5.875   2.661  10.900 -0.4144  0.5963 -0.6047
 2621TIP3    H129354   5.920   2.685  10.819 -1.7938  1.5327 -1.1255
 2621TIP3    H229355   5.858   2.567  10.891  1.3941  0.2013 -0.3800
 2622TIP3   OH229356   3.870   5.135   3.239  0.5509 -0.5508 -0.0103
 2622TIP3    H129357   3.889   5.080   3.315 -1.2115  0.5669  1.3164
 2622TIP3    H229358   3.953   5.176   3.217  0.6109  1.4231  3.2805
 2623TIP3   OH229359   1.602   5.363   3.664  0.9940  0.2730 -0.2599
 2623TIP3    H129360   1.625   5.433   3.725 -0.7651  0.2293  0.5333
 2623TIP3    H229361   1.507   5.371   3.653  0.6235 -2.3169  0.3085
 2624TIP3   OH229362   2.781   1.297   5.562 -0.4578 -0.4755 -0.8722
 2624TIP3    H129363   2.778   1.202   5.577 -2.1494 -0.5939 -1.7629
 2624TIP3    H229364   2.824   1.307   5.477 -0.3694 -0.4410 -0.8236
 2625TIP3   OH229365   4.468   3.497  14.075  0.0809 -0.3199 -0.7514
 2625TIP3    H129366   4.376   3.472  14.086 -0.3613  1.1459 -0.8978
 2625TIP3    H229367   4.499   3.443  14.003 -1.3764  0.8288 -2.3288
 2626TIP3   OH229368   0.610   6.097  16.788  0.2230  0.1664  0.0100
 2626TIP3    H129369   0.562   6.033  16.841  1.3862 -0.5393  0.2528
 2626TIP3    H229370   0.602   6.179  16.838 -1.2587  0.2298 -0.2932
 2627TIP3   OH229371   4.927   2.699  13.566 -0.1564  0.3628 -0.2860
 2627TIP3    H129372   4.900   2.738  13.483 -0.1027  3.3102  0.9407
 2627TIP3    H229373   4.848   2.659  13.601 -0.0231 -1.5656 -1.9942
 2628TIP3   OH229374   4.324   4.549   3.390  0.4602  0.5197 -0.2265
 2628TIP3    H129375   4.403   4.564   3.442  0.9519 -0.3975 -0.6905
 2628TIP3    H229376   4.304   4.456   3.403  0.6046  0.2588 -1.6600
 2629TIP3   OH229377   1.715   0.986   1.939  0.1109  0.0781 -0.7826
 2629TIP3    H129378   1.731   0.950   1.852 -1.2703  2.4568 -2.1231
 2629TIP3    H229379   1.620   0.985   1.949  0.2302  0.2635  0.5033
 2630TIP3   OH229380   6.627   4.111  16.745  0.0532  0.0103 -0.4524
 2630TIP3    H129381   6.655   4.200  16.763 -1.5652  0.4886 -0.1144
 2630TIP3    H229382   6.533   4.112  16.762 -0.0225 -1.7206 -0.5989
 2631TIP3   OH229383   6.188   6.435  16.988  0.2775 -0.2663  0.0791
 2631TIP3    H129384   6.112   6.376  16.991 -0.4651  0.6474 -0.0198
 2631TIP3    H229385   6.227   6.419  16.902  0.2414 -0.7894  0.1559
 2632TIP3   OH229386   0.439   5.080  16.925 -0.1415 -0.0891 -0.1281
 2632TIP3    H129387   0.486   5.157  16.958 -1.7644  0.4587  1.0214
 2632TIP3    H229388   0.509   5.020  16.898  1.1957  1.1239  0.4505
 2633TIP3   OH229389   2.780   4.471  16.495 -0.5867  0.1667 -0.0813
 2633TIP3    H129390   2.789   4.561  16.527 -1.3306  0.6584 -1.2117
 2633TIP3    H229391   2.870   4.439  16.489 -0.0250  1.9720 -2.8065
 2634TIP3   OH229392   2.775   3.989  13.237  0.5290 -0.1899  0.0004
 2634TIP3    H129393   2.736   4.076  13.247  2.4728  1.1263 -2.7380
 2634TIP3    H229394   2.792   3.980  13.144  0.1891 -3.6778  0.1427
 2635TIP3   OH229395   1.111   1.131  16.891 -0.6152 -0.1161 -0.0989
 2635TIP3    H129396   1.053   1.193  16.846  1.0445  1.6263 -0.0010
 2635TIP3    H229397   1.080   1.131  16.982 -0.9788  0.1587 -0.2214
 2636TIP3   OH229398   5.608   4.302   2.385  0.0771  0.3688  0.3656
 2636TIP3    H129399   5.531   4.312   2.441 -0.6137 -1.0311 -0.2803
 2636TIP3    H229400   5.682   4.325   2.440 -0.6834  0.2171  1.4775
 2637TIP3   OH229401   3.539   4.547  16.209 -0.4304 -0.2765 -0.8236
 2637TIP3    H129402   3.504   4.598  16.282 -1.4336 -0.3109 -1.2616
 2637TIP3    H229403   3.600   4.606  16.166  1.6292 -0.8505  1.0910
 2638TIP3   OH229404   2.414   4.260  12.440 -0.1299  0.2381 -0.1723
 2638TIP3    H129405   2.443   4.170  12.424  1.4688  0.8390 -0.9205
 2638TIP3    H229406   2.319   4.255  12.447 -0.1101 -1.4158 -0.8024
 2639TIP3   OH229407   6.378   2.737   0.571  0.1155  0.2151 -0.1147
 2639TIP3    H129408   6.465   2.727   0.610  0.4669  0.1399 -0.8993
 2639TIP3    H229409   6.384   2.817   0.518 -0.3006  0.2225 -0.1549
 2640TIP3   OH229410   5.189   2.625   3.411 -0.2494  0.4140  0.5235
 2640TIP3    H129411   5.261   2.571   3.379  1.1896  1.4032  1.9850
 2640TIP3    H229412   5.131   2.563   3.456  0.2590 -0.2190  0.3214
 2641TIP3   OH229413   1.205   5.605   1.641 -0.1136 -0.0396 -0.0804
 2641TIP3    H129414   1.149   5.607   1.563 -0.4774  2.1473  0.1540
 2641TIP3    H229415   1.282   5.554   1.615 -0.1286  0.8274 -1.9629
 2642TIP3   OH229416   5.187   1.554  11.660  0.1325  0.2409 -0.1059
 2642TIP3    H129417   5.186   1.506  11.578  0.0913  0.2482 -0.1100
 2642TIP3    H229418   5.096   1.557  11.688  0.3784 -1.6027  1.0124
 2643TIP3   OH229419   4.512   1.440   2.211 -0.2006 -0.6284  0.0827
 2643TIP3    H129420   4.518   1.532   2.239  1.8875 -0.7042  0.0044
 2643TIP3    H229421   4.441   1.404   2.265 -0.3362  0.7471  0.8946
 2644TIP3   OH229422   1.548   4.549  13.164  0.2198  0.9050 -0.5322
 2644TIP3    H129423   1.589   4.519  13.245 -1.8810 -0.8974 -0.0224
 2644TIP3    H229424   1.587   4.494  13.096 -0.5967 -0.1162 -0.1945
 2645TIP3   OH229425   2.308   5.039   3.149 -0.3305 -0.4585  0.0521
 2645TIP3    H129426   2.373   5.109   3.162 -1.8947  0.9422  0.6442
 2645TIP3    H229427   2.293   5.004   3.236 -2.4393  1.2010  0.4310
 2646TIP3   OH229428   0.900   1.509   1.055  0.7189 -0.2214 -0.6766
 2646TIP3    H129429   0.884   1.598   1.086  1.5541  0.3254 -1.7564
 2646TIP3    H229430   0.908   1.457   1.135  2.1446  1.0227  0.0425
 2647TIP3   OH229431   5.433   6.343   4.714 -0.2413  0.4430  0.0601
 2647TIP3    H129432   5.412   6.254   4.743 -0.7308  0.1869 -1.0493
 2647TIP3    H229433   5.354   6.373   4.669 -0.0407  1.4017  0.3228
 2648TIP3   OH229434   5.143   6.063  13.250  0.4264 -0.4619 -0.2987
 2648TIP3    H129435   5.104   6.142  13.288  1.8654 -0.0877  0.4621
 2648TIP3    H229436   5.102   5.991  13.298 -2.3319 -0.3918 -2.2603
 2649TIP3   OH229437   5.265   6.586  14.197  1.0515 -0.7352 -0.4583
 2649TIP3    H129438   5.256   6.680  14.211  2.2266 -0.6827  0.1308
 2649TIP3    H229439   5.220   6.569  14.115 -0.2636  0.1222  0.0566
 2650TIP3   OH229440   1.608   2.346  16.685 -0.5001 -0.5640 -0.3706
 2650TIP3    H129441   1.575   2.277  16.627 -0.1757 -0.3640 -0.7963
 2650TIP3    H229442   1.703   2.331  16.688 -0.1749  0.8625 -1.8248
 2651TIP3   OH229443   2.485   6.463  16.061 -0.2862 -0.2774 -0.2444
 2651TIP3    H129444   2.501   6.510  16.143 -0.1012  0.1239 -0.5062
 2651TIP3    H229445   2.417   6.514  16.018 -1.9901 -1.6824  0.6243
 2652TIP3   OH229446   5.685   3.567   4.955  0.8108 -0.1171 -0.2113
 2652TIP3    H129447   5.620   3.528   4.897 -0.0607 -0.6305  1.0684
 2652TIP3    H229448   5.640   3.642   4.996  0.7117 -0.9588  1.2992
 2653TIP3   OH229449   1.357   3.415  12.839 -0.5201  0.3223  0.1400
 2653TIP3    H129450   1.358   3.335  12.892  0.0592 -0.3087 -0.7985
 2653TIP3    H229451   1.320   3.482  12.897  1.3358 -0.0263  1.8465
 2654TIP3   OH229452   1.461   4.674   0.746  0.3199 -0.2298 -0.0098
 2654TIP3    H129453   1.368   4.684   0.722 -0.3530 -1.0454  2.0757
 2654TIP3    H229454   1.497   4.762   0.737 -0.8662  0.2766 -0.0299
 2655TIP3   OH229455   5.463   5.036   3.079  0.0367 -0.2509  0.1640
 2655TIP3    H129456   5.451   5.114   3.134  0.0554 -0.8103  0.9736
 2655TIP3    H229457   5.445   5.067   2.991 -1.7710  0.2476  0.6692
 2656TIP3   OH229458   5.224   5.486  16.138  0.3038 -0.6503 -0.2221
 2656TIP3    H129459   5.165   5.531  16.198 -0.0652 -2.2910  0.6955
 2656TIP3    H229460   5.173   5.472  16.059 -1.0091 -3.0104  0.9352
 2657TIP3   OH229461   5.385   1.757  13.759 -0.9185 -0.0327  0.1484
 2657TIP3    H129462   5.399   1.851  13.772 -0.7292 -0.3771  3.3107
 2657TIP3    H229463   5.290   1.746  13.767 -0.7395 -0.3806  3.5735
 2658TIP3   OH229464   5.929   4.783  13.196  0.2103 -0.4970  0.5239
 2658TIP3    H129465   5.902   4.846  13.263  0.8872  0.3778 -0.0146
 2658TIP3    H229466   5.890   4.816  13.115  1.4705 -0.1523  0.0425
 2659TIP3   OH229467   6.230   4.574   5.469 -0.3048 -0.2220 -0.1330
 2659TIP3    H129468   6.155   4.590   5.526 -0.0603  0.7790 -0.0699
 2659TIP3    H229469   6.260   4.486   5.493 -1.0602 -0.3748  0.2869
 2660TIP3   OH229470   4.870   6.652  14.930  0.1467  0.0481 -0.2049
 2660TIP3    H129471   4.893   6.559  14.931  0.9581  0.2136 -1.3624
 2660TIP3    H229472   4.873   6.676  14.837  1.8894  1.7038  0.2388
 2661TIP3   OH229473   5.286   0.270   2.231  0.1704  0.1179  0.2319
 2661TIP3    H129474   5.253   0.181   2.224  2.3364 -0.7145 -0.2242
 2661TIP3    H229475   5.334   0.271   2.314 -1.0394  1.3190  0.9546
 2662TIP3   OH229476   0.366   0.414   2.687 -0.0973  0.0763  0.2162
 2662TIP3    H129477   0.332   0.330   2.719 -1.2673  0.5134  0.1760
 2662TIP3    H229478   0.300   0.478   2.714  0.8330  1.0070  0.3442
 2663TIP3   OH229479   3.565   1.360  13.185 -0.1411 -0.2561 -0.2420
 2663TIP3    H129480   3.587   1.305  13.261 -0.2878  0.5054  0.3613
 2663TIP3    H229481   3.470   1.369  13.189 -0.0367  0.7941  0.2071
 2664TIP3   OH229482   5.860   2.563  14.394  0.0651  0.1974  0.1954
 2664TIP3    H129483   5.781   2.531  14.350  0.1065 -1.0098  0.9448
 2664TIP3    H229484   5.833   2.577  14.485  0.5722  0.3166  0.3297
 2665TIP3   OH229485   2.019   1.570   1.364 -0.7911  0.0488 -0.6478
 2665TIP3    H129486   2.093   1.628   1.384 -1.3515  0.2149  1.1112
 2665TIP3    H229487   2.047   1.521   1.287  1.9709 -1.2304  1.0180
 2666TIP3   OH229488   0.049   5.014   2.092 -0.0061 -0.3039 -0.4316
 2666TIP3    H129489   0.106   4.939   2.071 -0.5377 -0.6369 -0.7197
 2666TIP3    H229490   0.050   5.067   2.012 -0.5412 -0.6047 -0.6456
 2667TIP3   OH229491   6.155   6.235  13.070  0.5870 -0.5351  0.3988
 2667TIP3    H129492   6.241   6.261  13.036 -0.0631  0.2605 -0.7290
 2667TIP3    H229493   6.114   6.317  13.095  0.4694 -0.9915  1.7775
 2668TIP3   OH229494   5.567   3.370  12.307 -0.1329  0.2885  0.1802
 2668TIP3    H129495   5.637   3.434  12.321  1.7687 -0.8018 -3.1483
 2668TIP3    H229496   5.608   3.286  12.326 -0.3087 -0.3941 -2.1323
 2669TIP3   OH229497   6.780   6.158   3.629  0.3239 -0.7837 -0.0122
 2669TIP3    H129498   6.832   6.095   3.578  0.9918 -0.1192 -0.1699
 2669TIP3    H229499   6.770   6.233   3.570 -0.0701 -0.5572  0.3433
 2670TIP3   OH229500   3.430   0.988  14.458 -0.2401 -0.3790  0.1857
 2670TIP3    H129501   3.374   1.065  14.448  0.2752 -0.1328 -0.9779
 2670TIP3    H229502   3.410   0.934  14.382  0.5138 -0.6642  0.1804
 2671TIP3   OH229503   6.837   6.535   0.146 -0.1582 -0.0912 -0.0837
 2671TIP3    H129504   6.834   6.560   0.054 -3.5579  0.1444 -0.0420
 2671TIP3    H229505   6.867   6.444   0.145  0.8108  0.2171 -1.3018
 2672TIP3   OH229506   3.841   3.677   5.081 -0.4664  0.0915 -0.1845
 2672TIP3    H129507   3.928   3.643   5.102 -0.2175  0.4556 -0.6225
 2672TIP3    H229508   3.783   3.634   5.144  0.0767  0.1066  0.3303
 2673TIP3   OH229509   4.666   2.528   2.578 -0.1690  0.3216  0.3743
 2673TIP3    H129510   4.665   2.488   2.664 -2.6950  1.5585  1.0085
 2673TIP3    H229511   4.734   2.596   2.584 -0.4887  0.5618  1.4711
 2674TIP3   OH229512   5.227   4.333   1.170  0.0415 -0.0428  0.4910
 2674TIP3    H129513   5.238   4.429   1.172 -0.2463 -0.0138  0.8056
 2674TIP3    H229514   5.295   4.301   1.230 -0.2792  0.0093  0.8891
 2675TIP3   OH229515   6.602   6.124  10.675 -0.4077 -0.0049 -0.3530
 2675TIP3    H129516   6.593   6.052  10.613  0.5568 -0.1273 -0.3712
 2675TIP3    H229517   6.561   6.092  10.756  3.3113 -2.1992  0.9193
 2676TIP3   OH229518   3.906   2.081   5.520 -0.2776  0.2042  0.3608
 2676TIP3    H129519   3.995   2.096   5.489 -1.2018  2.0322 -1.6658
 2676TIP3    H229520   3.892   1.987   5.509  1.2990 -0.0776  0.5114
 2677TIP3   OH229521   5.381   3.501   3.556 -0.3062  0.2428 -0.2532
 2677TIP3    H129522   5.330   3.564   3.507  0.2344 -0.2380 -1.4635
 2677TIP3    H229523   5.454   3.478   3.498 -0.1232 -0.9782  0.4220
 2678TIP3   OH229524   5.306   5.223  14.898  0.0548  0.6803 -0.5972
 2678TIP3    H129525   5.285   5.316  14.882  3.4518  1.4277 -1.5028
 2678TIP3    H229526   5.268   5.177  14.823  0.0841  1.6309 -1.2103
 2679TIP3   OH229527   4.626   3.739   0.058  0.0609  0.0406  0.1093
 2679TIP3    H129528   4.708   3.787   0.069 -0.4111  0.5471  1.6218
 2679TIP3    H229529   4.574   3.795   0.000  1.0528 -0.6954 -1.5928
 2680TIP3   OH229530   4.464   3.769  11.175 -0.4098 -0.7113 -0.0655
 2680TIP3    H129531   4.515   3.845  11.204 -0.4238 -1.0213  0.8204
 2680TIP3    H229532   4.453   3.781  11.081 -0.8228  0.6348  0.1399
 2681TIP3   OH229533   4.670   6.008   4.263  0.1853 -0.1226  0.4315
 2681TIP3    H129534   4.650   5.990   4.171 -1.9988 -1.1773  1.0255
 2681TIP3    H229535   4.688   6.102   4.267  2.1214 -0.3547 -1.2994
 2682TIP3   OH229536   3.174   1.311  15.374 -0.0811  0.3098  0.5417
 2682TIP3    H129537   3.187   1.384  15.434  0.4452  0.1745  0.5985
 2682TIP3    H229538   3.108   1.343  15.311  0.8270  1.1821  0.0067
 2683TIP3   OH229539   4.714   0.390   6.285  0.2028  0.3073 -0.3787
 2683TIP3    H129540   4.653   0.333   6.238  1.0414 -0.8152 -0.1432
 2683TIP3    H229541   4.692   0.378   6.378  1.7051 -1.2814 -0.1720
 2684TIP3   OH229542   4.928   4.991   0.118 -0.5134 -0.2639 -0.8455
 2684TIP3    H129543   4.972   4.926   0.063  2.5089  1.0895 -0.2014
 2684TIP3    H229544   4.877   5.044   0.057  0.7888 -0.3408 -2.0490
 2685TIP3   OH229545   4.417   4.439  11.053  0.4172 -0.6930 -0.1170
 2685TIP3    H129546   4.328   4.406  11.041 -1.1561  3.5140 -1.9450
 2685TIP3    H229547   4.467   4.397  10.983 -0.7274 -1.3382 -0.5856
 2686TIP3   OH229548   1.625   0.664   4.074  0.3687  0.0012  0.1969
 2686TIP3    H129549   1.717   0.691   4.077  0.8038 -1.5144  1.9355
 2686TIP3    H229550   1.628   0.568   4.081 -1.3285 -0.1463 -0.5787
 2687TIP3   OH229551   4.202   0.296  13.978 -0.1662 -0.2159 -0.2516
 2687TIP3    H129552   4.136   0.323  14.041  0.2573  1.9287 -0.6511
 2687TIP3    H229553   4.283   0.291  14.029 -0.0972  0.0690 -0.3311
 2688TIP3   OH229554   3.447   2.428   3.037  0.1156  0.2282 -0.1777
 2688TIP3    H129555   3.541   2.432   3.017  0.2040  1.1426  0.3776
 2688TIP3    H229556   3.416   2.351   2.990  1.1963 -0.2310 -0.1668
 2689TIP3   OH229557   1.431   1.548  15.938  0.4984 -0.4788 -0.9361
 2689TIP3    H129558   1.433   1.610  16.010 -0.4171  1.5588 -2.5789
 2689TIP3    H229559   1.409   1.464  15.979 -1.1561  0.8312  0.9966
 2690TIP3   OH229560   6.706   4.305   5.328 -0.5032 -0.4656  0.0772
 2690TIP3    H129561   6.796   4.271   5.327 -0.2861  0.0845  0.4151
 2690TIP3    H229562   6.651   4.228   5.315  0.0763 -0.6236 -1.8030
 2691TIP3   OH229563   4.267   4.849   3.593  0.2079 -0.1222 -0.3522
 2691TIP3    H129564   4.338   4.863   3.656  1.9900  0.1290 -2.2946
 2691TIP3    H229565   4.312   4.827   3.511 -2.0294 -1.4108 -1.3326
 2692TIP3   OH229566   6.771   5.530   3.063  0.2256  0.3552 -0.3082
 2692TIP3    H129567   6.841   5.528   3.128  0.2644 -0.7262 -0.3755
 2692TIP3    H229568   6.765   5.623   3.038  1.0285  0.5971  0.3403
 2693TIP3   OH229569   0.742   4.965  15.134  0.0145  0.5025 -0.4946
 2693TIP3    H129570   0.814   4.901  15.135 -0.7509 -0.3683 -0.2319
 2693TIP3    H229571   0.696   4.947  15.052 -1.7935 -1.1188  0.8033
 2694TIP3   OH229572   1.537   3.879   3.072 -0.3932  0.4099  0.6533
 2694TIP3    H129573   1.527   3.918   3.159  0.1306  0.4945  0.6795
 2694TIP3    H229574   1.449   3.850   3.049 -0.3981 -0.4045  1.5817
 2695TIP3   OH229575   2.157   4.348  12.387  0.2833  0.4773 -0.2675
 2695TIP3    H129576   2.096   4.279  12.360  0.3106  0.3482 -0.0000
 2695TIP3    H229577   2.103   4.427  12.394 -0.2203  0.0166  1.6531
 2696TIP3   OH229578   5.021   2.469  13.721 -0.8908  0.3615  0.0216
 2696TIP3    H129579   5.041   2.394  13.666  0.6710  0.8621 -0.1316
 2696TIP3    H229580   4.958   2.520  13.670 -2.0805 -0.8721  0.1889
 2697TIP3   OH229581   6.259   4.692  15.523  0.6417  0.3272  0.0335
 2697TIP3    H129582   6.188   4.705  15.461  1.1212  1.2560 -0.3483
 2697TIP3    H229583   6.242   4.607  15.563 -1.3691  1.0773  0.8777
 2698TIP3   OH229584   5.255   3.630  12.152 -0.2674 -0.4599  0.3592
 2698TIP3    H129585   5.296   3.544  12.161  0.9785  0.0399 -0.3070
 2698TIP3    H229586   5.187   3.618  12.085  0.7779 -0.6461 -0.6927
 2699TIP3   OH229587   5.926   0.689   3.929  0.1211 -0.2713 -0.2731
 2699TIP3    H129588   5.977   0.677   3.849  0.9837  0.4421  0.1563
 2699TIP3    H229589   5.929   0.783   3.945 -0.5572 -0.3382  0.2725
 2700TIP3   OH229590   6.457   6.746  11.881 -0.4964 -0.4650  0.3373
 2700TIP3    H129591   6.541   6.715  11.916 -0.7004 -0.6084  0.7085
 2700TIP3    H229592   6.445   6.832  11.921  0.5699  0.5925 -1.4953
 2701TIP3   OH229593   2.208   5.159  14.600 -0.9049 -0.5735 -0.0083
 2701TIP3    H129594   2.195   5.214  14.677 -2.5631 -1.3637  0.3338
 2701TIP3    H229595   2.120   5.126  14.580 -0.3623 -1.0680 -1.7242
 2702TIP3   OH229596   0.865   2.363   4.086  0.5604  0.5306  0.1316
 2702TIP3    H129597   0.835   2.347   3.996  1.4466  0.3897 -0.1453
 2702TIP3    H229598   0.904   2.450   4.083 -0.8765  1.2231  0.7698
 2703TIP3   OH229599   2.525   6.029   1.681 -0.2577 -0.3772 -0.7631
 2703TIP3    H129600   2.576   6.034   1.761  0.1039 -0.1299 -1.0038
 2703TIP3    H229601   2.480   6.114   1.676 -0.9027 -0.6923 -0.4179
 2704TIP3   OH229602   2.375   3.193   5.004 -0.1548  0.1708  0.2351
 2704TIP3    H129603   2.354   3.132   4.934 -1.5108  1.1159 -0.2252
 2704TIP3    H229604   2.426   3.261   4.962  1.8363 -0.8624  0.8581
 2705TIP3   OH229605   3.956   1.372  11.115  0.0004 -0.0399  0.3735
 2705TIP3    H129606   3.988   1.418  11.038 -0.5524 -1.8419 -0.9989
 2705TIP3    H229607   3.997   1.286  11.111 -0.5189 -0.3848  1.7647
 2706TIP3   OH229608   4.808   3.893   4.633  0.1045 -0.1912  0.2154
 2706TIP3    H129609   4.770   3.970   4.674 -1.5663 -0.2227 -1.1395
 2706TIP3    H229610   4.734   3.833   4.622  1.1642 -1.5607  0.2887
 2707TIP3   OH229611   1.323   6.691   1.215  0.0584  0.0619 -0.2538
 2707TIP3    H129612   1.290   6.679   1.126 -1.1931 -0.7262  0.2876
 2707TIP3    H229613   1.412   6.656   1.212  0.3191  0.7828 -1.3751
 2708TIP3   OH229614   3.053   4.727  13.866 -0.9190  0.6018 -0.2871
 2708TIP3    H129615   3.070   4.813  13.903 -1.4518  1.3404 -1.6638
 2708TIP3    H229616   3.035   4.744  13.773 -2.2287 -0.8586 -0.3418
 2709TIP3   OH229617   0.832   2.242  12.523  0.0009 -0.2021  0.4363
 2709TIP3    H129618   0.879   2.317  12.560 -0.4126  0.2469  0.0623
 2709TIP3    H229619   0.809   2.269  12.434 -1.6943 -0.0667  0.8751
 2710TIP3   OH229620   5.253   6.074   1.766  0.4698 -0.2310 -0.1108
 2710TIP3    H129621   5.230   5.981   1.756 -0.1181 -0.1180  0.1442
 2710TIP3    H229622   5.346   6.078   1.744  0.1162 -0.6122 -1.8627
 2711TIP3   OH229623   4.789   2.049  11.853 -0.0092 -0.2630  0.3687
 2711TIP3    H129624   4.807   2.021  11.942  0.5486 -1.0657  0.0126
 2711TIP3    H229625   4.694   2.061  11.851  0.0579  0.5686  1.2853
 2712TIP3   OH229626   6.766   5.216   2.731  0.0359 -0.4789  0.4360
 2712TIP3    H129627   6.801   5.139   2.777  0.7254 -1.1296 -1.1024
 2712TIP3    H229628   6.843   5.258   2.693 -0.2760  1.2934  1.6586
 2713TIP3   OH229629   3.273   2.276   4.833  0.0487  0.2059  0.0470
 2713TIP3    H129630   3.232   2.201   4.878  0.4559 -0.6714 -0.9915
 2713TIP3    H229631   3.367   2.259   4.840  0.1772  1.0360  0.4605
 2714TIP3   OH229632   1.907   2.677   5.348 -0.8472  0.3956  0.0184
 2714TIP3    H129633   1.969   2.745   5.376  1.1870 -0.6337 -1.6897
 2714TIP3    H229634   1.843   2.724   5.294  1.0593  0.9313 -1.9336
 2715TIP3   OH229635   6.401   1.493   0.214 -0.0447 -0.2193 -0.5208
 2715TIP3    H129636   6.361   1.460   0.295  1.2740 -0.2283  0.1393
 2715TIP3    H229637   6.421   1.414   0.164  0.2469 -0.2768 -0.3169
 2716TIP3   OH229638   0.967   2.704   0.172 -0.5712  0.4798  0.2355
 2716TIP3    H129639   1.054   2.740   0.192  0.1499 -0.2914 -1.2651
 2716TIP3    H229640   0.980   2.609   0.175 -0.1872  0.1925 -3.9252
 2717TIP3   OH229641   6.713   1.961   1.738  0.7750  0.0239 -0.1449
 2717TIP3    H129642   6.794   1.947   1.688  0.9704  1.3098 -0.2186
 2717TIP3    H229643   6.738   2.021   1.808  0.0498 -0.1741  0.2936
 2718TIP3   OH229644   3.297   5.333   2.971  0.3594  0.0593 -0.0139
 2718TIP3    H129645   3.342   5.301   2.892 -1.1656 -0.3348 -0.7705
 2718TIP3    H229646   3.223   5.384   2.937 -0.8122 -0.8026  1.1351
 2719TIP3   OH229647   2.912   2.521   1.121  0.2478  0.4227  0.6786
 2719TIP3    H129648   2.876   2.548   1.206  1.8711 -1.7839  2.1862
 2719TIP3    H229649   3.006   2.516   1.136  0.4527 -1.2338 -0.8620
 2720TIP3   OH229650   2.416   0.575  11.731 -0.2464  0.5714 -0.3470
 2720TIP3    H129651   2.341   0.634  11.724 -2.1603 -1.6067  0.5353
 2720TIP3    H229652   2.488   0.632  11.757 -2.3517  2.3390  2.2009
 2721TIP3   OH229653   2.482   5.821   3.948 -0.1922 -0.1614 -0.1769
 2721TIP3    H129654   2.545   5.860   3.887 -0.5341  0.0498 -0.3934
 2721TIP3    H229655   2.532   5.751   3.991 -0.3970 -1.4800 -1.9258
 2722TIP3   OH229656   5.406   3.729  16.438  0.3323 -0.1644 -0.1719
 2722TIP3    H129657   5.467   3.802  16.433 -0.6852  0.6286 -1.4302
 2722TIP3    H229658   5.423   3.690  16.524  0.7523  1.6659  0.6172
 2723TIP3   OH229659   6.613   2.577   1.585 -0.5217  0.4027  0.0695
 2723TIP3    H129660   6.626   2.562   1.491  2.4102  1.8349  0.1260
 2723TIP3    H229661   6.660   2.505   1.627 -1.6006 -0.0849  0.4500
 2724TIP3   OH229662   4.482   5.477   4.134 -0.3536 -0.2394  0.2224
 2724TIP3    H129663   4.512   5.466   4.224  1.6845 -2.4063 -0.6101
 2724TIP3    H229664   4.544   5.538   4.095 -0.3245 -0.4738 -0.1014
 2725TIP3   OH229665   2.388   3.169   2.031 -0.2691 -0.4749 -0.1796
 2725TIP3    H129666   2.299   3.187   2.062 -0.8299 -1.3732 -1.2218
 2725TIP3    H229667   2.424   3.109   2.096  0.5083  1.7660  1.6056
 2726TIP3   OH229668   0.138   5.511  12.887 -0.7221 -0.0906  0.2251
 2726TIP3    H129669   0.074   5.484  12.953 -1.2741 -0.6820 -0.5398
 2726TIP3    H229670   0.222   5.483  12.922 -0.9467  0.1253  0.9481
 2727TIP3   OH229671   6.300   4.976  10.477 -0.2443 -0.0104  0.6174
 2727TIP3    H129672   6.271   5.013  10.394 -1.5856  0.8412  1.4341
 2727TIP3    H229673   6.289   4.882  10.466 -0.1882  0.0755 -0.2474
 2728TIP3   OH229674   0.311   6.727   4.671 -0.1853 -0.0688 -0.9211
 2728TIP3    H129675   0.226   6.766   4.653 -1.3334 -1.4834  1.1301
 2728TIP3    H229676   0.306   6.638   4.636  1.7519  0.8042 -3.8547
 2729TIP3   OH229677   5.029   2.242  15.210 -0.2062  0.0003  0.0164
 2729TIP3    H129678   4.962   2.177  15.189 -0.5564  0.0788  0.8610
 2729TIP3    H229679   5.098   2.226  15.146 -0.6795 -0.6142 -0.3571
 2730TIP3   OH229680   1.221   2.660   3.833 -0.1213  0.3753 -0.0213
 2730TIP3    H129681   1.179   2.579   3.803 -0.2536  0.4352  0.0055
 2730TIP3    H229682   1.230   2.649   3.927  0.6755  0.0056 -0.1263
 2731TIP3   OH229683   4.041   4.254  12.100  0.3614  0.4308 -0.1537
 2731TIP3    H129684   4.030   4.262  12.005 -0.6298 -0.9305 -0.1913
 2731TIP3    H229685   3.969   4.196  12.127  1.5925 -0.5257  1.1833
 2732TIP3   OH229686   5.202   2.014   5.003 -0.2048 -0.4425 -0.3636
 2732TIP3    H129687   5.218   2.024   4.909 -0.5437 -0.6195 -0.4402
 2732TIP3    H229688   5.141   2.085   5.024  3.1084  2.3934  0.5857
 2733TIP3   OH229689   4.666   0.655   3.503 -0.0649  0.2430 -0.0959
 2733TIP3    H129690   4.728   0.602   3.453 -1.7197 -0.3871 -1.5916
 2733TIP3    H229691   4.625   0.594   3.564  2.4441  1.1396  2.7322
 2734TIP3   OH229692   4.629   0.303  10.634  0.1914  0.4393  0.1563
 2734TIP3    H129693   4.691   0.238  10.602  0.4073  1.1878 -1.0107
 2734TIP3    H229694   4.569   0.317  10.562 -0.0402  1.2972  0.4966
 2735TIP3   OH229695   0.940   1.445  14.390 -0.0242 -0.0653  0.2118
 2735TIP3    H129696   0.956   1.488  14.306  0.8602  0.0762  0.4444
 2735TIP3    H229697   0.906   1.359  14.367 -1.4963  0.6002 -0.2677
 2736TIP3   OH229698   4.027   3.782  14.771 -0.1325 -0.1034  0.4023
 2736TIP3    H129699   3.967   3.825  14.711 -0.1731 -1.8933 -0.9293
 2736TIP3    H229700   4.085   3.731  14.715  0.6561 -0.8395  1.8243
 2737TIP3   OH229701   2.155   5.518  17.074 -0.3580 -0.2421 -0.5907
 2737TIP3    H129702   2.173   5.439  17.125 -1.7018  1.0895  2.1132
 2737TIP3    H229703   2.079   5.495  17.021 -2.1170 -0.2108  1.7760
 2738TIP3   OH229704   5.389   1.828  15.486 -0.7448 -0.1959  0.2178
 2738TIP3    H129705   5.399   1.779  15.404 -1.6839  0.1802 -0.1470
 2738TIP3    H229706   5.361   1.763  15.550 -0.3318 -0.4333  0.1602
 2739TIP3   OH229707   1.988   5.825   1.899 -0.1953  0.2755 -0.5390
 2739TIP3    H129708   2.075   5.826   1.938 -1.1009  0.3836  1.5884
 2739TIP3    H229709   1.962   5.917   1.898 -0.2526  0.2550 -1.2836
 2740TIP3   OH229710   6.654   5.568  11.151  0.2292  0.2137  0.2033
 2740TIP3    H129711   6.602   5.638  11.192  0.7111  1.0691 -0.6206
 2740TIP3    H229712   6.735   5.567  11.201  0.2058  0.2077  0.2426
 2741TIP3   OH229713   3.191   1.851   5.265  0.0039  0.2079 -0.0749
 2741TIP3    H129714   3.286   1.853   5.256 -0.0908  0.6868 -1.1290
 2741TIP3    H229715   3.175   1.880   5.355  0.8779 -0.6692  0.3704
 2742TIP3   OH229716   5.799   0.511  15.819  0.4183  0.1906  0.0318
 2742TIP3    H129717   5.707   0.494  15.842  0.4809  0.9489  0.9008
 2742TIP3    H229718   5.793   0.566  15.741  0.1562 -0.4577 -0.4152
 2743TIP3   OH229719   4.120   2.935  12.195 -0.3293  0.3161  0.1522
 2743TIP3    H129720   4.089   2.847  12.175 -0.2069  0.3377 -0.1426
 2743TIP3    H229721   4.211   2.936  12.167 -0.2760  0.4806  0.3247
 2744TIP3   OH229722   4.247   4.836  11.564 -0.2093 -0.0570  0.3271
 2744TIP3    H129723   4.285   4.835  11.652 -0.8260 -0.3853  0.5959
 2744TIP3    H229724   4.301   4.898  11.516  1.4355 -1.4240  0.3449
 2745TIP3   OH229725   0.227   4.258   5.435 -0.1796  0.1682  0.0952
 2745TIP3    H129726   0.225   4.350   5.410 -0.4567  0.0320 -0.4144
 2745TIP3    H229727   0.223   4.210   5.352  2.5925 -0.3284  0.1581
 2746TIP3   OH229728   6.085   6.484  14.254 -0.0808  0.2822  0.1898
 2746TIP3    H129729   6.173   6.445  14.258 -1.0654 -2.0733  0.7230
 2746TIP3    H229730   6.082   6.543  14.329  1.4630  1.4539 -0.6078
 2747TIP3   OH229731   1.036   3.387  14.426  0.1215  0.4468 -0.0877
 2747TIP3    H129732   0.978   3.462  14.435  0.4344  0.4754  2.4050
 2747TIP3    H229733   1.124   3.424  14.425  0.2492  0.1530  0.3473
 2748TIP3   OH229734   4.074   5.666   2.119 -0.0997  0.3906  0.2553
 2748TIP3    H129735   4.052   5.614   2.042  1.5707 -0.0281  0.0155
 2748TIP3    H229736   3.999   5.655   2.177 -0.7287 -0.5306 -0.6889
 2749TIP3   OH229737   3.951   4.636   0.025 -0.3638 -0.2322  0.0524
 2749TIP3    H129738   3.963   4.544  -0.000  0.5979  0.0528 -0.5696
 2749TIP3    H229739   3.879   4.667  -0.031 -0.7643 -0.6254  0.3390
 2750TIP3   OH229740   2.038   4.805   1.492  0.2502  0.0920  0.6408
 2750TIP3    H129741   1.961   4.861   1.479  0.0686  0.0675  1.5666
 2750TIP3    H229742   2.105   4.844   1.435 -0.9234 -0.9267 -1.6012
 2751TIP3   OH229743   1.803   5.871   4.609 -0.0609  0.3696 -0.4629
 2751TIP3    H129744   1.717   5.905   4.584 -0.2635  0.5873  0.4622
 2751TIP3    H229745   1.816   5.904   4.698  0.1426 -1.2394  0.1309
 2752TIP3   OH229746   0.448   3.538   5.492 -0.7905  0.1588  0.2357
 2752TIP3    H129747   0.474   3.593   5.418 -0.2562 -0.0659  0.2524
 2752TIP3    H229748   0.391   3.594   5.544 -1.8004  0.0810 -0.7290
 2753TIP3   OH229749   2.150   3.677  15.318  0.3246 -0.2893 -0.3745
 2753TIP3    H129750   2.210   3.688  15.393  0.0011 -0.1039 -0.1404
 2753TIP3    H229751   2.202   3.703  15.242  0.3021  0.6153 -0.0843
 2754TIP3   OH229752   4.701   3.891   4.067 -0.3659  0.0763  0.1092
 2754TIP3    H129753   4.794   3.877   4.048 -0.9428 -1.3263 -1.9842
 2754TIP3    H229754   4.655   3.827   4.012 -2.5760  0.6528  1.1825
 2755TIP3   OH229755   5.376   2.707  15.716  0.0698  0.1186 -0.2899
 2755TIP3    H129756   5.312   2.702  15.645 -0.8881 -0.7698  0.5959
 2755TIP3    H229757   5.329   2.673  15.793  1.3885  0.1079  0.5440
 2756TIP3   OH229758   4.850   0.375  14.081  1.1086 -0.3666  0.5539
 2756TIP3    H129759   4.796   0.322  14.139  1.0260  0.0801  0.8944
 2756TIP3    H229760   4.844   0.332  13.996  0.1153 -0.2547  0.5573
 2757TIP3   OH229761   1.033   6.429  12.822  0.1252  0.5551  0.0576
 2757TIP3    H129762   1.127   6.430  12.841 -0.0414 -1.3751  1.2309
 2757TIP3    H229763   0.992   6.434  12.908 -0.8413  0.3803 -0.3852
 2758TIP3   OH229764   1.554   5.498  16.794 -0.2526  0.3835  1.1358
 2758TIP3    H129765   1.599   5.549  16.727 -0.7906 -0.6977 -0.0734
 2758TIP3    H229766   1.464   5.493  16.765 -0.1104 -1.7292  0.8991
 2759TIP3   OH229767   6.461   1.135   6.198 -0.0529 -0.6547  0.1909
 2759TIP3    H129768   6.428   1.064   6.252 -1.4943  0.7550  1.2887
 2759TIP3    H229769   6.438   1.215   6.247 -0.9565  0.6744 -2.2192
 2760TIP3   OH229770   3.670   5.714  13.089 -0.1459 -0.4035  0.7920
 2760TIP3    H129771   3.629   5.794  13.056 -1.4429 -1.1826  0.4172
 2760TIP3    H229772   3.619   5.643  13.049  2.2893 -1.4833 -0.5971
 2761TIP3   OH229773   5.670   4.553  12.183  0.0534 -0.0886 -0.6182
 2761TIP3    H129774   5.692   4.632  12.134 -1.2951  1.5870  1.2758
 2761TIP3    H229775   5.754   4.509  12.196  0.9382  1.3156 -1.2819
 2762TIP3   OH229776   2.758   1.292  14.140  0.2762  0.3919  0.3016
 2762TIP3    H129777   2.794   1.209  14.112 -1.1950 -0.2659  0.2682
 2762TIP3    H229778   2.833   1.352  14.140  1.2257 -0.7502 -0.3193
 2763TIP3   OH229779   4.649   3.710   3.846 -0.4315  0.3381 -0.0999
 2763TIP3    H129780   4.695   3.628   3.866  0.5562  1.4900  2.8676
 2763TIP3    H229781   4.573   3.683   3.795 -0.1457 -2.4282  0.7862
 2764TIP3   OH229782   0.664   6.485  11.491 -0.3931  0.1688  0.4338
 2764TIP3    H129783   0.740   6.543  11.497 -0.0932 -0.1974  0.2091
 2764TIP3    H229784   0.629   6.500  11.404 -1.2992  1.2186  0.9593
 2765TIP3   OH229785   4.571   4.916   2.031  0.3062  0.5233 -0.1463
 2765TIP3    H129786   4.531   4.992   2.074 -1.5653 -0.6842  0.3657
 2765TIP3    H229787   4.658   4.910   2.070  0.8937  2.9695 -0.9397
 2766TIP3   OH229788   6.321   5.200   0.074  0.0136 -0.2287 -0.4003
 2766TIP3    H129789   6.303   5.256   0.150  0.2334  0.4642 -0.8539
 2766TIP3    H229790   6.353   5.118   0.112 -0.3333 -0.0580  0.2724
 2767TIP3   OH229791   4.865   5.928  12.336  0.4090 -0.2291 -0.1270
 2767TIP3    H129792   4.845   5.866  12.406  0.0936 -1.5950 -1.4016
 2767TIP3    H229793   4.955   5.955  12.353  0.3304 -0.5252  0.8066
 2768TIP3   OH229794   2.357   6.266   1.674 -0.1193 -0.7189  0.1223
 2768TIP3    H129795   2.263   6.266   1.656 -0.1796 -0.1391  0.4042
 2768TIP3    H229796   2.364   6.308   1.760  0.4442 -0.2227 -0.1645
 2769TIP3   OH229797   4.863   6.777  12.351  0.2329  0.5915 -0.6711
 2769TIP3    H129798   4.886   6.870  12.350 -1.5275  1.1299  1.4925
 2769TIP3    H229799   4.843   6.757  12.259  0.8972  2.2579 -1.2238
 2770TIP3   OH229800   6.085   4.081  14.488 -0.1748 -0.3500 -0.1997
 2770TIP3    H129801   6.136   4.158  14.465 -1.1018  0.2839 -0.1471
 2770TIP3    H229802   6.134   4.008  14.450 -0.1448  0.4037 -1.6605
 2771TIP3   OH229803   3.647   3.133  16.079  0.3454  0.7254  0.1228
 2771TIP3    H129804   3.624   3.155  15.988  0.5657  1.7087  0.2940
 2771TIP3    H229805   3.591   3.190  16.132  0.3202  0.2543  0.6076
 2772TIP3   OH229806   5.299   6.554  14.509 -0.5756 -0.0792  0.8815
 2772TIP3    H129807   5.245   6.517  14.439  1.5323 -1.0521 -0.3326
 2772TIP3    H229808   5.284   6.649  14.503 -1.5259 -0.2579  0.0680
 2773TIP3   OH229809   2.142   0.423  12.157 -0.6125 -0.5915  0.0815
 2773TIP3    H129810   2.151   0.398  12.065 -0.3729  0.1234 -0.0935
 2773TIP3    H229811   2.051   0.404  12.178 -0.6199 -0.9463 -0.2422
 2774TIP3   OH229812   4.955   5.968  14.688 -0.1226  0.5011  0.6232
 2774TIP3    H129813   4.885   6.031  14.702 -0.0668  0.1384  2.8471
 2774TIP3    H229814   5.033   6.009  14.726 -0.4462 -1.5052  3.8017
 2775TIP3   OH229815   5.034   3.246   1.868 -0.6408 -0.0791 -0.2630
 2775TIP3    H129816   4.947   3.265   1.903  0.1674 -0.2690  2.0267
 2775TIP3    H229817   5.092   3.250   1.944  1.1976 -1.1053 -1.5215
 2776TIP3   OH229818   4.453   1.749   4.066 -0.4465  0.3094  0.6080
 2776TIP3    H129819   4.448   1.775   4.158  1.7104 -0.7104  1.0589
 2776TIP3    H229820   4.405   1.666   4.062  1.9252 -1.2233  1.5326
 2777TIP3   OH229821   5.132   5.161  14.692  0.4492 -0.8140  0.3516
 2777TIP3    H129822   5.137   5.087  14.632 -0.5893  0.2724 -1.1643
 2777TIP3    H229823   5.117   5.237  14.635  1.1634  0.5254  1.8682
 2778TIP3   OH229824   6.614   1.793   2.164 -0.4132  0.0959  0.5175
 2778TIP3    H129825   6.626   1.861   2.230  0.9988  0.6802 -0.2878
 2778TIP3    H229826   6.703   1.771   2.136 -0.7647 -2.5006  1.1332
 2779TIP3   OH229827   5.803   5.561   3.472 -0.3587  0.1848 -0.1171
 2779TIP3    H129828   5.837   5.599   3.390  0.2098 -0.7263 -0.3177
 2779TIP3    H229829   5.749   5.487   3.443  2.2960 -2.1057  0.3560
 2780TIP3   OH229830   1.859   6.275   0.004  0.1840 -0.2705  0.2605
 2780TIP3    H129831   1.820   6.263  -0.083 -0.3212 -0.9520  0.5762
 2780TIP3    H229832   1.941   6.321  -0.013 -0.0466 -0.1367 -0.5523
 2781TIP3   OH229833   4.322   2.493  14.916 -0.1771  0.6210  0.0964
 2781TIP3    H129834   4.368   2.501  15.000  0.3607  0.8369 -0.2135
 2781TIP3    H229835   4.390   2.506  14.850 -0.3769 -0.6676 -0.3946
 2782TIP3   OH229836   3.842   5.753   4.684  0.8628  0.4213  0.3477
 2782TIP3    H129837   3.924   5.750   4.635  1.3611  1.4107  1.0978
 2782TIP3    H229838   3.808   5.842   4.669  0.1751  0.1841  0.4468
 2783TIP3   OH229839   3.963   0.495  14.917  0.2562  0.4315 -0.0980
 2783TIP3    H129840   3.896   0.560  14.939 -0.1317 -0.1589  0.4788
 2783TIP3    H229841   4.020   0.540  14.854 -0.4677  1.0599 -0.3158
 2784TIP3   OH229842   0.127   0.234  12.256  0.2229  0.1940 -0.2396
 2784TIP3    H129843   0.148   0.161  12.198  0.7438  0.2928 -0.1745
 2784TIP3    H229844   0.212   0.272  12.280 -0.0751  2.0663 -1.8663
 2785TIP3   OH229845   6.694   3.141   5.868 -0.2629  0.0633 -0.1237
 2785TIP3    H129846   6.711   3.047   5.856 -2.8910 -0.6168  0.7825
 2785TIP3    H229847   6.765   3.171   5.926  0.5472 -1.3831 -0.3146
 2786TIP3   OH229848   2.397   1.747  15.460 -0.0359  0.3592  0.1253
 2786TIP3    H129849   2.446   1.763  15.541  0.8044 -0.1086 -0.2749
 2786TIP3    H229850   2.426   1.661  15.431 -0.6095  0.3599 -0.4811
 2787TIP3   OH229851   0.770   0.874  16.097  0.3312 -0.5144 -0.6649
 2787TIP3    H129852   0.848   0.850  16.048  1.4980 -1.3003  1.4330
 2787TIP3    H229853   0.799   0.880  16.188 -1.5068  1.7533 -0.0955
 2788TIP3   OH229854   5.439   6.520  12.967  0.1396 -0.1719 -0.3807
 2788TIP3    H129855   5.384   6.513  12.889  0.6742 -3.3954 -0.6106
 2788TIP3    H229856   5.379   6.551  13.035 -0.6828  1.2885 -1.6835
 2789TIP3   OH229857   4.686   5.515  15.253  0.0923  0.3139 -0.0569
 2789TIP3    H129858   4.607   5.505  15.200  0.3313 -0.7286 -0.2365
 2789TIP3    H229859   4.758   5.507  15.190  0.4136 -2.0213  0.4953
 2790TIP3   OH229860   2.074   3.513   3.613 -0.5238 -0.9183  0.2468
 2790TIP3    H129861   1.980   3.532   3.614 -0.3983 -0.2392 -0.2062
 2790TIP3    H229862   2.114   3.584   3.663 -0.0222  0.2820 -1.7514
 2791TIP3   OH229863   4.168   2.328   3.145  0.5311  0.0448 -0.2067
 2791TIP3    H129864   4.117   2.372   3.213 -0.8465  0.2906 -1.3352
 2791TIP3    H229865   4.207   2.400   3.094 -1.2649  0.0152 -1.7162
 2792TIP3   OH229866   1.110   4.406  11.001  0.5432  0.1703  0.4302
 2792TIP3    H129867   1.163   4.476  10.964  0.7024  0.9706  2.0481
 2792TIP3    H229868   1.126   4.330  10.945  2.2932  0.7690  0.0551
 2793TIP3   OH229869   3.225   3.702   0.673 -0.0823 -0.4291 -0.4503
 2793TIP3    H129870   3.137   3.668   0.655 -0.2192  0.3341 -1.2479
 2793TIP3    H229871   3.272   3.692   0.591  0.1041  0.6086 -0.4804
 2794TIP3   OH229872   3.623   4.104  15.289  0.3852  0.6889  0.1472
 2794TIP3    H129873   3.598   4.130  15.377 -1.3909 -1.3960  0.3543
 2794TIP3    H229874   3.686   4.033  15.302  1.0586  1.1811 -0.3151
 2795TIP3   OH229875   5.419   5.667  11.492  0.1535 -0.0896 -0.4371
 2795TIP3    H129876   5.397   5.759  11.476 -1.0150  0.0223  1.4772
 2795TIP3    H229877   5.509   5.670  11.524 -0.5616  0.7067  1.7089
 2796TIP3   OH229878   4.935   3.044  15.076  0.0044  0.0737  0.4291
 2796TIP3    H129879   4.981   2.997  15.007  1.7019  1.7947  0.3043
 2796TIP3    H229880   4.904   3.124  15.034 -1.6653 -0.2682  0.9490
 2797TIP3   OH229881   0.814   5.585  17.041 -0.2855 -0.0684 -0.3777
 2797TIP3    H129882   0.901   5.593  17.081 -0.3952 -0.8810  0.0315
 2797TIP3    H229883   0.753   5.593  17.113 -0.4740 -1.9695 -0.2629
 2798TIP3   OH229884   5.705   3.948   3.740  0.3270 -0.6949 -0.5170
 2798TIP3    H129885   5.702   3.928   3.833  1.6034 -1.5060 -0.6279
 2798TIP3    H229886   5.669   3.870   3.697  0.5716 -0.6915 -0.7332
 2799TIP3   OH229887   0.030   3.616  11.327 -0.1187  0.0433 -0.0312
 2799TIP3    H129888   0.115   3.584  11.296 -0.0441 -0.1555  0.3747
 2799TIP3    H229889   0.008   3.687  11.267 -0.2455 -0.7058 -0.8941
 2800TIP3   OH229890   3.358   4.665  16.697  0.4127 -0.0278 -0.7168
 2800TIP3    H129891   3.373   4.746  16.746 -0.5895 -0.2471 -0.0207
 2800TIP3    H229892   3.436   4.612  16.713  0.2675  0.0613  0.3378
 2801TIP3   OH229893   2.783   6.469   5.247 -0.2467  0.0183  0.2317
 2801TIP3    H129894   2.857   6.412   5.224 -0.0522  0.3545  0.0248
 2801TIP3    H229895   2.769   6.523   5.170  1.0941  1.9111  1.2567
 2802TIP3   OH229896   5.475   5.153   2.807  0.2152 -0.0348  0.0684
 2802TIP3    H129897   5.437   5.240   2.817 -0.5574 -0.1246 -1.6873
 2802TIP3    H229898   5.568   5.166   2.825  0.2382  1.3286 -0.8666
 2803TIP3   OH229899   1.474   4.356   3.702  0.6032 -0.0851  0.2924
 2803TIP3    H129900   1.452   4.401   3.620 -2.1358 -2.0607 -0.2101
 2803TIP3    H229901   1.493   4.266   3.675  2.8125 -0.0809  1.5903
 2804TIP3   OH229902   1.923   6.512  14.653 -0.0774  0.1694 -0.3556
 2804TIP3    H129903   1.909   6.574  14.724  2.3176 -0.3690  0.6778
 2804TIP3    H229904   1.906   6.426  14.691  1.5563 -0.1528 -0.2516
 2805TIP3   OH229905   5.329   5.225  11.540 -0.5277  0.5126 -0.0087
 2805TIP3    H129906   5.394   5.166  11.502  1.2839  0.4339  2.9008
 2805TIP3    H229907   5.348   5.310  11.500  0.1852  0.1130 -0.5520
 2806TIP3   OH229908   6.433   3.562  10.997 -0.0791 -0.6563  0.0680
 2806TIP3    H129909   6.498   3.592  10.933 -1.5012  0.8331 -0.7337
 2806TIP3    H229910   6.353   3.551  10.947 -1.0585 -0.1278  1.4609
 2807TIP3   OH229911   0.236   2.162   0.590  0.2889  0.0262 -0.0774
 2807TIP3    H129912   0.300   2.180   0.521  0.5351 -1.7131 -0.3414
 2807TIP3    H229913   0.284   2.173   0.672  0.0881  1.7536 -0.1538
 2808TIP3   OH229914   1.218   5.978  12.486  0.6681  0.3264  0.2384
 2808TIP3    H129915   1.302   5.932  12.483  1.4191  1.6778 -0.7655
 2808TIP3    H229916   1.226   6.038  12.559  0.0031 -0.5032  1.0256
 2809TIP3   OH229917   3.893   0.057  16.715 -0.2237  0.1951  0.2350
 2809TIP3    H129918   3.810   0.014  16.735 -0.4056  0.1263 -0.6365
 2809TIP3    H229919   3.896   0.061  16.619  1.3803 -1.0229  0.1934
 2810TIP3   OH229920   4.560   3.240   1.423  0.6738  0.1904 -0.1638
 2810TIP3    H129921   4.581   3.261   1.514  1.2582 -1.3163  0.0844
 2810TIP3    H229922   4.644   3.245   1.377  0.4814  0.3591 -0.5050
 2811TIP3   OH229923   6.650   3.489  11.739 -0.1442  0.2670 -0.1752
 2811TIP3    H129924   6.616   3.482  11.649  0.5023  0.8403 -0.4811
 2811TIP3    H229925   6.648   3.583  11.757  0.5666  0.2373  0.0774
 2812TIP3   OH229926   6.280   5.225  12.731 -0.1476  0.1021  0.3672
 2812TIP3    H129927   6.213   5.211  12.798 -0.2780  0.3386  0.2865
 2812TIP3    H229928   6.232   5.264  12.658 -0.5022 -2.3099 -0.7952
 2813TIP3   OH229929   4.501   5.141  11.821  0.0080  0.4453  0.0104
 2813TIP3    H129930   4.542   5.172  11.901 -2.5033 -0.0834  1.5968
 2813TIP3    H229931   4.423   5.196  11.810 -0.2117 -0.1092 -1.5695
 2814TIP3   OH229932   1.008   4.288   0.904 -0.7200 -0.1098 -0.2749
 2814TIP3    H129933   1.005   4.241   0.821 -1.4738 -0.8177  0.1310
 2814TIP3    H229934   0.927   4.262   0.949  1.1685 -2.4578  2.0932
 2815TIP3   OH229935   2.653   4.148  11.993 -0.0196  0.6268 -0.3858
 2815TIP3    H129936   2.630   4.081  12.058 -0.0778  1.3764  0.3832
 2815TIP3    H229937   2.708   4.102  11.929 -0.6048 -0.3059 -0.2296
 2816TIP3   OH229938   1.365   5.526   3.649 -0.1062  0.8845 -0.3485
 2816TIP3    H129939   1.313   5.560   3.577 -1.1788  0.1231  0.0416
 2816TIP3    H229940   1.340   5.579   3.724 -1.1140 -0.1136  0.0605
 2817TIP3   OH229941   1.729   0.208   2.969  0.2836 -0.2038 -0.0099
 2817TIP3    H129942   1.733   0.282   3.029 -2.9878  0.1473 -0.0725
 2817TIP3    H229943   1.791   0.144   3.005  0.9133  1.3412  1.7708
 2818TIP3   OH229944   4.902   3.720   5.441 -0.0629 -0.4072  0.5617
 2818TIP3    H129945   4.972   3.786   5.445 -1.0233  0.6436  0.4382
 2818TIP3    H229946   4.907   3.675   5.526  1.0400 -0.6484  0.3816
 2819TIP3   OH229947   5.575   1.796   4.013 -0.1059  0.4259  0.0137
 2819TIP3    H129948   5.486   1.770   3.989 -0.3101 -0.0783  1.2737
 2819TIP3    H229949   5.567   1.890   4.033 -0.2704  0.4658 -0.2237
 2820TIP3   OH229950   2.756   0.029  13.522 -0.3421 -0.7453  0.3533
 2820TIP3    H129951   2.757  -0.045  13.461 -1.6827 -1.6929  1.4114
 2820TIP3    H229952   2.668   0.066  13.513  0.4375  1.0383 -0.4697
 2821TIP3   OH229953   3.016   6.817  12.944 -0.1370  0.5123  0.7862
 2821TIP3    H129954   3.104   6.789  12.969  0.0386  0.3548  0.0182
 2821TIP3    H229955   3.012   6.801  12.849 -0.5138  1.7910  0.5721
 2822TIP3   OH229956   4.116   5.412  15.658  0.6190 -0.7144 -0.1059
 2822TIP3    H129957   4.121   5.425  15.752  0.2660 -2.9538  0.2928
 2822TIP3    H229958   4.141   5.496  15.620 -0.9861  0.7903  1.9583
 2823TIP3   OH229959   6.329   2.522  12.354 -0.2252 -0.2901 -0.7571
 2823TIP3    H129960   6.423   2.537  12.346 -0.5891  2.9589 -0.3647
 2823TIP3    H229961   6.301   2.497  12.266  0.6267  1.8468 -1.7022
 2824TIP3   OH229962   3.752   2.045   2.879  0.0824  0.0504 -1.0116
 2824TIP3    H129963   3.772   2.050   2.786 -0.7944  0.1890 -1.2022
 2824TIP3    H229964   3.657   2.052   2.884 -0.2442 -3.2164 -0.3689
 2825TIP3   OH229965   2.828   0.726   5.649 -0.2343  0.1316  0.0332
 2825TIP3    H129966   2.877   0.644   5.651  0.4071  0.5143  0.6139
 2825TIP3    H229967   2.879   0.785   5.705 -1.6655  0.3673  1.1468
 2826TIP3   OH229968   0.089   4.486  12.097  0.1047 -0.2676 -0.5587
 2826TIP3    H129969   0.155   4.478  12.166  1.4359  1.8131 -1.4746
 2826TIP3    H229970   0.007   4.500  12.144  0.8446  0.2290  0.6338
 2827TIP3   OH229971   5.116   2.817  13.189 -0.2133  0.4102  0.4762
 2827TIP3    H129972   5.174   2.855  13.255  0.1024  3.0367 -1.1545
 2827TIP3    H229973   5.036   2.797  13.237  0.6365  0.5413  1.9993
 2828TIP3   OH229974   5.875   0.434  13.770  0.3238 -0.1208  0.5046
 2828TIP3    H129975   5.863   0.408  13.861  1.2062  0.3370  0.7651
 2828TIP3    H229976   5.927   0.363  13.731  0.4656 -0.0292  0.5236
 2829TIP3   OH229977   5.468   4.420   2.193  0.2359  0.1673 -0.1693
 2829TIP3    H129978   5.495   4.511   2.197  0.5573  0.0631  0.0585
 2829TIP3    H229979   5.514   4.378   2.266  0.3833 -0.2487 -0.4968
 2830TIP3   OH229980   2.125   2.279   2.918  0.3534 -0.5625 -0.3837
 2830TIP3    H129981   2.115   2.325   2.835  1.1808 -0.0093 -0.1864
 2830TIP3    H229982   2.038   2.243   2.937  0.0969 -0.4543 -1.3451
 2831TIP3   OH229983   4.465   6.773  15.740  0.2317  0.0043  0.0711
 2831TIP3    H129984   4.558   6.766  15.761  0.8752  2.9840 -1.1816
 2831TIP3    H229985   4.434   6.847  15.792 -1.8075 -1.6602  1.3662
 2832TIP3   OH229986   2.943   5.142  14.769  0.1589 -0.0043  0.2213
 2832TIP3    H129987   2.883   5.083  14.814  0.2325  0.5874  1.1513
 2832TIP3    H229988   3.027   5.129  14.814  0.3978  0.1369 -0.1790
 2833TIP3   OH229989   4.190   6.652   0.490 -0.3927 -0.0684 -0.1646
 2833TIP3    H129990   4.251   6.685   0.424 -0.0596 -1.1247 -0.4018
 2833TIP3    H229991   4.103   6.676   0.456 -0.1452  1.1419  0.0102
 2834TIP3   OH229992   5.266   6.220  12.586 -0.0213  0.2796 -0.4938
 2834TIP3    H129993   5.331   6.157  12.555 -0.6714 -1.5592  1.5868
 2834TIP3    H229994   5.194   6.213  12.523  0.9223  0.8280 -1.6687
 2835TIP3   OH229995   5.885   4.040   4.277  0.3933  0.0755  0.0675
 2835TIP3    H129996   5.907   3.947   4.282  1.9190  0.2741 -1.6032
 2835TIP3    H229997   5.946   4.082   4.336  1.1593  0.1734 -0.7689
 2836TIP3   OH229998   5.483   6.065  14.964  0.1790 -0.4523 -0.5173
 2836TIP3    H129999   5.402   6.016  14.952  0.2521 -0.6238 -0.3157
 2836TIP3    H230000   5.548   6.017  14.912  0.0107  0.0561 -1.2130
 2837TIP3   OH230001   5.596   1.720  11.900 -0.0392  0.1138 -0.2193
 2837TIP3    H130002   5.508   1.729  11.863  0.6481  0.8072 -1.7975
 2837TIP3    H230003   5.652   1.767  11.839  1.8505 -2.7833 -0.9465
 2838TIP3   OH230004   2.227   2.566  16.542 -0.2592 -0.2302  0.3591
 2838TIP3    H130005   2.158   2.530  16.598 -2.3917  2.4384 -0.3735
 2838TIP3    H230006   2.234   2.658  16.568 -0.7562  0.9230 -3.0612
 2839TIP3   OH230007   4.030   0.662   4.011 -0.2359  0.1148 -0.5258
 2839TIP3    H130008   3.950   0.715   4.016  0.1447  0.6024  0.8302
 2839TIP3    H230009   4.000   0.572   4.020 -0.7875  0.1588 -1.7563
 2840TIP3   OH230010   0.695   3.341  14.559 -0.2763  0.5093 -0.2064
 2840TIP3    H130011   0.704   3.277  14.629  0.7904  2.3111  1.4109
 2840TIP3    H230012   0.673   3.289  14.482 -1.7667 -1.5356  1.4829
 2841TIP3   OH230013   2.214   4.978  12.630  0.1614  0.2056  0.1136
 2841TIP3    H130014   2.173   4.948  12.712 -1.9957  2.1542 -0.1462
 2841TIP3    H230015   2.300   5.010  12.655 -1.4711  3.4167  2.2743
 2842TIP3   OH230016   5.678   1.002  14.117 -0.0765 -0.1492 -0.3362
 2842TIP3    H130017   5.672   0.963  14.030  1.2362  0.8927 -0.9091
 2842TIP3    H230018   5.603   1.061  14.122  0.9529  1.3102 -1.5634
 2843TIP3   OH230019   0.390   4.725  14.987 -0.2066  0.2990  0.3784
 2843TIP3    H130020   0.382   4.794  15.053  2.3132  1.7186 -0.6492
 2843TIP3    H230021   0.445   4.659  15.028 -0.2269  0.2686  0.3567
 2844TIP3   OH230022   0.032   3.190   0.160 -0.5462 -0.6440 -0.8227
 2844TIP3    H130023   0.082   3.196   0.241 -0.4422 -0.1595 -0.9198
 2844TIP3    H230024   0.084   3.238   0.096 -1.0438 -0.2912 -0.9696
 2845TIP3   OH230025   2.397   3.565   5.892 -0.2727 -0.4610  0.0585
 2845TIP3    H130026   2.333   3.508   5.936  1.4685 -1.9112  0.8942
 2845TIP3    H230027   2.478   3.549   5.940  0.6655  1.5503 -0.7645
 2846TIP3   OH230028   2.718   6.111  10.829  0.1675 -0.0976 -0.0542
 2846TIP3    H130029   2.692   6.149  10.745  1.6214 -0.7822 -0.8493
 2846TIP3    H230030   2.802   6.151  10.849 -0.9409  1.3763  1.9963
 2847TIP3   OH230031   4.349   1.698  14.992  0.1066  0.4626  0.2025
 2847TIP3    H130032   4.265   1.674  15.032 -0.8482  1.4745 -1.0904
 2847TIP3    H230033   4.365   1.788  15.023  1.0718  0.0478  0.9604
 2848TIP3   OH230034   2.428   2.768  15.404  0.0948 -0.0157 -0.0028
 2848TIP3    H130035   2.483   2.717  15.464 -0.1547 -0.4077 -0.0999
 2848TIP3    H230036   2.409   2.849  15.451  0.2230 -0.1553  0.2916
 2849TIP3   OH230037   4.368   4.600   2.632 -0.0904 -0.8508  0.6821
 2849TIP3    H130038   4.401   4.661   2.565 -0.3423  0.1419  1.4404
 2849TIP3    H230039   4.446   4.554   2.662  0.7406  1.6077  2.5898
 2850TIP3   OH230040   1.258   2.482  11.681 -0.4661  0.3090 -0.2904
 2850TIP3    H130041   1.316   2.538  11.630 -0.1800 -0.0370 -0.3515
 2850TIP3    H230042   1.291   2.393  11.665 -2.1183 -0.1073 -1.8559
 2851TIP3   OH230043   1.637   5.566  14.179 -0.3735 -0.1127  0.2042
 2851TIP3    H130044   1.568   5.500  14.187  0.7183 -1.3630 -0.2803
 2851TIP3    H230045   1.644   5.583  14.085  1.2149 -1.4433  0.0205
 2852TIP3   OH230046   1.162   0.613  14.917 -0.4764  0.5064 -0.4331
 2852TIP3    H130047   1.130   0.535  14.871 -0.1111  0.3757 -0.4624
 2852TIP3    H230048   1.208   0.664  14.850 -0.2046  0.4626 -0.2792
 2853TIP3   OH230049   6.625   5.432   0.162 -0.4810 -0.7089 -0.2348
 2853TIP3    H130050   6.655   5.492   0.230  1.0126 -1.0151 -0.5947
 2853TIP3    H230051   6.611   5.349   0.207 -0.1448 -0.7357 -0.1797
 2854TIP3   OH230052   0.835   0.540   2.611 -0.6191 -0.5387 -0.6228
 2854TIP3    H130053   0.810   0.467   2.555  2.6163 -0.2714 -2.6377
 2854TIP3    H230054   0.906   0.505   2.665 -0.3902  0.5639 -0.1854
 2855TIP3   OH230055   1.484   4.769  13.014 -0.1473  0.6974  0.3699
 2855TIP3    H130056   1.487   4.688  13.065 -3.8197 -1.2251 -1.9347
 2855TIP3    H230057   1.565   4.768  12.963  1.6389  0.5541  2.9902
 2856TIP3   OH230058   6.226   3.200  15.204 -0.1702 -0.1520  0.4658
 2856TIP3    H130059   6.195   3.180  15.293 -1.1461  1.5988  0.5620
 2856TIP3    H230060   6.148   3.231  15.158  0.1785 -1.6258 -1.2408
 2857TIP3   OH230061   2.637   1.838   3.250  0.7783 -0.1831 -0.1211
 2857TIP3    H130062   2.697   1.857   3.323 -0.0261 -0.9647  0.7748
 2857TIP3    H230063   2.645   1.744   3.236 -0.8762 -0.4665  0.6212
 2858TIP3   OH230064   5.472   0.571  13.197 -0.1357 -0.0092 -0.1176
 2858TIP3    H130065   5.455   0.598  13.288 -1.0098 -0.4850 -0.1243
 2858TIP3    H230066   5.397   0.515  13.175 -0.3699  0.7702 -1.4068
 2859TIP3   OH230067   2.287   1.792  14.965  0.5769  0.1728  0.1231
 2859TIP3    H130068   2.277   1.833  15.051  0.1935 -1.5291  0.9265
 2859TIP3    H230069   2.290   1.866  14.904 -0.3489  1.3834  1.4684
 2860TIP3   OH230070   0.614   1.697  16.167 -0.1437  0.2196 -0.1055
 2860TIP3    H130071   0.544   1.706  16.232  0.6915  1.4307  0.6819
 2860TIP3    H230072   0.690   1.670  16.218 -0.1454 -1.7245 -1.0429
 2861TIP3   OH230073   0.728   6.669  14.398  0.1704  0.0219 -0.2765
 2861TIP3    H130074   0.655   6.703  14.451  0.3121  0.7840 -0.5629
 2861TIP3    H230075   0.686   6.617  14.330 -0.0564 -0.2573  0.0690
 2862TIP3   OH230076   0.903   1.799  14.021 -0.5128  0.4844  0.4951
 2862TIP3    H130077   0.814   1.819  13.992  0.6372  1.3138 -2.9455
 2862TIP3    H230078   0.935   1.881  14.057 -1.1291  0.1603  1.8262
 2863TIP3   OH230079   6.533   2.503   3.737 -0.4346  0.1433 -0.5420
 2863TIP3    H130080   6.552   2.583   3.687 -1.0698 -0.4265 -1.7213
 2863TIP3    H230081   6.582   2.514   3.818  1.1011  0.8330 -1.5166
 2864TIP3   OH230082   6.258   1.366   4.224 -0.4817 -0.2219  0.4279
 2864TIP3    H130083   6.262   1.448   4.275 -1.5074  0.3582 -0.3801
 2864TIP3    H230084   6.348   1.348   4.200 -0.1236  0.1324  1.4556
 2865TIP3   OH230085   5.112   1.697   5.364  0.2956 -0.1095  0.0671
 2865TIP3    H130086   5.134   1.790   5.358  1.9105 -0.5462 -3.2677
 2865TIP3    H230087   5.039   1.685   5.303 -0.5805 -0.8938  1.2273
 2866TIP3   OH230088   4.903   2.824   1.618 -0.3685 -0.5401  0.2847
 2866TIP3    H130089   4.903   2.841   1.712  0.3230 -0.3401  0.2571
 2866TIP3    H230090   4.819   2.782   1.601 -1.1843  0.8400  0.7348
 2867TIP3   OH230091   2.826   3.982  15.605  0.0591 -0.4772 -0.1307
 2867TIP3    H130092   2.853   4.060  15.653 -1.7212  0.0482  0.0806
 2867TIP3    H230093   2.906   3.952  15.561  1.0008  0.8564  0.5948
 2868TIP3   OH230094   3.158   2.266   1.304  0.4744  0.3063  0.5164
 2868TIP3    H130095   3.154   2.177   1.269  0.2153  0.0365  1.2181
 2868TIP3    H230096   3.228   2.308   1.254  0.2536 -0.1300 -0.1730
 2869TIP3   OH230097   4.323   2.800  10.973 -0.3665 -0.5176 -0.4142
 2869TIP3    H130098   4.361   2.714  10.990 -0.0072 -0.0136  1.6418
 2869TIP3    H230099   4.231   2.791  10.998 -0.6640 -0.6584 -1.5248
 2870TIP3   OH230100   5.093   5.115  14.006  0.2798  0.0236 -0.0514
 2870TIP3    H130101   5.064   5.041  14.060 -0.7746  0.0711 -0.5262
 2870TIP3    H230102   5.163   5.080  13.952  0.2165 -0.4615  0.1788
 2871TIP3   OH230103   3.282   4.558   4.954  0.3649 -0.6546 -0.1197
 2871TIP3    H130104   3.286   4.572   4.859  3.6538  0.1758  0.0159
 2871TIP3    H230105   3.196   4.592   4.979 -0.3142 -0.2319 -2.6987
 2872TIP3   OH230106   1.168   3.276   3.935 -0.0297  0.0138  0.3952
 2872TIP3    H130107   1.219   3.297   3.857  0.4224  0.4128  0.7828
 2872TIP3    H230108   1.090   3.231   3.903 -0.6813  1.6586 -0.4388
 2873TIP3   OH230109   4.070   0.556   3.111 -0.2681 -0.6427 -0.2027
 2873TIP3    H130110   4.071   0.468   3.148 -1.5662 -0.4081  0.4356
 2873TIP3    H230111   3.985   0.591   3.134  0.3811  0.9491 -0.0851
 2874TIP3   OH230112   6.404   5.588   4.057  0.5803 -0.3699  0.1041
 2874TIP3    H130113   6.355   5.654   4.105  0.3186 -1.7799  1.8603
 2874TIP3    H230114   6.338   5.528   4.023  0.8701 -0.2414 -0.7180
 2875TIP3   OH230115   6.667   1.736   0.449 -0.1487  0.1911 -0.0821
 2875TIP3    H130116   6.632   1.737   0.360  0.1521 -1.6669 -0.2598
 2875TIP3    H230117   6.646   1.649   0.483  0.5331  0.5406  1.3486
 2876TIP3   OH230118   5.405   4.358  15.732  0.4502 -0.2461  0.2135
 2876TIP3    H130119   5.311   4.363  15.748  0.3973 -2.6245  1.1107
 2876TIP3    H230120   5.417   4.397  15.645 -1.5936 -1.1897 -0.5609
 2877TIP3   OH230121   6.316   3.280   1.945  0.3797 -0.4003 -0.8191
 2877TIP3    H130122   6.230   3.243   1.924 -0.2441  0.6390 -0.2240
 2877TIP3    H230123   6.346   3.232   2.021  1.1176 -1.9089 -2.0133
 2878TIP3   OH230124   3.848   4.922   2.769 -0.3743 -0.3385  0.0335
 2878TIP3    H130125   3.780   4.868   2.809 -0.4031  0.9604  1.8733
 2878TIP3    H230126   3.805   4.961   2.692 -1.8635  0.6998  1.3364
 2879TIP3   OH230127   1.139   3.115   1.341 -0.2196  0.1762  0.4622
 2879TIP3    H130128   1.214   3.101   1.398 -0.0897  0.6195  0.4020
 2879TIP3    H230129   1.067   3.067   1.383 -0.2008  0.7594  1.1654
 2880TIP3   OH230130   5.552   6.501  13.682  0.0517  0.2565  0.4906
 2880TIP3    H130131   5.457   6.498  13.672  0.1106 -0.5020  0.1088
 2880TIP3    H230132   5.566   6.563  13.754 -0.8590 -1.2458  2.0569
 2881TIP3   OH230133   6.074   1.462  14.122 -0.0302 -0.0950  0.6142
 2881TIP3    H130134   6.149   1.521  14.120 -0.3347  0.5497  3.7273
 2881TIP3    H230135   5.998   1.519  14.115 -0.2883 -0.3948  0.9501
 2882TIP3   OH230136   3.778   5.698   2.824 -0.3305 -0.0708  0.4185
 2882TIP3    H130137   3.744   5.610   2.843 -1.5755  0.3931  0.4191
 2882TIP3    H230138   3.826   5.722   2.903 -0.3961 -0.5530  0.6144
 2883TIP3   OH230139   1.929   3.965  12.081  0.4352  0.5050  0.2526
 2883TIP3    H130140   1.964   3.915  12.008  1.4554  1.7301 -0.1371
 2883TIP3    H230141   1.835   3.944  12.082  0.3891  0.5076 -1.4345
 2884TIP3   OH230142   4.083   3.720  12.892 -0.1000 -0.2334 -1.3312
 2884TIP3    H130143   4.110   3.765  12.812  0.5002 -0.6879 -1.3947
 2884TIP3    H230144   4.065   3.630  12.863 -0.3053 -0.2853 -1.0359
 2885TIP3   OH230145   1.755   5.460  16.981  0.5143  0.2423  0.1332
 2885TIP3    H130146   1.791   5.543  17.014  0.2159  0.2141  0.5556
 2885TIP3    H230147   1.679   5.487  16.929  0.6562  0.2563 -0.0675
 2886TIP3   OH230148   1.129   0.246   2.303  0.1398  0.2702  0.6086
 2886TIP3    H130149   1.114   0.256   2.209 -2.1133  3.0833  1.0959
 2886TIP3    H230150   1.224   0.252   2.313  0.4050  0.2698 -1.4647
 2887TIP3   OH230151   6.626   3.424   2.778 -0.0447 -0.4404 -0.0870
 2887TIP3    H130152   6.705   3.372   2.792  0.4725  0.3019 -0.1490
 2887TIP3    H230153   6.554   3.364   2.796  0.5384 -1.0313  0.3336
 2888TIP3   OH230154   3.209   5.441   5.798  0.1109 -0.2796  0.2389
 2888TIP3    H130155   3.287   5.398   5.763 -0.9307 -1.3135 -0.8548
 2888TIP3    H230156   3.198   5.519   5.744 -0.1207 -0.6065 -0.1880
 2889TIP3   OH230157   2.124   3.182  11.135 -0.2740 -0.1449 -0.5677
 2889TIP3    H130158   2.041   3.155  11.095 -0.8479  1.9272 -0.8786
 2889TIP3    H230159   2.145   3.265  11.093  1.7768 -0.4297 -0.1901
 2890TIP3   OH230160   2.015   3.016   3.528  0.0371 -0.0853 -0.3580
 2890TIP3    H130161   2.103   3.049   3.511  0.6138 -1.4204 -0.0684
 2890TIP3    H230162   1.962   3.051   3.457  0.6564  1.2528 -0.1847
 2891TIP3   OH230163   1.723   3.584   1.059 -0.0528  0.7796  0.5308
 2891TIP3    H130164   1.690   3.503   1.021  3.1041 -0.1721 -0.4789
 2891TIP3    H230165   1.797   3.608   1.003 -0.1281  3.7446  1.5230
 2892TIP3   OH230166   6.356   1.236   5.316  0.7581  0.1867  0.2922
 2892TIP3    H130167   6.281   1.203   5.267  0.0778  0.9094  0.8134
 2892TIP3    H230168   6.419   1.261   5.249 -0.3345  1.5602 -0.2683
 2893TIP3   OH230169   3.904   4.151  14.362 -0.1934  0.4821 -0.1598
 2893TIP3    H130170   3.930   4.159  14.271 -0.9339 -1.2152 -0.5551
 2893TIP3    H230171   3.926   4.236  14.401 -2.0045  2.1402 -2.4468
 2894TIP3   OH230172   0.833   0.735   6.446  0.4959  0.3858  0.5166
 2894TIP3    H130173   0.829   0.810   6.506  1.3566 -0.3719  1.5403
 2894TIP3    H230174   0.770   0.673   6.482 -0.4479  0.7080 -0.5076
 2895TIP3   OH230175   5.584   5.941  13.308  0.2188 -0.0341 -0.2645
 2895TIP3    H130176   5.508   5.960  13.253 -0.3114 -1.1527  0.0524
 2895TIP3    H230177   5.577   5.847  13.327 -0.0268  0.4431  2.3442
 2896TIP3   OH230178   1.659   2.087  13.822 -0.2318 -0.4249 -1.2241
 2896TIP3    H130179   1.638   2.001  13.785  1.9321 -0.1789 -3.2883
 2896TIP3    H230180   1.708   2.067  13.902 -0.7773 -1.0775 -1.0417
 2897TIP3   OH230181   6.668   4.670  13.439  0.4547  0.3617  0.0540
 2897TIP3    H130182   6.597   4.732  13.457 -1.3012 -0.9304 -1.8351
 2897TIP3    H230183   6.715   4.708  13.365  0.4420  0.2598 -0.0072
 2898TIP3   OH230184   2.044   4.565  13.846 -0.1261 -0.1694 -0.1422
 2898TIP3    H130185   2.130   4.560  13.804 -1.1271  1.0969 -2.5425
 2898TIP3    H230186   2.013   4.474  13.848  1.5864 -0.7906  1.6512
 2899TIP3   OH230187   1.073   3.967  13.921  0.0577 -0.2610 -0.2996
 2899TIP3    H130188   1.101   3.893  13.867  1.6681 -0.3442  0.5836
 2899TIP3    H230189   1.133   4.038  13.897 -1.6086  0.8871 -1.3043
 2900TIP3   OH230190   2.344   2.458  12.302  0.0834  0.3041  0.3336
 2900TIP3    H130191   2.272   2.499  12.351 -0.3112 -1.6126  1.4568
 2900TIP3    H230192   2.416   2.521  12.310 -0.5844  0.9547  1.7063
 2901TIP3   OH230193   0.682   1.368  12.726  0.4061  0.3967 -0.4932
 2901TIP3    H130194   0.632   1.291  12.753  0.5482  0.4759  0.0153
 2901TIP3    H230195   0.658   1.382  12.635  0.4412 -0.2978 -0.6147
 2902TIP3   OH230196   1.052   4.901   5.284  0.2828 -0.3458 -0.0619
 2902TIP3    H130197   1.039   4.938   5.371  0.7625  0.6030 -0.3792
 2902TIP3    H230198   1.147   4.904   5.271  0.1070  0.8701 -1.1842
 2903TIP3   OH230199   2.706   2.177  15.794  0.1132 -0.0619 -0.0982
 2903TIP3    H130200   2.710   2.267  15.763 -0.5948  0.1445  0.4036
 2903TIP3    H230201   2.653   2.131  15.728  0.4862 -0.1227 -0.3609
 2904TIP3   OH230202   0.060   2.740   1.817  0.1900  0.0793  0.0003
 2904TIP3    H130203   0.043   2.647   1.799 -1.9750  0.2405  0.8998
 2904TIP3    H230204   0.091   2.741   1.908 -0.2116  0.2637  0.1369
 2905TIP3   OH230205   2.873   1.732   3.353 -0.4810  0.1265 -0.0166
 2905TIP3    H130206   2.848   1.672   3.283 -0.4796 -0.1118  0.1836
 2905TIP3    H230207   2.931   1.681   3.410 -0.6510  0.2463  0.2717
 2906TIP3   OH230208   2.078   5.839   1.346  0.2666 -0.1388 -0.0562
 2906TIP3    H130209   2.108   5.851   1.256  2.2641 -1.2676  0.4060
 2906TIP3    H230210   2.080   5.744   1.360  0.1539  0.0263  1.2218
 2907TIP3   OH230211   5.965   4.625   2.866  0.0840  0.0646 -0.9023
 2907TIP3    H130212   5.882   4.621   2.817 -1.0290  0.2848  0.8683
 2907TIP3    H230213   5.953   4.563   2.938  1.1990  0.6116 -0.2200
 2908TIP3   OH230214   5.488   5.355   1.825 -0.4607  0.8089  0.0024
 2908TIP3    H130215   5.472   5.376   1.917  0.2601 -0.7906  0.5176
 2908TIP3    H230216   5.448   5.270   1.812  1.4416 -0.0600 -0.5252
 2909TIP3   OH230217   3.796   5.973   3.776  0.7919  0.3417 -0.3222
 2909TIP3    H130218   3.874   5.968   3.832  2.4327  3.5644 -2.0045
 2909TIP3    H230219   3.739   6.037   3.821  0.3293 -0.0013 -0.4159
 2910TIP3   OH230220   5.140   0.638   1.101  0.2159  0.4565 -0.0997
 2910TIP3    H130221   5.182   0.705   1.047  0.8450  1.2275  1.2907
 2910TIP3    H230222   5.163   0.662   1.190  2.2102 -2.7684  0.3814
 2911TIP3   OH230223   1.330   0.132   1.232  0.3394 -0.1979  0.0518
 2911TIP3    H130224   1.352   0.040   1.243  0.9542 -0.0379  0.1896
 2911TIP3    H230225   1.325   0.145   1.138 -1.5124 -0.7710  0.0176
 2912TIP3   OH230226   0.298   4.152  17.037 -0.0107  0.1533  0.0371
 2912TIP3    H130227   0.312   4.100  16.957  1.9442  0.6208  0.0351
 2912TIP3    H230228   0.334   4.098  17.107  0.1046  0.6100  0.3292
 2913TIP3   OH230229   0.571   1.133   5.940 -0.4538  0.2889 -0.5036
 2913TIP3    H130230   0.493   1.081   5.919 -0.1712  0.1835 -1.3145
 2913TIP3    H230231   0.624   1.075   5.994 -1.0372  0.4430  0.2584
 2914TIP3   OH230232   6.722   0.922  15.121  0.5173 -0.1716  0.1862
 2914TIP3    H130233   6.639   0.966  15.103 -0.9803 -2.2751  1.4514
 2914TIP3    H230234   6.762   0.975  15.191 -0.6772 -0.1323  0.8717
 2915TIP3   OH230235   0.498   3.789   0.228 -0.5467 -0.2718 -0.0278
 2915TIP3    H130236   0.524   3.783   0.320 -0.7395 -0.5652  0.0098
 2915TIP3    H230237   0.581   3.785   0.179 -0.4858 -0.7349  0.1082
 2916TIP3   OH230238   0.872   0.768  14.903  0.0251 -0.3321 -0.5813
 2916TIP3    H130239   0.917   0.690  14.937 -1.2795 -1.0406 -0.3874
 2916TIP3    H230240   0.931   0.840  14.922  0.3289 -0.9944  1.2434
 2917TIP3   OH230241   2.213   4.244   4.761 -0.5312  0.5614 -0.5468
 2917TIP3    H130242   2.304   4.214   4.767 -0.6080 -0.0068 -1.9728
 2917TIP3    H230243   2.220   4.340   4.761  0.2162  0.5447 -2.2090
 2918TIP3   OH230244   1.694   3.381  14.105 -0.1350  0.5823 -0.0379
 2918TIP3    H130245   1.618   3.345  14.150  0.2579  2.4550  2.2939
 2918TIP3    H230246   1.677   3.364  14.012 -1.9027 -1.7332  0.6054
 2919TIP3   OH230247   2.614   6.498   6.256  0.6494  0.3725  0.5347
 2919TIP3    H130248   2.590   6.584   6.291 -0.1308  0.7883 -0.9386
 2919TIP3    H230249   2.671   6.460   6.323 -1.5949  0.6597  2.7552
 2920TIP3   OH230250   3.754   3.285  13.052 -0.5213  0.3277 -0.2553
 2920TIP3    H130251   3.749   3.231  13.132 -0.8921 -1.6146 -1.5180
 2920TIP3    H230252   3.788   3.225  12.985  0.4748  2.1099 -1.4113
 2921TIP3   OH230253   3.348   6.505   6.587  0.1489 -0.0660 -0.0657
 2921TIP3    H130254   3.396   6.525   6.507 -0.6511  0.7554 -0.3492
 2921TIP3    H230255   3.414   6.466   6.645  1.2863  1.4513 -0.2727
 2922TIP3   OH230256   5.907   5.054   4.919  0.0262 -0.1769  0.1677
 2922TIP3    H130257   5.992   5.015   4.902 -0.5753 -1.0585 -0.9186
 2922TIP3    H230258   5.883   5.022   5.006  0.5992 -0.2841  0.2883
 2923TIP3   OH230259   6.251   2.186   2.338 -0.0495 -0.1098  0.6858
 2923TIP3    H130260   6.322   2.249   2.347  0.5906 -0.9041  1.3383
 2923TIP3    H230261   6.285   2.118   2.280  0.1436 -1.0373  1.8366
 2924TIP3   OH230262   0.008   0.684   2.557  0.1608  0.7789 -0.7660
 2924TIP3    H130263   0.007   0.777   2.578  0.4860  0.3513  1.3322
 2924TIP3    H230264  -0.084   0.660   2.551  0.0756  1.1414 -0.9613
 2925TIP3   OH230265   0.628   4.567   4.160 -0.1334  0.5915 -0.2117
 2925TIP3    H130266   0.651   4.478   4.184  0.7900  1.3562  2.0424
 2925TIP3    H230267   0.545   4.559   4.113 -1.0342 -1.3115  1.5409
 2926TIP3   OH230268   0.981   0.583   2.093  0.2027 -0.5424 -0.5041
 2926TIP3    H130269   0.972   0.665   2.045 -1.8650 -0.9607 -0.9183
 2926TIP3    H230270   1.071   0.554   2.076  1.0295  1.6758 -0.2190
 2927TIP3   OH230271   3.149   2.073   5.001 -0.3097  0.4541 -0.1660
 2927TIP3    H130272   3.128   2.142   5.063 -1.5938 -0.3090  0.2822
 2927TIP3    H230273   3.191   2.005   5.054 -0.1220  0.3954 -0.3879
 2928TIP3   OH230274   3.339   0.901  16.315  0.3509  0.3170 -0.3548
 2928TIP3    H130275   3.287   0.875  16.392  0.3677 -1.8327 -0.9985
 2928TIP3    H230276   3.333   0.826  16.256 -0.4047  2.2390 -2.9017
 2929TIP3   OH230277   3.372   2.142  12.745 -0.1997  0.2009  0.1722
 2929TIP3    H130278   3.392   2.182  12.661 -0.0516  2.0698  1.0276
 2929TIP3    H230279   3.457   2.116  12.781 -0.0018  1.4094  0.6437
 2930TIP3   OH230280   4.758   6.319  14.603  0.0304  0.2206  0.3039
 2930TIP3    H130281   4.744   6.275  14.686  0.7787 -1.3822 -0.3870
 2930TIP3    H230282   4.853   6.318  14.590 -0.1663 -1.2759 -1.4323
 2931TIP3   OH230283   0.233   0.364   3.742 -0.1392 -0.2642 -0.4605
 2931TIP3    H130284   0.316   0.402   3.772  1.4854 -2.4123 -1.9375
 2931TIP3    H230285   0.211   0.300   3.809 -0.7161  0.4045  0.0026
 2932TIP3   OH230286   3.457   5.793   5.832  0.0605 -0.0178 -0.1417
 2932TIP3    H130287   3.519   5.801   5.905 -1.0665 -1.3117  0.9914
 2932TIP3    H230288   3.452   5.882   5.796  1.2219  0.4826  0.8576
 2933TIP3   OH230289   3.654   5.734   3.840 -0.0814  0.3404 -0.1878
 2933TIP3    H130290   3.702   5.806   3.798 -0.7486  0.5249 -0.6480
 2933TIP3    H230291   3.613   5.774   3.917 -2.5545  1.1276 -1.7922
 2934TIP3   OH230292   0.997   3.301   5.701 -0.0637 -0.1601 -0.4703
 2934TIP3    H130293   1.013   3.314   5.795 -3.3417  0.8027  0.0865
 2934TIP3    H230294   1.084   3.287   5.664  1.3452 -0.8939  2.7268
 2935TIP3   OH230295   4.586   2.345  13.125  0.1149 -0.4922  0.1140
 2935TIP3    H130296   4.631   2.273  13.081  0.4740  0.2458 -0.7500
 2935TIP3    H230297   4.494   2.320  13.123  0.3322 -1.3921  0.7208
 2936TIP3   OH230298   0.501   6.773  12.164 -0.8768 -0.2073 -0.4229
 2936TIP3    H130299   0.478   6.737  12.249 -0.6328  0.2873 -0.1501
 2936TIP3    H230300   0.596   6.758  12.157 -0.8468  0.0146 -0.4853
 2937TIP3   OH230301   4.249   4.288  12.256  0.0398  0.0614 -0.1372
 2937TIP3    H130302   4.175   4.276  12.196  0.3594 -0.6157 -0.4110
 2937TIP3    H230303   4.238   4.377  12.290 -0.6227  0.1481 -0.5501
 2938TIP3   OH230304   5.869   0.243   0.377 -0.6784 -0.5438 -0.4033
 2938TIP3    H130305   5.936   0.270   0.440 -1.0488 -0.4502 -0.0432
 2938TIP3    H230306   5.904   0.163   0.338  0.0462 -0.0131 -0.8652
 2939TIP3   OH230307   0.815   4.025  14.044 -0.1233 -0.3196 -0.4748
 2939TIP3    H130308   0.774   4.049  13.960 -0.5556 -0.6920 -0.3700
 2939TIP3    H230309   0.909   4.031  14.026 -0.2134  0.7686 -0.6537
 2940TIP3   OH230310   3.244   1.252   3.748 -0.2637 -0.2838  0.0196
 2940TIP3    H130311   3.286   1.319   3.802 -0.6944 -0.3618  0.4618
 2940TIP3    H230312   3.284   1.169   3.776 -2.2726 -0.6605  2.1057
 2941TIP3   OH230313   3.292   2.974  11.927  0.4185 -0.2766  0.1071
 2941TIP3    H130314   3.201   2.954  11.949  0.2780 -1.1370 -1.1408
 2941TIP3    H230315   3.286   3.045  11.863  0.6962  0.4533  0.8707
 2942TIP3   OH230316   2.881   1.995  17.083 -0.1731 -0.7049 -0.4383
 2942TIP3    H130317   2.918   2.082  17.103 -0.3935 -0.9639  1.3053
 2942TIP3    H230318   2.840   1.968  17.165  0.8033 -2.9106 -0.6034
 2943TIP3   OH230319   4.997   4.927   6.498 -0.0417 -0.3149 -0.2384
 2943TIP3    H130320   5.071   4.867   6.493  1.5858  1.5749 -0.2445
 2943TIP3    H230321   4.964   4.917   6.587  1.7479  0.4251  0.5719
 2944TIP3   OH230322   4.844   6.417   5.149  0.1675 -0.1514 -0.1797
 2944TIP3    H130323   4.936   6.442   5.156  0.0857  1.1057 -2.6555
 2944TIP3    H230324   4.796   6.498   5.166 -0.4765 -0.6148  0.2720
 2945TIP3   OH230325   0.838   3.713   4.518 -0.1732 -0.3999  0.0880
 2945TIP3    H130326   0.896   3.720   4.594  0.5339 -0.2334 -0.4571
 2945TIP3    H230327   0.767   3.775   4.535  0.4446  0.2852  0.2084
 2946TIP3   OH230328   2.254   4.104  11.605  0.0289 -0.5456 -0.4905
 2946TIP3    H130329   2.218   4.178  11.557  3.0331  0.5554 -1.2942
 2946TIP3    H230330   2.239   4.126  11.697  1.5893  1.5881 -0.6631
 2947TIP3   OH230331   0.397   3.720   0.690 -0.2969  0.0144 -0.2793
 2947TIP3    H130332   0.323   3.750   0.637 -0.5901  0.5612  0.4143
 2947TIP3    H230333   0.376   3.750   0.779  1.3573  1.3163 -0.2834
 2948TIP3   OH230334   1.379   3.469   4.029  0.4023 -0.7877  0.1500
 2948TIP3    H130335   1.346   3.526   4.097 -1.8924 -1.9489  0.0902
 2948TIP3    H230336   1.328   3.389   4.037  0.8564 -1.4043 -2.1979
 2949TIP3   OH230337   3.385   0.066  14.930 -0.1817 -0.3884  0.3806
 2949TIP3    H130338   3.463   0.023  14.895 -0.2062 -0.4331  0.3813
 2949TIP3    H230339   3.326  -0.006  14.953  0.0002 -0.3754  0.9053
 2950TIP3   OH230340   4.303   5.377   1.879  0.3935  0.2196 -0.0055
 2950TIP3    H130341   4.360   5.382   1.956 -1.4028 -0.1225  1.4012
 2950TIP3    H230342   4.222   5.339   1.912 -0.4922  0.2403 -2.0571
 2951TIP3   OH230343   2.057   0.139   0.298  0.3392  0.4952  0.2142
 2951TIP3    H130344   2.122   0.184   0.351 -0.4383  1.2564  0.5543
 2951TIP3    H230345   2.035   0.200   0.228 -1.3566  1.0602  1.1687
 2952TIP3   OH230346   4.970   4.791  16.415 -1.0452 -0.0575  0.0171
 2952TIP3    H130347   5.051   4.741  16.409 -0.0068  1.5531  0.3619
 2952TIP3    H230348   4.917   4.759  16.341  0.0746 -0.7805 -0.4941
 2953TIP3   OH230349   0.920   3.742   6.007 -0.4516 -0.2285 -0.5024
 2953TIP3    H130350   0.866   3.693   5.944 -0.4049 -0.7109 -0.1705
 2953TIP3    H230351   0.904   3.833   5.986 -2.4475 -0.3152  0.4429
 2954TIP3   OH230352   3.803   6.325  13.623 -0.2423  0.4732  0.3155
 2954TIP3    H130353   3.760   6.272  13.556  1.2645 -0.2771 -0.1217
 2954TIP3    H230354   3.892   6.338  13.589 -0.4232  2.9502  0.6085
 2955TIP3   OH230355   0.497   0.913   6.245 -0.1125 -0.3109  0.2041
 2955TIP3    H130356   0.582   0.957   6.233  0.3879 -0.9174  1.4197
 2955TIP3    H230357   0.505   0.833   6.194  0.3548 -0.7469  0.9428
 2956TIP3   OH230358   6.806   5.355  14.091  0.0658  0.3061  0.6641
 2956TIP3    H130359   6.763   5.381  14.172  2.4906  1.9670  1.5114
 2956TIP3    H230360   6.875   5.294  14.118 -1.1685 -1.7942 -0.5930
 2957TIP3   OH230361   6.707   4.367  14.967 -0.1437 -0.1865  0.4413
 2957TIP3    H130362   6.713   4.357  14.872 -1.3403  1.3795  0.1756
 2957TIP3    H230363   6.630   4.316  14.992  0.1045 -0.5040  0.5773
 2958TIP3   OH230364   3.580   3.428  12.726  0.0742 -0.4472  0.3045
 2958TIP3    H130365   3.595   3.522  12.716  0.3445 -0.3707  1.3143
 2958TIP3    H230366   3.666   3.388  12.711  0.1689 -0.4473  0.8252
 2959TIP3   OH230367   0.923   1.019   3.228  0.0462 -0.1620 -0.0163
 2959TIP3    H130368   0.940   1.054   3.315 -3.4705 -0.6590  1.0360
 2959TIP3    H230369   0.887   1.093   3.179 -2.1463 -0.8640  0.4390
 2960TIP3   OH230370   3.140   5.234   4.021  0.0867  0.6124 -0.5170
 2960TIP3    H130371   3.145   5.140   4.039 -0.8023  0.2955 -1.7596
 2960TIP3    H230372   3.218   5.252   3.969  0.8444  0.8139  0.6577
 2961TIP3   OH230373   2.178   6.654   3.568 -0.2467 -0.1499  0.6256
 2961TIP3    H130374   2.092   6.660   3.526 -0.0601  0.4270  0.3256
 2961TIP3    H230375   2.217   6.741   3.558 -0.5923  0.3232  2.8702
 2962TIP3   OH230376   6.682   4.576  16.398  0.1842  0.0773  0.0823
 2962TIP3    H130377   6.629   4.583  16.319  1.7490  0.8834 -0.9481
 2962TIP3    H230378   6.733   4.496  16.387 -1.6853 -1.4159  1.6695
 2963TIP3   OH230379   4.270   4.273   0.077 -0.0315 -0.4027 -0.3770
 2963TIP3    H130380   4.278   4.211   0.005  0.7484 -2.2988  1.2550
 2963TIP3    H230381   4.239   4.221   0.151 -0.0621  1.3138  0.9012
 2964TIP3   OH230382   2.626   0.897  15.644 -0.3386  0.1984 -0.3481
 2964TIP3    H130383   2.550   0.895  15.703  0.1835  1.0660  0.3834
 2964TIP3    H230384   2.660   0.986  15.652  1.1122 -0.3457 -0.2095
 2965TIP3   OH230385   5.247   1.987  16.420  0.0570 -0.0182 -0.2474
 2965TIP3    H130386   5.280   1.969  16.332 -2.1173 -2.0242 -0.7362
 2965TIP3    H230387   5.318   1.961  16.478  0.2968 -1.9301 -1.3232
 2966TIP3   OH230388   3.823   4.250   1.551  0.0533  0.0859  0.1005
 2966TIP3    H130389   3.809   4.316   1.483 -2.5279  0.0990  0.5487
 2966TIP3    H230390   3.910   4.270   1.586  1.1116  0.5770 -2.5887
 2967TIP3   OH230391   5.983   2.734  12.953  1.1278  0.9412  0.3463
 2967TIP3    H130392   6.047   2.677  12.910 -0.6758  0.6370 -2.1676
 2967TIP3    H230393   5.898   2.693  12.935  0.0925  1.6079  3.0903
 2968TIP3   OH230394   1.571   3.455  10.618  0.3751 -0.3502  0.3692
 2968TIP3    H130395   1.527   3.390  10.673 -1.4338 -0.1069 -0.7238
 2968TIP3    H230396   1.664   3.438  10.631  0.0686 -0.3207  3.4645
 2969TIP3   OH230397   5.864   6.599  13.286 -0.4349 -0.2644  0.1240
 2969TIP3    H130398   5.839   6.626  13.198  1.0369  0.2455 -0.1561
 2969TIP3    H230399   5.890   6.679  13.331  2.6591 -0.9090 -0.2824
 2970TIP3   OH230400   0.788   4.283   4.478 -0.2848  0.1488 -0.6799
 2970TIP3    H130401   0.845   4.352   4.445  0.5484  0.7397  1.7918
 2970TIP3    H230402   0.761   4.313   4.564 -0.7699 -2.1144  0.0303
 2971TIP3   OH230403   3.864   1.303  11.607 -0.0912  0.2867  0.0374
 2971TIP3    H130404   3.899   1.219  11.636  3.6749  1.3294 -0.9276
 2971TIP3    H230405   3.859   1.356  11.686  0.0437 -0.0486  0.2693
 2972TIP3   OH230406   6.783   0.560   5.475  0.0223 -0.2883  0.4209
 2972TIP3    H130407   6.746   0.474   5.493 -0.5646 -0.0328  0.4494
 2972TIP3    H230408   6.708   0.614   5.449  0.2794  0.3896  1.0519
 2973TIP3   OH230409   5.863   1.076   3.500 -0.0286 -0.0286 -0.2695
 2973TIP3    H130410   5.825   1.029   3.575 -1.4083 -0.0379 -0.9532
 2973TIP3    H230411   5.865   1.168   3.528  0.8031 -0.1947  0.2954
 2974TIP3   OH230412   3.358   1.963   1.661 -0.4212  0.5910  0.1922
 2974TIP3    H130413   3.447   1.940   1.689 -0.6412  1.0519  1.3275
 2974TIP3    H230414   3.332   1.891   1.603  0.0042 -0.5010  1.3155
 2975TIP3   OH230415   6.044   1.914   2.485  0.2393  0.5796  0.3070
 2975TIP3    H130416   6.113   1.865   2.530  0.1911 -1.4429 -1.6641
 2975TIP3    H230417   5.985   1.941   2.555  1.4950 -0.1715  1.7276
 2976TIP3   OH230418   5.731   4.896  13.774 -0.1676 -0.0374 -0.5889
 2976TIP3    H130419   5.803   4.948  13.739 -0.4577 -0.7108 -2.2763
 2976TIP3    H230420   5.771   4.812  13.797 -0.3152 -0.2405 -1.0637
 2977TIP3   OH230421   6.622   3.078   4.193 -0.2495  0.0580 -0.2268
 2977TIP3    H130422   6.532   3.050   4.177 -0.5907  1.0377 -0.1007
 2977TIP3    H230423   6.667   3.064   4.109 -1.1844  1.9939 -1.1351
 2978TIP3   OH230424   2.740   0.209   5.334 -0.6775 -0.3923  0.0544
 2978TIP3    H130425   2.654   0.167   5.338  0.3551 -2.6068  0.5586
 2978TIP3    H230426   2.755   0.242   5.423 -1.2204  0.4881 -0.1745
 2979TIP3   OH230427   1.027   3.943  15.966 -0.1022 -0.0708  0.1021
 2979TIP3    H130428   0.977   3.933  15.885  0.8338 -1.1889 -0.3720
 2979TIP3    H230429   1.083   3.865  15.969  1.1273  0.8063  0.9330
 2980TIP3   OH230430   6.456   0.094  15.303  0.2553 -0.8425  0.4902
 2980TIP3    H130431   6.460   0.168  15.242 -1.9232 -0.5566  0.6226
 2980TIP3    H230432   6.430   0.134  15.387 -1.2354 -1.7551  0.4924
 2981TIP3   OH230433   3.749   3.899  12.495 -0.0337 -0.4399  0.2351
 2981TIP3    H130434   3.779   3.947  12.573 -1.0506  1.7808 -0.6607
 2981TIP3    H230435   3.663   3.936  12.475  1.2394  1.0075 -3.4215
 2982TIP3   OH230436   5.429   5.420  11.408  0.3906  0.0666  0.2789
 2982TIP3    H130437   5.423   5.512  11.433  0.0218  0.7456 -2.0532
 2982TIP3    H230438   5.504   5.386  11.457  0.6832  1.6594  0.9943
 2983TIP3   OH230439   2.086   2.606   4.741  0.1712  0.4999 -0.3505
 2983TIP3    H130440   2.085   2.541   4.671  0.2590  2.2043 -2.0101
 2983TIP3    H230441   2.060   2.558   4.819  2.0746 -1.9627 -1.0912
 2984TIP3   OH230442   3.663   4.207   0.396 -0.2861  0.1753  0.4264
 2984TIP3    H130443   3.706   4.218   0.481  0.7910 -0.4018 -0.0212
 2984TIP3    H230444   3.570   4.224   0.413 -0.1978 -0.6556  1.8600
 2985TIP3   OH230445   3.873   4.791   1.411 -0.0135  0.1247 -0.3436
 2985TIP3    H130446   3.789   4.816   1.373  0.8227  0.1704 -2.2915
 2985TIP3    H230447   3.898   4.865   1.466 -1.8851 -0.5076  1.4865
 2986TIP3   OH230448   4.247   4.198  16.627 -0.2664 -0.0308  0.5236
 2986TIP3    H130449   4.180   4.152  16.576 -0.1986 -0.3094  0.6842
 2986TIP3    H230450   4.201   4.276  16.660 -0.0275  0.7067 -0.8094
 2987TIP3   OH230451   5.845   1.009  13.335  0.4634 -0.0895 -0.2706
 2987TIP3    H130452   5.848   0.913  13.332  2.8015 -0.0389 -1.4825
 2987TIP3    H230453   5.930   1.034  13.371 -1.7199  1.5316  4.7216
 2988TIP3   OH230454   0.674   4.546   0.327  0.0246  0.3461 -0.0082
 2988TIP3    H130455   0.766   4.558   0.349 -0.2384  1.1642  0.7377
 2988TIP3    H230456   0.673   4.481   0.257  1.2504  1.2521 -0.8953
 2989TIP3   OH230457   5.523   0.701  11.001 -0.4835 -0.3327 -0.2794
 2989TIP3    H130458   5.561   0.784  11.028 -1.9697  0.7960 -1.4870
 2989TIP3    H230459   5.581   0.669  10.931  0.1308 -0.3682  0.2395
 2990TIP3   OH230460   6.348   6.244   5.337  0.3567  0.3954  0.2626
 2990TIP3    H130461   6.370   6.158   5.373 -0.4693 -0.7141 -1.7166
 2990TIP3    H230462   6.269   6.271   5.384  0.0537 -0.4142  0.2316
 2991TIP3   OH230463   5.078   4.423  14.653  0.5393 -0.0165 -0.0486
 2991TIP3    H130464   4.999   4.475  14.638  0.2197 -0.6642 -0.6743
 2991TIP3    H230465   5.074   4.354  14.586  1.6124 -0.0815 -0.0553
 2992TIP3   OH230466   5.938   1.192  11.795 -0.2008  0.3763 -0.3173
 2992TIP3    H130467   5.854   1.187  11.748 -0.4056  0.1430  0.0653
 2992TIP3    H230468   6.002   1.215  11.728 -0.4967  0.0824 -0.7047
 2993TIP3   OH230469   0.336   4.400  10.452  0.4961  0.1278  0.0090
 2993TIP3    H130470   0.340   4.314  10.411  1.8147  0.2620 -0.2149
 2993TIP3    H230471   0.397   4.394  10.525  2.2652  1.4594 -1.2588
 2994TIP3   OH230472   5.969   2.490  13.634  0.8992  0.9865  0.2237
 2994TIP3    H130473   5.899   2.441  13.590  1.0628  0.5678  0.4310
 2994TIP3    H230474   5.922   2.554  13.688  0.6957  1.7385 -0.8085
 2995TIP3   OH230475   5.300   0.724  12.148 -0.1566 -0.0276 -0.3217
 2995TIP3    H130476   5.367   0.751  12.211 -0.8658  2.2077 -0.4280
 2995TIP3    H230477   5.345   0.725  12.063 -0.4828  2.6790 -0.5733
 2996TIP3   OH230478   5.505   3.555   2.998 -0.5599  0.1666 -0.5268
 2996TIP3    H130479   5.440   3.486   3.006  1.4440 -2.0566 -1.8936
 2996TIP3    H230480   5.457   3.630   2.963 -3.1464  0.1512  2.5615
 2997TIP3   OH230481   2.863   3.853   1.989 -0.3137  0.2478  0.0406
 2997TIP3    H130482   2.958   3.841   1.991 -0.4802 -1.1341  0.7168
 2997TIP3    H230483   2.840   3.847   1.896  0.1811 -0.1631 -0.0563
 2998TIP3   OH230484   4.776   5.789   2.535 -0.5164 -0.2403  0.4299
 2998TIP3    H130485   4.722   5.743   2.598 -2.0735 -0.5847 -1.0884
 2998TIP3    H230486   4.716   5.850   2.492  0.9668  1.4994  0.6945
 2999TIP3   OH230487   5.245   3.340  11.793 -0.3037  0.0886  0.3407
 2999TIP3    H130488   5.323   3.297  11.828 -0.0859  1.9199  2.3363
 2999TIP3    H230489   5.171   3.291  11.828 -0.0502 -0.0211  0.7235
 3000TIP3   OH230490   2.316   6.645   4.995  0.3210 -0.4089  0.2132
 3000TIP3    H130491   2.341   6.738   4.998  1.4519 -0.5093 -2.8148
 3000TIP3    H230492   2.222   6.645   5.012  0.5337  1.1410  1.5585
 3001TIP3   OH230493   0.947   4.071   5.552  0.3193 -0.4078 -0.1213
 3001TIP3    H130494   0.887   4.026   5.493 -0.8773 -0.7523  1.2760
 3001TIP3    H230495   0.999   4.000   5.591 -0.8366 -0.5337  1.2867
 3002TIP3   OH230496   6.609   0.252   4.939  0.3184 -0.7360  0.5540
 3002TIP3    H130497   6.592   0.173   4.991  1.9577 -1.0147  0.7326
 3002TIP3    H230498   6.704   0.265   4.946  0.3431  0.1664 -1.0285
 3003TIP3   OH230499   1.966   6.309  11.732  0.1094 -0.4366 -0.1596
 3003TIP3    H130500   1.947   6.375  11.798  1.9503 -0.5500  0.5378
 3003TIP3    H230501   2.039   6.346  11.681 -0.8624 -0.6233 -1.7576
 3004TIP3   OH230502   6.678   2.791  15.137 -0.2816  0.1919  0.3675
 3004TIP3    H130503   6.659   2.838  15.218 -0.2088  3.2942 -1.2788
 3004TIP3    H230504   6.725   2.854  15.083 -0.0468 -1.8653 -2.0135
 3005TIP3   OH230505   2.968   5.934   2.516  0.0956  0.2575 -0.3950
 3005TIP3    H130506   3.045   5.891   2.478  0.5845  0.9279 -0.1824
 3005TIP3    H230507   2.895   5.908   2.460  0.6503  0.4640 -1.2265
 3006TIP3   OH230508   3.422   5.462   5.046 -0.4243 -0.3374  0.2010
 3006TIP3    H130509   3.493   5.399   5.057 -0.5523 -0.5137  0.0272
 3006TIP3    H230510   3.343   5.413   5.066 -0.3394  0.5458  3.0699
 3007TIP3   OH230511   0.571   1.485  16.618  0.0716 -0.3901 -0.2343
 3007TIP3    H130512   0.642   1.526  16.569 -0.9236  0.0659 -1.3527
 3007TIP3    H230513   0.513   1.448  16.551  0.1898 -2.4078  0.7078
 3008TIP3   OH230514   0.087   1.571  12.576  0.2769  0.5368 -0.2265
 3008TIP3    H130515   0.015   1.513  12.553  0.9662 -1.0769  1.4798
 3008TIP3    H230516   0.049   1.636  12.635 -0.1472  0.8107 -0.7977
 3009TIP3   OH230517   3.757   6.708  11.830 -0.0723  0.5624  0.3303
 3009TIP3    H130518   3.731   6.762  11.905 -2.9582 -0.0668 -0.1008
 3009TIP3    H230519   3.834   6.660  11.861  0.0348  1.7919  2.1587
 3010TIP3   OH230520   1.250   5.450  10.621  0.3957  0.1851 -0.6311
 3010TIP3    H130521   1.279   5.528  10.668 -1.5824  0.6499 -0.0801
 3010TIP3    H230522   1.266   5.470  10.529  2.3496  0.1248 -0.3388
 3011TIP3   OH230523   6.352   4.531  14.030 -0.3204 -0.1066  0.7834
 3011TIP3    H130524   6.391   4.545  14.117  0.7649  0.2840  0.2562
 3011TIP3    H230525   6.412   4.469  13.988  0.0284  0.8819 -0.2275
 3012TIP3   OH230526   5.961   5.154  11.307 -0.4023  0.0827  0.6284
 3012TIP3    H130527   5.995   5.163  11.218 -0.7308 -1.4678  0.3086
 3012TIP3    H230528   6.028   5.194  11.363  0.1827  0.3714 -0.2582
 3013TIP3   OH230529   2.007   6.832  15.667 -0.6895  0.2610 -0.2115
 3013TIP3    H130530   2.007   6.924  15.694  0.5376 -0.2147  1.5712
 3013TIP3    H230531   1.917   6.815  15.642 -1.0904  1.7723  0.0738
 3014TIP3   OH230532   5.484   5.658  14.813  0.7197  0.1298 -0.3742
 3014TIP3    H130533   5.546   5.714  14.766  2.8083 -1.8803 -0.1891
 3014TIP3    H230534   5.493   5.684  14.904  1.5642 -0.3678 -0.3071
 3015TIP3   OH230535   1.587   5.470   0.303 -0.1882 -0.1174  0.1771
 3015TIP3    H130536   1.554   5.533   0.240 -2.1342  0.0082  1.2327
 3015TIP3    H230537   1.509   5.425   0.335  1.0821 -2.7380 -0.1618
 3016TIP3   OH230538   2.618   5.029   5.658  0.0687  0.2399 -0.4494
 3016TIP3    H130539   2.663   5.072   5.731 -0.1308  0.7613 -0.6261
 3016TIP3    H230540   2.688   5.013   5.593  0.2904 -0.4496 -0.0512
 3017TIP3   OH230541   4.570   3.107   5.311 -0.0628 -0.4127 -0.0464
 3017TIP3    H130542   4.632   3.122   5.240  0.3645 -2.1708 -0.1060
 3017TIP3    H230543   4.528   3.192   5.326  0.5988  0.2332 -1.6751
 3018TIP3   OH230544   5.288   0.422   1.824 -0.4293  0.0553  0.5835
 3018TIP3    H130545   5.274   0.495   1.885 -3.2178  1.6567 -1.7074
 3018TIP3    H230546   5.228   0.354   1.853  1.3341 -0.9847  2.0231
 3019TIP3   OH230547   2.113   3.248  11.426  0.4127  0.0158  0.0581
 3019TIP3    H130548   2.117   3.225  11.333  1.4022  0.2257  0.0450
 3019TIP3    H230549   2.118   3.164  11.472  2.1529  0.0473 -0.0339
 3020TIP3   OH230550   4.347   1.124   0.972  0.0020 -0.1786  0.1444
 3020TIP3    H130551   4.367   1.155   0.883  0.0198 -1.8813 -0.4850
 3020TIP3    H230552   4.257   1.153   0.987 -0.1995 -0.3503 -0.6569
 3021TIP3   OH230553   4.746   6.207  13.762 -0.9170  0.1740  0.0988
 3021TIP3    H130554   4.758   6.148  13.688 -2.2800 -0.0707  0.0472
 3021TIP3    H230555   4.664   6.253  13.743 -0.2831  1.5332  0.5190
 3022TIP3   OH230556   1.676   4.356  13.352 -0.0024  0.1431  0.1330
 3022TIP3    H130557   1.694   4.353  13.446  3.7018  1.2655 -0.3948
 3022TIP3    H230558   1.608   4.290  13.339 -0.4837 -0.2284  3.5118
 3023TIP3   OH230559   5.529   5.391   4.936  0.1621  0.3391  0.5565
 3023TIP3    H130560   5.471   5.411   5.010  1.6106  2.1338  1.2844
 3023TIP3    H230561   5.613   5.370   4.976  0.8288  0.7908 -0.5608
 3024TIP3   OH230562   4.464   3.971   5.744  0.3640  0.5997  0.1192
 3024TIP3    H130563   4.522   3.913   5.695  1.2034  2.6125 -1.3969
 3024TIP3    H230564   4.410   4.013   5.677  0.5768  2.4066  1.0457
 3025TIP3   OH230565   0.831   5.230   2.971 -0.1532 -0.3205 -0.2569
 3025TIP3    H130566   0.906   5.258   2.918 -1.4334  0.7540 -1.5935
 3025TIP3    H230567   0.781   5.173   2.912 -0.7637 -0.4316  0.3618
 3026TIP3   OH230568   3.818   1.395   5.440  0.2352  0.0555 -0.3184
 3026TIP3    H130569   3.845   1.324   5.382  0.9009 -0.2908  0.3872
 3026TIP3    H230570   3.743   1.435   5.397 -0.0345 -0.9661 -0.8153
 3027TIP3   OH230571   2.300   3.395   0.975  0.0600 -0.3090  0.3784
 3027TIP3    H130572   2.269   3.330   1.038 -2.5386 -0.2420 -0.6887
 3027TIP3    H230573   2.394   3.381   0.971  0.1052 -1.4382  2.9756
 3028TIP3   OH230574   5.314   2.981   1.895 -0.2053  0.6281 -0.4692
 3028TIP3    H130575   5.374   2.973   1.969  0.5657  0.9795 -1.0504
 3028TIP3    H230576   5.253   2.907   1.906 -0.6879  1.2137  1.0221
 3029TIP3   OH230577   1.678   6.217   1.201 -0.7715  0.8136  0.3458
 3029TIP3    H130578   1.683   6.246   1.110  1.7233  0.4564  0.3036
 3029TIP3    H230579   1.630   6.134   1.197 -0.2243  0.5326 -0.7282
 3030TIP3   OH230580   1.015   1.181  12.983 -0.4217  0.2826 -0.6970
 3030TIP3    H130581   1.038   1.273  12.976  0.5586  0.3242  1.8520
 3030TIP3    H230582   1.074   1.147  13.051 -2.2238 -1.6990 -0.0028
 3031TIP3   OH230583   3.488   1.520  14.806  0.2385 -0.1505 -0.1085
 3031TIP3    H130584   3.434   1.450  14.768 -0.1956  0.9167 -1.5518
 3031TIP3    H230585   3.565   1.523  14.749  1.7707 -1.4588  1.7532
 3032TIP3   OH230586   1.007   2.242  16.490  0.5450 -0.2148 -0.7657
 3032TIP3    H130587   1.010   2.188  16.569  0.5402 -2.7326 -2.3672
 3032TIP3    H230588   1.096   2.275  16.480  0.6477 -0.2208  0.0728
 3033TIP3   OH230589   2.918   4.889   5.241  0.1191 -0.7779 -0.2970
 3033TIP3    H130590   3.010   4.889   5.265  0.0572 -0.3981 -0.0528
 3033TIP3    H230591   2.913   4.946   5.164 -0.3739  1.8612  1.5669
 3034TIP3   OH230592   4.228   3.965   5.566  0.2087 -0.1039 -0.0127
 3034TIP3    H130593   4.199   3.995   5.652  0.5531  2.0130 -0.5679
 3034TIP3    H230594   4.172   3.890   5.547 -0.0201 -0.4874  1.9461
 3035TIP3   OH230595   1.258   0.147   5.146 -0.0929 -0.2385 -0.2933
 3035TIP3    H130596   1.167   0.128   5.124 -0.6563 -0.7441  2.1757
 3035TIP3    H230597   1.252   0.214   5.214  1.4399  0.3967 -0.7442
 3036TIP3   OH230598   0.723   1.655   6.429 -0.2923 -0.5376  0.1062
 3036TIP3    H130599   0.673   1.708   6.367 -1.0719 -1.8772 -0.4324
 3036TIP3    H230600   0.812   1.690   6.423 -0.5470 -0.0492 -1.0873
 3037TIP3   OH230601   5.726   0.790   4.817  0.0241  0.3041  0.9955
 3037TIP3    H130602   5.709   0.699   4.841  0.4512  0.2108  0.9445
 3037TIP3    H230603   5.682   0.841   4.886  2.4001  0.0317  2.8446
 3038TIP3   OH230604   4.445   0.452   0.721 -0.0910  0.7289 -0.1225
 3038TIP3    H130605   4.472   0.457   0.629 -0.8512 -2.2591 -0.6067
 3038TIP3    H230606   4.385   0.377   0.725 -1.0028  1.4650  2.6261
 3039TIP3   OH230607   0.279   6.681  16.147 -0.2401 -0.6904 -0.2655
 3039TIP3    H130608   0.192   6.707  16.119 -0.0205  0.4368  0.0527
 3039TIP3    H230609   0.334   6.690  16.070 -0.2699 -0.7455 -0.2936
 3040TIP3   OH230610   2.050   0.704   3.451  0.1512 -0.0139 -0.3892
 3040TIP3    H130611   2.054   0.769   3.521  1.6394  0.8350 -1.2347
 3040TIP3    H230612   1.994   0.634   3.487 -0.6421  1.2454  0.9133
 3041TIP3   OH230613   1.297   4.276  12.351 -0.1539 -0.5668  1.1280
 3041TIP3    H130614   1.280   4.207  12.415 -0.7944 -1.2799  0.2042
 3041TIP3    H230615   1.231   4.263  12.283 -1.4934  2.0584  1.7920
 3042TIP3   OH230616   5.749   3.338  15.885 -0.6051 -0.2129  0.0499
 3042TIP3    H130617   5.699   3.361  15.963 -0.7949 -1.0790  0.1942
 3042TIP3    H230618   5.688   3.354  15.812  0.2585  2.6878 -0.1613
 3043TIP3   OH230619   1.750   4.696   2.339  0.8334  0.2768  0.0968
 3043TIP3    H130620   1.724   4.612   2.375 -0.1390 -0.2790 -1.7269
 3043TIP3    H230621   1.838   4.682   2.303  0.7499  0.0818 -0.0324
 3044TIP3   OH230622   4.654   4.075   3.486 -0.2156  0.4197 -0.1559
 3044TIP3    H130623   4.682   4.011   3.551 -0.0478  0.4777 -0.1727
 3044TIP3    H230624   4.714   4.148   3.496  0.0726  0.2530 -0.6637
 3045TIP3   OH230625   1.315   5.991   2.986  0.4023  0.0420  0.2030
 3045TIP3    H130626   1.395   5.942   3.004  0.8548  0.9269  0.6576
 3045TIP3    H230627   1.341   6.056   2.920 -0.5831 -1.3773 -1.6710
 3046TIP3   OH230628   4.251   0.905   1.144  0.0219 -0.1220  0.6077
 3046TIP3    H130629   4.205   0.983   1.175  0.5355 -0.5037  2.4584
 3046TIP3    H230630   4.336   0.936   1.115 -1.0991  0.5264 -2.4429
 3047TIP3   OH230631   1.888   4.788   0.767  0.1063  0.0564  0.2361
 3047TIP3    H130632   1.872   4.694   0.780 -2.7820  0.2225 -1.2566
 3047TIP3    H230633   1.933   4.793   0.683  1.3660 -0.0044  0.8818
 3048TIP3   OH230634   5.218   6.513   3.189  0.5571 -0.7031 -0.0614
 3048TIP3    H130635   5.198   6.458   3.114  2.3461  0.0067 -1.1267
 3048TIP3    H230636   5.181   6.599   3.166 -1.4648 -1.1612  1.2136
 3049TIP3   OH230637   6.519   5.830  15.804 -0.0148 -0.0661  0.1743
 3049TIP3    H130638   6.564   5.897  15.753  0.1524 -0.5280 -0.2959
 3049TIP3    H230639   6.589   5.779  15.844 -0.1242 -0.4640 -0.1344
 3050TIP3   OH230640   1.702   0.219  11.410 -0.1658 -0.3629 -0.1461
 3050TIP3    H130641   1.773   0.173  11.365  0.0635 -0.0346 -0.1272
 3050TIP3    H230642   1.622   0.186  11.369  0.0252 -0.2761 -0.5954
 3051TIP3   OH230643   3.817   5.666   2.230 -0.1720 -0.2330 -0.3602
 3051TIP3    H130644   3.764   5.696   2.304 -0.5420 -0.7097 -0.4245
 3051TIP3    H230645   3.797   5.729   2.160 -0.9837 -0.6476 -0.5100
 3052TIP3   OH230646   4.007   5.597   0.531  0.1234  0.7993 -0.3804
 3052TIP3    H130647   3.928   5.560   0.492 -0.4791  0.4865  1.0821
 3052TIP3    H230648   4.076   5.534   0.510 -0.4199  0.0449  0.0620
 3053TIP3   OH230649   1.755   0.757   3.005  0.1575  0.7047 -0.0125
 3053TIP3    H130650   1.836   0.742   3.055 -0.7878  0.1956  1.4153
 3053TIP3    H230651   1.712   0.828   3.052 -1.7297 -1.1282  1.1973
 3054TIP3   OH230652   5.425   2.059  11.874  0.0093  0.3695 -0.5525
 3054TIP3    H130653   5.429   2.023  11.785 -2.1097 -2.7638  0.4512
 3054TIP3    H230654   5.516   2.055  11.905  0.3300 -1.4483 -1.5576
 3055TIP3   OH230655   3.813   2.143  12.093  0.0385  0.7379  0.1814
 3055TIP3    H130656   3.763   2.112  12.018  0.3499  0.8564 -0.0794
 3055TIP3    H230657   3.847   2.229  12.066  2.4086 -0.3654 -0.6092
 3056TIP3   OH230658   4.974   0.676  14.246  0.5616 -0.5812 -0.8546
 3056TIP3    H130659   5.060   0.665  14.286  0.1222 -0.6427  0.0973
 3056TIP3    H230660   4.951   0.768  14.264  0.0030 -0.8390 -0.2306
 3057TIP3   OH230661   1.007   2.446   2.148  0.1267  0.7733 -0.4384
 3057TIP3    H130662   0.958   2.517   2.191 -1.6886 -0.1743 -0.8287
 3057TIP3    H230663   1.095   2.453   2.183 -1.0564  0.4907  2.9964
 3058TIP3   OH230664   4.472   0.471  16.328 -0.4895 -0.1974 -0.5380
 3058TIP3    H130665   4.562   0.495  16.352 -1.4101  0.2255  3.1033
 3058TIP3    H230666   4.476   0.377  16.311  0.6022 -0.2179 -0.2389
 3059TIP3   OH230667   0.353   2.723   3.898 -0.7466 -0.3986 -0.0891
 3059TIP3    H130668   0.363   2.805   3.850  0.4268 -0.0224  0.7374
 3059TIP3    H230669   0.442   2.702   3.928 -1.2988 -1.0761  1.1531
 3060TIP3   OH230670   0.421   0.551  14.764 -0.6700  0.1198 -0.2364
 3060TIP3    H130671   0.501   0.561  14.713  1.1715 -1.8297  1.9997
 3060TIP3    H230672   0.440   0.597  14.846 -1.1276 -1.7389  0.9738
 3061TIP3   OH230673   1.777   1.161   0.016  0.5162 -0.7383  0.2001
 3061TIP3    H130674   1.792   1.182  -0.076 -2.6123 -1.1341 -0.5119
 3061TIP3    H230675   1.795   1.068   0.023 -0.4915 -0.9825 -0.3462
 3062TIP3   OH230676   2.097   0.006   5.403 -0.1788 -0.0341 -0.3630
 3062TIP3    H130677   2.161  -0.066   5.394 -0.1630  0.0275 -0.7511
 3062TIP3    H230678   2.040  -0.022   5.474 -0.0403 -0.3344 -0.3663
 3063TIP3   OH230679   5.649   3.361  15.438  0.0723  0.5804 -0.0653
 3063TIP3    H130680   5.555   3.378  15.447  0.3583  1.1054  3.4968
 3063TIP3    H230681   5.684   3.442  15.401 -0.8011  0.6288 -0.8088
 3064TIP3   OH230682   0.426   0.827  14.549  0.4838 -0.1772 -0.4873
 3064TIP3    H130683   0.421   0.766  14.475  0.4287  0.1325 -0.7383
 3064TIP3    H230684   0.500   0.884  14.528 -1.1543  1.6580 -1.6480
 3065TIP3   OH230685   6.512   3.712  15.459 -0.1980 -0.4598 -0.2804
 3065TIP3    H130686   6.504   3.802  15.428 -1.2434 -0.4469 -0.0081
 3065TIP3    H230687   6.430   3.695  15.505 -0.5824 -1.9762 -1.4406
 3066TIP3   OH230688   0.353   6.203   1.587  0.2389  0.3352  0.8924
 3066TIP3    H130689   0.429   6.199   1.529  0.3063  0.8118  0.9435
 3066TIP3    H230690   0.279   6.216   1.529  0.2114  0.0230  0.8546
 3067TIP3   OH230691   3.497   3.335  11.637 -0.5403  0.0190  0.1250
 3067TIP3    H130692   3.437   3.347  11.711  0.0870 -0.6562  0.7564
 3067TIP3    H230693   3.507   3.423  11.600 -0.2440  0.5142  1.3299
 3068TIP3   OH230694   4.157   3.969  13.035 -0.7891  0.1366 -0.0593
 3068TIP3    H130695   4.141   4.028  12.961  0.1770  1.6713  0.9145
 3068TIP3    H230696   4.114   3.887  13.010 -0.6105  0.6583 -2.2538
 3069TIP3   OH230697   5.125   1.374   3.776  0.3543 -0.7458  0.0578
 3069TIP3    H130698   5.143   1.292   3.823  1.9627 -1.1988 -1.2567
 3069TIP3    H230699   5.031   1.371   3.758 -0.1613 -0.9361  2.4527
 3070TIP3   OH230700   3.476   2.659  13.100  0.6274  0.1439  0.4510
 3070TIP3    H130701   3.424   2.605  13.160 -0.1814  0.4610  0.0620
 3070TIP3    H230702   3.561   2.616  13.095 -0.8318 -2.8626 -2.1181
 3071TIP3   OH230703   2.632   6.805   4.305  0.4471  0.0066 -0.5994
 3071TIP3    H130704   2.712   6.854   4.326  0.7494  0.1590 -1.9972
 3071TIP3    H230705   2.662   6.732   4.251 -0.4079  0.4767 -1.7682
 3072TIP3   OH230706   5.701   1.279   1.653  0.3808  0.8891 -0.7417
 3072TIP3    H130707   5.791   1.289   1.684  0.5458 -3.8376  1.1098
 3072TIP3    H230708   5.648   1.294   1.731 -0.1317 -0.0700 -0.9068
 3073TIP3   OH230709   0.355   4.120  12.502 -0.4382  0.5684 -0.5202
 3073TIP3    H130710   0.354   4.120  12.598  0.9755  0.0795 -0.4760
 3073TIP3    H230711   0.273   4.078  12.477  0.3109 -1.6854  0.5476
 3074TIP3   OH230712   5.017   5.592  16.301 -0.5496  0.1265 -0.5807
 3074TIP3    H130713   5.024   5.679  16.340 -1.1694 -0.6043  1.2878
 3074TIP3    H230714   4.923   5.575  16.298 -0.4374 -1.7984  2.3975
 3075TIP3   OH230715   2.753   3.913   1.230  0.1412  0.2420  0.3702
 3075TIP3    H130716   2.721   3.949   1.313  0.3557  1.1303  0.0708
 3075TIP3    H230717   2.751   3.818   1.243  1.4323  0.3938  1.8648
 3076TIP3   OH230718   3.046   3.237  13.018  0.6139 -0.1397  0.1726
 3076TIP3    H130719   3.068   3.285  13.098 -1.3476  0.8725  0.1756
 3076TIP3    H230720   3.011   3.154  13.049 -1.0255  0.6247  0.4539
 3077TIP3   OH230721   1.697   5.753   1.022  0.1777  0.3361  0.3188
 3077TIP3    H130722   1.713   5.668   1.063 -2.9078 -0.7551 -0.4747
 3077TIP3    H230723   1.783   5.782   0.993  1.6856 -1.3526  2.7141
 3078TIP3   OH230724   0.213   5.931  13.895 -0.0776  0.5151  0.0197
 3078TIP3    H130725   0.147   5.993  13.865  1.2892  1.8825 -0.2630
 3078TIP3    H230726   0.252   5.897  13.814 -0.2664 -0.1273  0.1914
 3079TIP3   OH230727   2.991   3.910  11.543 -0.3459  0.3722  0.1932
 3079TIP3    H130728   3.018   3.988  11.591  1.1922  0.1788 -0.2897
 3079TIP3    H230729   2.940   3.943  11.469  2.1655  1.1835 -1.3029
 3080TIP3   OH230730   4.496   1.009   1.478 -0.3066  0.5333  0.0291
 3080TIP3    H130731   4.523   0.965   1.559  0.6023  0.8859 -0.0652
 3080TIP3    H230732   4.571   1.064   1.455 -1.4958  2.3458  0.2853
 3081TIP3   OH230733   3.279   5.552  12.680 -0.1490 -0.0492 -0.2574
 3081TIP3    H130734   3.362   5.591  12.708  0.7999 -1.2617 -1.2460
 3081TIP3    H230735   3.267   5.584  12.591 -1.8229  1.7298  0.5441
 3082TIP3   OH230736   5.080   1.189  12.685  0.1734  0.0452 -0.1751
 3082TIP3    H130737   5.048   1.172  12.774 -0.0046 -0.1166 -0.2701
 3082TIP3    H230738   5.132   1.112  12.663  1.5962  0.7997  0.4128
 3083TIP3   OH230739   0.591   5.398   0.880  0.3406 -0.2532 -0.7924
 3083TIP3    H130740   0.559   5.338   0.814 -2.3049  0.7106 -0.5039
 3083TIP3    H230741   0.599   5.482   0.834 -0.3075  0.1438 -0.1990
 3084TIP3   OH230742   2.304   4.903   5.113  0.6971  0.0200  0.5530
 3084TIP3    H130743   2.378   4.956   5.142 -0.1976  0.9658  1.1480
 3084TIP3    H230744   2.331   4.869   5.028  1.0536  1.9068 -0.1134
 3085TIP3   OH230745   5.613   1.105  14.399 -0.5772 -1.0879 -0.5105
 3085TIP3    H130746   5.618   1.188  14.352  1.4105  0.4806  2.1597
 3085TIP3    H230747   5.621   1.038  14.331 -2.8910  0.7958 -2.8357
 3086TIP3   OH230748   2.992   2.474  11.648 -0.0305 -0.3593  0.0084
 3086TIP3    H130749   2.920   2.469  11.586 -0.4604  1.0690  0.3445
 3086TIP3    H230750   3.066   2.507  11.597 -0.1211 -0.0918  0.0491
 3087TIP3   OH230751   4.137   4.575   6.805 -0.6449 -0.3433  0.0500
 3087TIP3    H130752   4.056   4.531   6.832  0.2326 -1.3257  1.2020
 3087TIP3    H230753   4.179   4.514   6.746 -0.4719 -0.0837 -0.0959
 3088TIP3   OH230754   1.171   1.720   1.018  0.4170 -0.3759 -0.1311
 3088TIP3    H130755   1.247   1.777   1.031 -0.2136  0.4880 -0.1097
 3088TIP3    H230756   1.161   1.675   1.102 -0.1432  0.8398  0.4809
 3089TIP3   OH230757   0.133   3.485   1.308 -0.5226 -0.0111  0.1018
 3089TIP3    H130758   0.168   3.410   1.261 -1.4833  0.1863 -1.0092
 3089TIP3    H230759   0.060   3.450   1.358  0.3351 -0.1719  1.2630
 3090TIP3   OH230760   1.465   5.420   4.547 -0.2121  0.2947 -0.3649
 3090TIP3    H130761   1.388   5.445   4.497  0.0053  0.9924 -0.3758
 3090TIP3    H230762   1.539   5.450   4.494  0.0284  0.6786  0.1729
 3091TIP3   OH230763   3.284   5.448   1.540 -0.1918 -0.0430 -0.5239
 3091TIP3    H130764   3.303   5.483   1.453  3.4910  2.1994  0.9437
 3091TIP3    H230765   3.239   5.519   1.585  0.7448  0.0552  0.2919
 3092TIP3   OH230766   6.840   0.637  15.043 -0.9480 -0.3217 -1.1329
 3092TIP3    H130767   6.847   0.726  15.007  0.6596 -1.1488 -3.0501
 3092TIP3    H230768   6.905   0.586  14.994 -1.1586 -2.3667  0.5745
 3093TIP3   OH230769   2.074   3.008  16.124  0.0161 -0.0810  0.3231
 3093TIP3    H130770   2.061   3.037  16.215  1.3783 -1.9850  1.2080
 3093TIP3    H230771   2.022   3.068  16.072 -0.2603  1.5221  2.3093
 3094TIP3   OH230772   1.541   4.636  12.727 -0.2190  0.2960  0.0419
 3094TIP3    H130773   1.563   4.639  12.633 -2.0711 -1.2948 -0.5156
 3094TIP3    H230774   1.606   4.693  12.768  0.9888  0.6347 -2.1363
 3095TIP3   OH230775   6.586   2.679   3.523 -0.1935  0.3276 -0.2532
 3095TIP3    H130776   6.549   2.761   3.491  0.5279  0.0806 -1.8025
 3095TIP3    H230777   6.676   2.678   3.490  0.1781 -0.5592  0.7203
 3096TIP3   OH230778   6.035   6.216  14.782 -0.6041  0.0587  0.0169
 3096TIP3    H130779   6.011   6.143  14.839 -2.2966 -1.1222 -2.0496
 3096TIP3    H230780   6.095   6.269  14.835  0.3629 -2.5617  1.7618
 3097TIP3   OH230781   6.501   6.447  17.061 -0.0842 -0.0999 -0.0218
 3097TIP3    H130782   6.456   6.364  17.044 -0.1439 -0.0592 -0.0658
 3097TIP3    H230783   6.532   6.475  16.975 -1.3567  0.6652 -0.2544
 3098TIP3   OH230784   1.942   1.757  13.745 -0.2091 -0.1655 -0.1078
 3098TIP3    H130785   1.933   1.706  13.826 -1.5410 -0.4318 -0.3938
 3098TIP3    H230786   1.898   1.704  13.679  0.3654  0.3234 -0.8954
 3099TIP3   OH230787   2.442   3.010   0.436 -0.2443 -0.1186  0.4957
 3099TIP3    H130788   2.508   3.031   0.369  0.4961 -0.1650  1.1979
 3099TIP3    H230789   2.465   2.922   0.466  0.4520  0.5443  1.9867
 3100TIP3   OH230790   6.658   0.893  13.503  0.8099 -0.1441 -0.3509
 3100TIP3    H130791   6.750   0.885  13.478  0.7094 -0.5748 -0.5853
 3100TIP3    H230792   6.646   0.830  13.574  0.8274  0.3046  0.0574
 3101TIP3   OH230793   3.675   2.825  13.808  0.5037 -0.2277  0.7547
 3101TIP3    H130794   3.648   2.734  13.822 -0.2676  0.0464  1.0889
 3101TIP3    H230795   3.673   2.836  13.712  1.3815 -0.7870  0.6639
 3102TIP3   OH230796   5.912   0.610  12.617  0.4505  0.0355  0.7335
 3102TIP3    H130797   5.960   0.578  12.693 -0.4683  0.2073  1.3974
 3102TIP3    H230798   5.912   0.536  12.556  1.8382  0.1474  0.5743
 3103TIP3   OH230799   2.938   4.503   4.361 -0.8090  0.3663 -0.1985
 3103TIP3    H130800   2.980   4.580   4.324 -1.6759  1.1621  0.4171
 3103TIP3    H230801   2.933   4.522   4.455 -0.3310 -0.7801  0.0674
 3104TIP3   OH230802   6.510   4.719  15.880  0.3918 -0.3771 -0.1635
 3104TIP3    H130803   6.460   4.646  15.916  0.6564 -0.6253 -0.2905
 3104TIP3    H230804   6.516   4.700  15.786 -3.3071  1.9914 -1.0824
 3105TIP3   OH230805   2.446   3.687   3.209  0.0235  0.6483  0.1001
 3105TIP3    H130806   2.374   3.641   3.166  0.6818  1.3387 -1.8830
 3105TIP3    H230807   2.495   3.619   3.255 -0.0624 -0.3632 -1.2574
 3106TIP3   OH230808   4.634   1.097  11.278 -0.1539 -0.5606  0.4370
 3106TIP3    H130809   4.594   1.152  11.345  1.1012 -0.7088  1.3402
 3106TIP3    H230810   4.560   1.056  11.233 -1.0407  0.1987  1.1705
 3107TIP3   OH230811   3.614   5.421   2.195  0.0677 -0.8317  0.3467
 3107TIP3    H130812   3.623   5.406   2.101 -0.6528 -0.9861  0.2974
 3107TIP3    H230813   3.548   5.491   2.202 -0.0541 -0.9822  0.7390
 3108TIP3   OH230814   1.288   4.289   1.655 -0.6786  0.2891 -0.2720
 3108TIP3    H130815   1.316   4.257   1.741 -2.1324 -0.7572 -0.1612
 3108TIP3    H230816   1.229   4.222   1.622 -1.1637  1.2889 -1.5351
 3109TIP3   OH230817   2.926   2.455   5.338  0.2016  0.1998  0.4391
 3109TIP3    H130818   2.896   2.523   5.277 -0.3351 -0.0967  0.3589
 3109TIP3    H230819   2.851   2.442   5.397 -0.1110 -1.0653 -0.2041
 3110TIP3   OH230820   5.857   6.230  16.496 -0.2618  0.2415  0.8122
 3110TIP3    H130821   5.926   6.163  16.500  0.4439  0.6768 -1.7377
 3110TIP3    H230822   5.783   6.184  16.456  0.1204  0.8241 -0.6503
 3111TIP3   OH230823   3.949   3.932   5.552  0.1152 -0.3216 -0.6599
 3111TIP3    H130824   3.885   3.869   5.519 -2.7646  1.9701  0.1761
 3111TIP3    H230825   3.904   3.978   5.623  3.3645  0.2434  1.2528
 3112TIP3   OH230826   1.901   2.970   2.063 -0.3324  0.8090  0.1348
 3112TIP3    H130827   1.809   2.996   2.075 -0.3500 -0.2142  3.1884
 3112TIP3    H230828   1.898   2.876   2.045  0.0932  0.5268  1.3999
 3113TIP3   OH230829   5.121   3.358   3.251 -0.4471 -0.3612 -0.7248
 3113TIP3    H130830   5.125   3.327   3.161 -1.9182 -1.1234 -0.5608
 3113TIP3    H230831   5.157   3.286   3.303  1.9095  0.6824 -0.7566
 3114TIP3   OH230832   6.491   1.584  15.913  0.5456  0.4990 -0.1677
 3114TIP3    H130833   6.560   1.638  15.874  1.9655 -1.7948 -1.0297
 3114TIP3    H230834   6.499   1.500  15.869 -0.7539 -0.8256  1.9613
 3115TIP3   OH230835   4.105   3.050  14.547  0.0279 -0.3968  0.1618
 3115TIP3    H130836   4.115   2.963  14.587 -2.4693 -0.3428  1.0560
 3115TIP3    H230837   4.195   3.081  14.535  0.9595 -2.4437  1.2798
 3116TIP3   OH230838   6.699   2.458  16.310  0.6908 -0.1388 -0.3360
 3116TIP3    H130839   6.615   2.504  16.310  0.2600 -0.8568 -1.8425
 3116TIP3    H230840   6.762   2.522  16.342  0.2670  1.8637 -3.2009
 3117TIP3   OH230841   5.728   5.928  12.781 -0.3215  0.4730  1.2825
 3117TIP3    H130842   5.740   6.006  12.727  1.7782 -0.9224 -0.4549
 3117TIP3    H230843   5.799   5.932  12.846  1.2997 -1.0190 -0.2757
 3118TIP3   OH230844   0.618   2.899  11.380 -0.0141  0.3183  0.0555
 3118TIP3    H130845   0.528   2.904  11.413 -0.7229 -0.5877 -1.6173
 3118TIP3    H230846   0.630   2.980  11.331  0.0786  0.4384  0.2771
 3119TIP3   OH230847   4.822   5.518   3.666  0.0468  0.0777  0.0630
 3119TIP3    H130848   4.785   5.516   3.578  0.7466 -1.9833 -0.2265
 3119TIP3    H230849   4.768   5.582   3.713  0.7195  2.5841 -2.2730
 3120TIP3   OH230850   6.219   6.282  13.461 -0.3376  0.2567  0.1700
 3120TIP3    H130851   6.278   6.222  13.417  1.0643 -0.6116  2.9813
 3120TIP3    H230852   6.204   6.353  13.398  0.1436 -1.6445 -2.2270
 3121TIP3   OH230853   1.159   3.363  14.143 -0.1474 -0.0477  0.1636
 3121TIP3    H130854   1.233   3.309  14.116 -0.5071 -0.2782 -0.3656
 3121TIP3    H230855   1.189   3.405  14.224  1.4701  1.7708 -1.3010
 3122TIP3   OH230856   2.945   3.532  16.910 -0.0500 -0.2550 -0.1160
 3122TIP3    H130857   2.896   3.610  16.935 -0.2559 -0.8309  1.4185
 3122TIP3    H230858   2.905   3.503  16.828 -2.3533 -0.7010  1.0744
 3123TIP3   OH230859   1.368   6.099   5.932 -0.1532 -0.6726  0.4620
 3123TIP3    H130860   1.410   6.148   5.862 -1.9408 -0.7729 -0.7318
 3123TIP3    H230861   1.393   6.145   6.012  0.8163  0.2575 -0.3500
 3124TIP3   OH230862   3.369   0.391  15.345 -0.4983 -0.0927 -0.6252
 3124TIP3    H130863   3.342   0.429  15.429  0.9294 -1.4461  0.5009
 3124TIP3    H230864   3.292   0.400  15.289 -1.4507  0.9536  0.7698
 3125TIP3   OH230865   1.462   2.941  13.626  0.2825 -0.6201 -0.0751
 3125TIP3    H130866   1.405   3.007  13.666 -0.6646 -1.6462  0.2978
 3125TIP3    H230867   1.432   2.858  13.662  0.9627 -1.3413 -1.1207
 3126TIP3   OH230868   1.354   0.078  16.636 -0.3832  0.6272 -0.4534
 3126TIP3    H130869   1.367  -0.005  16.590 -0.2395  1.7335 -2.5385
 3126TIP3    H230870   1.275   0.064  16.688  0.6893 -1.3932  0.7615
 3127TIP3   OH230871   4.687   2.436  16.789  0.0432  0.3245  0.3472
 3127TIP3    H130872   4.653   2.508  16.736 -0.7268 -0.3264 -0.0762
 3127TIP3    H230873   4.626   2.429  16.862  0.3456  0.3617  0.6022
 3128TIP3   OH230874   5.622   4.842   2.031 -0.4594 -0.6454  0.3147
 3128TIP3    H130875   5.587   4.825   1.943 -0.3549  1.5339 -0.1985
 3128TIP3    H230876   5.559   4.801   2.090 -1.2471 -0.9860 -0.7294
 3129TIP3   OH230877   0.796   2.974  11.080 -0.1349  0.5819 -0.1081
 3129TIP3    H130878   0.727   3.038  11.061 -0.0535  1.4392  2.1599
 3129TIP3    H230879   0.875   3.014  11.046 -0.2945  1.0858  0.0981
 3130TIP3   OH230880   5.654   0.681  15.518  0.2326  0.0707  0.2878
 3130TIP3    H130881   5.650   0.772  15.489 -0.1036 -0.3050 -0.9117
 3130TIP3    H230882   5.586   0.636  15.468  0.3474 -0.8334  0.9038
 3131TIP3   OH230883   1.761   5.962   4.864 -0.3017 -0.1673 -0.3112
 3131TIP3    H130884   1.746   6.049   4.899 -0.1600 -0.5305  0.6910
 3131TIP3    H230885   1.684   5.911   4.891 -0.2818 -0.4097 -0.6963
 3132TIP3   OH230886   6.387   6.742  12.292 -0.1063  0.0920 -0.1096
 3132TIP3    H130887   6.464   6.770  12.342 -1.2284  0.6598  1.4004
 3132TIP3    H230888   6.360   6.821  12.244 -0.7086  0.3875  0.6937
 3133TIP3   OH230889   5.244   1.946  13.048  0.4007 -0.3619 -0.2774
 3133TIP3    H130890   5.171   1.961  13.108  0.6870 -0.9424  0.2321
 3133TIP3    H230891   5.232   2.010  12.978 -0.3539 -0.1690  0.0242
 3134TIP3   OH230892   2.376   2.698  12.051 -0.0005 -0.3250  0.0998
 3134TIP3    H130893   2.325   2.672  12.128 -0.8275 -0.0050 -0.3282
 3134TIP3    H230894   2.402   2.788  12.068  0.2588 -0.4231  0.2296
 3135TIP3   OH230895   0.543   2.111   5.219 -0.0716 -0.1600  0.2889
 3135TIP3    H130896   0.541   2.206   5.220  3.3751  0.0925 -1.6960
 3135TIP3    H230897   0.582   2.086   5.302  0.4590  0.2788  0.1735
 3136TIP3   OH230898   3.820   2.958  16.754 -0.0725  0.5244 -0.0994
 3136TIP3    H130899   3.878   2.918  16.689  0.5170 -0.6157  1.0624
 3136TIP3    H230900   3.733   2.925  16.732 -0.1248  1.2822 -1.1275
 3137TIP3   OH230901   5.683   5.027   0.716 -0.3365  0.1388  0.3836
 3137TIP3    H130902   5.739   4.964   0.762  0.3147  0.8409  0.5721
 3137TIP3    H230903   5.716   5.026   0.626 -0.8655 -0.3914  0.1901
 3138TIP3   OH230904   1.797   2.756  11.822 -0.2947 -0.4780  0.2886
 3138TIP3    H130905   1.814   2.667  11.853  0.5246 -0.3450  0.2673
 3138TIP3    H230906   1.739   2.793  11.888 -1.4578 -1.3398 -0.2233
 3139TIP3   OH230907   6.038   3.794   1.703 -0.5313  0.8344  0.1364
 3139TIP3    H130908   6.014   3.710   1.744  1.0028 -0.8087 -2.0980
 3139TIP3    H230909   6.104   3.831   1.761 -0.0989 -0.2969  0.4042
 3140TIP3   OH230910   4.621   1.888   2.554 -0.7392 -0.3866 -0.1307
 3140TIP3    H130911   4.638   1.975   2.590  0.1515 -0.0426 -1.3131
 3140TIP3    H230912   4.704   1.862   2.515 -1.0544 -1.6898  0.0200
 3141TIP3   OH230913   2.669   6.616   2.181  0.0742 -0.5037 -0.2297
 3141TIP3    H130914   2.744   6.578   2.227  1.1595 -0.7370 -2.0967
 3141TIP3    H230915   2.706   6.653   2.102 -1.6771  0.2304 -0.7430
 3142TIP3   OH230916   2.213   1.616   3.611  0.5741 -0.3288 -0.0618
 3142TIP3    H130917   2.155   1.590   3.682  1.2787 -0.3556  0.5086
 3142TIP3    H230918   2.298   1.576   3.632  0.4613 -1.5260 -1.6342
 3143TIP3   OH230919   6.291   3.544   0.716  0.3203  0.0499 -0.2842
 3143TIP3    H130920   6.208   3.592   0.722 -1.6472 -2.9068 -1.6423
 3143TIP3    H230921   6.327   3.547   0.805 -1.9345  0.2679  0.6853
 3144TIP3   OH230922   3.340   2.120   2.260  0.6677 -0.0473 -0.7191
 3144TIP3    H130923   3.247   2.136   2.243  1.2610  0.9224 -3.4935
 3144TIP3    H230924   3.341   2.038   2.309 -1.6248 -0.4316 -1.1908
 3145TIP3   OH230925   4.031   3.225  13.434 -0.3781  0.0123  0.4566
 3145TIP3    H130926   3.963   3.218  13.501  0.9033 -2.9437  1.6138
 3145TIP3    H230927   4.055   3.135  13.414  3.6328  0.8564  0.6061
 3146TIP3   OH230928   4.807   2.537   0.179  0.8158 -0.3522  0.0256
 3146TIP3    H130929   4.851   2.610   0.222  0.1034  0.6430 -0.8833
 3146TIP3    H230930   4.841   2.536   0.090 -0.2257 -0.2134 -0.3870
 3147TIP3   OH230931   4.187   2.255  16.830  0.0317 -0.0690  0.3781
 3147TIP3    H130932   4.210   2.333  16.881  0.3924  1.5952 -2.1593
 3147TIP3    H230933   4.240   2.262  16.751  0.1538 -2.9968  0.0917
 3148TIP3   OH230934   6.505   6.739  17.094 -0.0982  0.6992 -0.1709
 3148TIP3    H130935   6.518   6.658  17.045  0.1174  0.9205 -0.4857
 3148TIP3    H230936   6.498   6.711  17.185 -0.5183  0.2797 -0.3293
 3149TIP3   OH230937   1.550   2.833   4.291  0.1734 -0.2643  0.0322
 3149TIP3    H130938   1.584   2.834   4.202  0.9823  1.6178  0.3076
 3149TIP3    H230939   1.605   2.895   4.338 -3.8394  3.5242  0.4035
 3150TIP3   OH230940   6.647   1.554  15.555  0.3356 -0.2430 -0.9338
 3150TIP3    H130941   6.571   1.593  15.512  0.3285 -1.9858 -2.6343
 3150TIP3    H230942   6.620   1.463  15.574  1.1408 -0.1698  0.7627
 3151TIP3   OH230943   0.963   1.455   4.676 -0.7505  0.4195 -0.2893
 3151TIP3    H130944   1.019   1.401   4.620 -2.6639 -0.1025 -1.8235
 3151TIP3    H230945   0.985   1.545   4.653  1.0690  0.3356  0.8670
 3152TIP3   OH230946   2.830   6.414   5.738 -0.1532 -0.1507  0.2865
 3152TIP3    H130947   2.748   6.373   5.712  1.2903 -1.5436 -2.5949
 3152TIP3    H230948   2.828   6.500   5.696  0.1986 -0.5578 -0.6024
 3153TIP3   OH230949   6.606   0.267   1.553 -0.0997  0.0294  0.1982
 3153TIP3    H130950   6.621   0.293   1.644  2.0053 -2.1548  0.5802
 3153TIP3    H230951   6.561   0.183   1.559 -0.0915 -0.0524 -0.7623
 3154TIP3   OH230952   0.603   1.196   6.469 -0.2815  0.8657  0.3659
 3154TIP3    H130953   0.622   1.180   6.377  0.8776 -0.7981  0.8262
 3154TIP3    H230954   0.680   1.241   6.502 -0.8136  1.7129  0.4790
 3155TIP3   OH230955   4.954   3.661   0.549  0.0927  1.0052 -0.0373
 3155TIP3    H130956   4.926   3.609   0.474 -0.7150  0.6590  0.4854
 3155TIP3    H230957   4.973   3.597   0.617  0.7780  1.3187  0.0747
 3156TIP3   OH230958   3.112   0.403   2.537 -0.0480 -0.2930  0.5505
 3156TIP3    H130959   3.039   0.413   2.476  0.4265  0.3539  0.0636
 3156TIP3    H230960   3.150   0.318   2.515 -1.9081 -1.6392  2.2329
 3157TIP3   OH230961   4.759   3.203  15.852  0.2071  0.4107 -0.3660
 3157TIP3    H130962   4.852   3.208  15.874  0.5268  1.1810 -1.7621
 3157TIP3    H230963   4.758   3.188  15.757 -1.0681  3.6169 -0.9588
 3158TIP3   OH230964   4.490   5.588   0.666 -0.5606  0.2369  0.2616
 3158TIP3    H130965   4.415   5.537   0.696 -0.6730 -0.1675 -0.6619
 3158TIP3    H230966   4.518   5.638   0.743 -1.1616 -0.3530  0.8762
 3159TIP3   OH230967   6.368   0.070  14.440  0.0020 -0.2048 -0.1308
 3159TIP3    H130968   6.315   0.119  14.377  0.8401  3.4924  1.7613
 3159TIP3    H230969   6.452   0.059  14.397 -1.0812 -2.9927 -1.7805
 3160TIP3   OH230970   5.322   5.863   3.040  0.1172 -0.5192 -0.4852
 3160TIP3    H130971   5.395   5.910   3.082 -0.0629  0.2913 -1.0439
 3160TIP3    H230972   5.363   5.815   2.968  0.2136 -0.6907 -0.3145
 3161TIP3   OH230973   5.454   1.909  16.817  0.5032  0.1555 -0.1193
 3161TIP3    H130974   5.449   2.005  16.821  0.9653  0.1765 -0.0132
 3161TIP3    H230975   5.548   1.890  16.811  0.4147 -0.2938 -0.1055
 3162TIP3   OH230976   6.602   4.982   3.379  0.1489  0.0860 -0.1866
 3162TIP3    H130977   6.620   5.054   3.318  0.9783  1.0075  1.0758
 3162TIP3    H230978   6.508   4.967   3.371  0.5696 -1.5703 -3.4945
 3163TIP3   OH230979   5.308   4.772  14.716 -0.6623 -0.3632 -0.4857
 3163TIP3    H130980   5.316   4.676  14.713  0.2524 -0.2725 -1.5381
 3163TIP3    H230981   5.360   4.797  14.792 -0.1280 -0.6493 -0.7472
 3164TIP3   OH230982   4.010   6.762  12.036  0.6608 -0.4635  0.0146
 3164TIP3    H130983   3.983   6.721  12.118 -0.7201 -0.0752 -0.2142
 3164TIP3    H230984   3.995   6.855  12.049  3.1040 -0.0514  0.2760
 3165TIP3   OH230985   3.039   5.497   2.435  0.3766 -0.8483 -0.1888
 3165TIP3    H130986   2.957   5.489   2.385  0.3179  0.6952 -0.3977
 3165TIP3    H230987   3.095   5.428   2.400 -0.1143 -0.6116 -1.5156
 3166TIP3   OH230988   3.231   3.287  11.033 -1.1087  0.1637 -0.4674
 3166TIP3    H130989   3.154   3.235  11.057 -0.5943 -0.8700 -0.9785
 3166TIP3    H230990   3.201   3.378  11.036 -1.8610 -0.0987  1.1226
 3167TIP3   OH230991   0.317   4.875  12.855 -0.1744 -0.6909 -0.1981
 3167TIP3    H130992   0.259   4.923  12.796 -1.1776 -1.1862  0.3726
 3167TIP3    H230993   0.358   4.809  12.799  1.3226  0.8217 -1.0276
 3168TIP3   OH230994   1.330   2.054   5.689  0.2509 -0.2560 -0.4645
 3168TIP3    H130995   1.329   2.107   5.769  0.6466 -1.0426  0.0777
 3168TIP3    H230996   1.271   1.981   5.709  0.2586 -0.3922 -0.9354
 3169TIP3   OH230997   5.039   4.814   5.388 -0.3592  0.4721  0.2266
 3169TIP3    H130998   5.042   4.724   5.419 -0.0022  0.3077 -0.2660
 3169TIP3    H230999   4.964   4.853   5.434 -0.9486 -0.2712 -0.0773
 3170TIP3   OH231000   3.949   2.426  16.863 -0.2963 -0.3474 -0.6039
 3170TIP3    H131001   3.938   2.331  16.850  0.5892 -0.6189  0.4503
 3170TIP3    H231002   3.957   2.461  16.775 -1.1819 -1.1783 -1.0375
 3171TIP3   OH231003   5.900   4.898   5.837 -0.0763 -0.4087  0.4951
 3171TIP3    H131004   5.913   4.967   5.903  1.4876 -0.2605  0.0746
 3171TIP3    H231005   5.874   4.821   5.888  1.4508 -0.3942  1.3528
 3172TIP3   OH231006   5.788   3.362   0.213 -0.4344 -0.3617  0.3313
 3172TIP3    H131007   5.784   3.274   0.176 -1.9095  0.2107 -0.9883
 3172TIP3    H231008   5.839   3.412   0.149 -0.2119 -0.0819  0.7212
 3173TIP3   OH231009   1.563   2.059  17.077 -0.5116 -0.5115 -0.2380
 3173TIP3    H131010   1.595   2.043  16.988 -1.7355 -0.6620 -0.6747
 3173TIP3    H231011   1.528   1.974  17.105  2.2494 -1.2205  1.4664
 3174TIP3   OH231012   1.686   4.979  16.351 -0.3397 -0.9436 -0.2740
 3174TIP3    H131013   1.604   4.939  16.380 -0.4475 -0.1471  0.5455
 3174TIP3    H231014   1.659   5.058  16.305 -0.0322 -0.5317  0.2431
 3175TIP3   OH231015   6.092   1.480  14.453 -0.2840 -0.8830  0.0626
 3175TIP3    H131016   6.130   1.441  14.375 -1.2785 -0.8407 -0.4505
 3175TIP3    H231017   5.998   1.479  14.438 -0.5589 -1.5826  1.5887
 3176TIP3   OH231018   4.126   1.865  15.271  0.0869  0.0399 -0.0968
 3176TIP3    H131019   4.094   1.790  15.222 -0.4565  0.9454 -1.1570
 3176TIP3    H231020   4.050   1.923  15.279  0.4755  0.4513  0.7905
 3177TIP3   OH231021   0.058   4.714   3.754 -0.0754 -0.8681 -0.2810
 3177TIP3    H131022   0.012   4.760   3.684  2.8760  3.6953  0.3897
 3177TIP3    H231023   0.136   4.677   3.711  0.6211  0.0535  0.1538
 3178TIP3   OH231024   6.626   0.215   1.871  0.3233  0.1596 -0.2873
 3178TIP3    H131025   6.601   0.126   1.895  0.8388 -0.1413 -0.8263
 3178TIP3    H231026   6.686   0.243   1.940 -0.4133  0.3759  0.2801
 3179TIP3   OH231027   4.205   0.252   4.331  0.2472  0.1178  0.3949
 3179TIP3    H131028   4.175   0.308   4.259  0.1242 -1.8682 -1.2035
 3179TIP3    H231029   4.153   0.172   4.322  1.5800 -0.9230  1.5154
 3180TIP3   OH231030   4.830   1.253  11.850  0.4363 -0.9290  0.2221
 3180TIP3    H131031   4.830   1.246  11.755 -2.4636  0.7512 -0.0278
 3180TIP3    H231032   4.871   1.337  11.868 -0.9769 -0.2194  0.2499
 3181TIP3   OH231033   0.650   3.494  12.696  0.3319 -0.5463 -0.3071
 3181TIP3    H131034   0.687   3.504  12.608 -0.6027 -0.8686 -0.7566
 3181TIP3    H231035   0.696   3.558  12.749  1.3140 -0.7385 -0.9047
 3182TIP3   OH231036   4.616   1.523   3.417  0.2803 -0.5671 -0.3025
 3182TIP3    H131037   4.698   1.502   3.460  0.0840 -0.0015  0.3697
 3182TIP3    H231038   4.559   1.554   3.488 -0.0567  0.3717 -0.9615
 3183TIP3   OH231039   5.388   5.404   6.732  0.0259 -0.2382  0.4332
 3183TIP3    H131040   5.414   5.479   6.678  1.2037  0.0364  1.3541
 3183TIP3    H231041   5.324   5.439   6.793 -0.0374 -0.1766  0.3325
 3184TIP3   OH231042   2.530   6.171   0.884  0.7434  0.2173  0.1401
 3184TIP3    H131043   2.613   6.131   0.908  0.8149  0.1734 -0.1768
 3184TIP3    H231044   2.522   6.157   0.790  1.1580  1.6321 -0.1358
 3185TIP3   OH231045   1.341   4.814   1.505  0.1243 -0.0103  0.4741
 3185TIP3    H131046   1.300   4.749   1.449 -0.2322  0.5696  0.0498
 3185TIP3    H231047   1.289   4.894   1.492  0.0179  0.1375  1.6337
 3186TIP3   OH231048   5.404   5.605  12.401  0.4055  0.2067  0.1834
 3186TIP3    H131049   5.429   5.697  12.397  2.9742 -0.4425 -2.1199
 3186TIP3    H231050   5.314   5.605  12.433  0.0666  3.5451 -0.4562
 3187TIP3   OH231051   3.010   5.026   1.006 -0.0550 -0.3727 -0.4170
 3187TIP3    H131052   2.992   4.960   0.939  3.1904 -2.0084  0.1218
 3187TIP3    H231053   2.924   5.047   1.043 -1.4244 -2.9097 -1.8975
 3188TIP3   OH231054   3.028   4.662   0.212 -0.2999 -0.4467  0.3744
 3188TIP3    H131055   2.979   4.614   0.279 -0.1247  1.6695  2.1714
 3188TIP3    H231056   3.114   4.621   0.212 -0.6622 -1.2316  0.5713
 3189TIP3   OH231057   6.202   3.086   4.671  0.2713 -0.1076  0.1266
 3189TIP3    H131058   6.155   3.003   4.677  3.7450 -2.2303  0.5056
 3189TIP3    H231059   6.208   3.117   4.761 -1.1711  0.7107 -0.0336
 3190TIP3   OH231060   6.570   2.289   0.112  0.1263 -0.4029 -0.1082
 3190TIP3    H131061   6.528   2.366   0.076  0.2503 -0.7338 -0.9890
 3190TIP3    H231062   6.630   2.323   0.178 -1.3604  0.0920  1.0517
 3191TIP3   OH231063   5.062   6.530   1.595  0.1406 -0.1718 -0.3084
 3191TIP3    H131064   5.082   6.436   1.592 -0.3863 -0.3410  0.7862
 3191TIP3    H231065   5.103   6.566   1.517  3.1847 -0.7570  0.9082
 3192TIP3   OH231066   5.217   1.931   0.791  0.3593  0.1960 -0.2312
 3192TIP3    H131067   5.168   1.995   0.739  1.1628 -0.4725 -1.8680
 3192TIP3    H231068   5.308   1.961   0.786  0.2247  1.9039  3.4492
 3193TIP3   OH231069   0.944   4.549   1.373  0.7307 -0.0832  0.2394
 3193TIP3    H131070   0.944   4.472   1.430 -1.0012 -0.7619 -0.6272
 3193TIP3    H231071   1.037   4.566   1.356  1.1656 -1.4843  1.0868
 3194TIP3   OH231072   1.750   2.601  13.595  0.3368 -0.1558  0.0884
 3194TIP3    H131073   1.751   2.697  13.590 -0.1391 -0.1812 -0.7324
 3194TIP3    H231074   1.667   2.576  13.554  0.4545 -0.9221  0.3009
 3195TIP3   OH231075   4.250   4.951  13.731  0.0711  0.0503 -0.3430
 3195TIP3    H131076   4.297   5.025  13.771  0.3712  0.4849 -1.4499
 3195TIP3    H231077   4.299   4.933  13.651  0.0120 -1.3864 -0.0658
 3196TIP3   OH231078   0.720   3.494  15.438 -0.4281 -0.1798  0.2364
 3196TIP3    H131079   0.704   3.408  15.476 -0.8526  0.0886  0.6772
 3196TIP3    H231080   0.648   3.508  15.377 -0.7995  0.1963  0.7550
 3197TIP3   OH231081   5.610   3.690  16.164  0.5801  0.7188  0.1060
 3197TIP3    H131082   5.570   3.765  16.120 -0.8555 -1.0108 -1.6918
 3197TIP3    H231083   5.696   3.681  16.124  0.2745  0.6897 -0.5525
 3198TIP3   OH231084   5.856   6.485  14.701 -0.3070 -0.4680  0.6172
 3198TIP3    H131085   5.933   6.535  14.729 -0.2487  1.6887 -2.8838
 3198TIP3    H231086   5.804   6.547  14.650 -2.1501 -3.0620 -0.8975
 3199TIP3   OH231087   0.594   2.965  15.792  0.1286  0.0311 -0.1243
 3199TIP3    H131088   0.547   2.886  15.820  0.5168 -0.3647 -0.5825
 3199TIP3    H231089   0.530   3.014  15.740  0.4311 -0.8627 -1.3693
 3200TIP3   OH231090   6.532   4.972  16.616  0.4390  0.2126  0.5378
 3200TIP3    H131091   6.535   4.877  16.631 -0.1772  0.0086 -0.5030
 3200TIP3    H231092   6.440   4.990  16.595  0.8335  0.7852 -0.7855
 3201TIP3   OH231093   5.935   2.728   1.652 -0.4411  0.1679 -0.5350
 3201TIP3    H131094   5.862   2.720   1.591  0.3951 -1.3750 -1.4052
 3201TIP3    H231095   6.008   2.762   1.599 -0.6336  2.3502  0.4639
 3202TIP3   OH231096   2.219   5.644   1.805 -0.4312 -0.3028 -0.0338
 3202TIP3    H131097   2.244   5.724   1.759  0.4141 -0.3156  0.3917
 3202TIP3    H231098   2.125   5.636   1.789 -1.0581  2.0568  1.7958
 3203TIP3   OH231099   5.408   3.469   6.554 -0.3041  0.1588  0.0482
 3203TIP3    H131100   5.405   3.500   6.463 -0.3858 -0.7660 -0.2741
 3203TIP3    H231101   5.413   3.549   6.606  2.2090  0.6551 -0.8507
 3204TIP3   OH231102   6.463   4.695   0.847  0.7389 -0.4432 -0.5387
 3204TIP3    H131103   6.409   4.762   0.889  1.5426 -0.8602  1.2528
 3204TIP3    H231104   6.413   4.614   0.856  0.3667 -0.3286 -1.5071
 3205TIP3   OH231105   0.688   1.660  11.083 -0.1007 -0.1033  0.1672
 3205TIP3    H131106   0.726   1.677  11.169 -1.4903  0.2543  0.7353
 3205TIP3    H231107   0.762   1.666  11.023  0.5335  2.0067  1.0475
 3206TIP3   OH231108   3.122   4.632  16.569 -0.4231 -0.0517 -0.3219
 3206TIP3    H131109   3.139   4.687  16.493  1.2279 -0.9244 -0.6164
 3206TIP3    H231110   3.205   4.629  16.616 -1.6875  1.5044  2.2865
 3207TIP3   OH231111   1.016   6.808   3.839 -0.1083 -0.0973  0.1540
 3207TIP3    H131112   0.997   6.789   3.931  0.5466  0.7320  0.4720
 3207TIP3    H231113   1.099   6.761   3.822  0.6251  1.0493  0.4633
 3208TIP3   OH231114   2.800   6.440  11.914 -0.0444  0.7411  0.0849
 3208TIP3    H131115   2.759   6.447  12.001  0.5761  1.3762  0.3384
 3208TIP3    H231116   2.741   6.489  11.856  0.6754  2.2463  0.5734
 3209TIP3   OH231117   4.689   3.754  15.491  0.2370  0.0314  0.1607
 3209TIP3    H131118   4.740   3.774  15.569  2.4288  0.9663 -1.4441
 3209TIP3    H231119   4.738   3.684  15.447 -0.9960 -0.5189 -0.4019
 3210TIP3   OH231120   3.817   5.860  10.770  0.0988 -0.2367  0.0873
 3210TIP3    H131121   3.815   5.892  10.860  0.7173  0.9323 -0.2917
 3210TIP3    H231122   3.907   5.874  10.741  0.3028 -1.9843 -0.2485
 3211TIP3   OH231123   6.654   3.687   5.623  0.3770  0.3559  0.2253
 3211TIP3    H131124   6.709   3.633   5.679 -1.0733 -2.2574 -0.6727
 3211TIP3    H231125   6.564   3.664   5.649 -0.3813 -1.3520 -3.2834
 3212TIP3   OH231126   5.493   3.955  12.352 -0.0726 -0.0474  0.1763
 3212TIP3    H131127   5.426   3.909  12.301  0.1800 -0.2032 -0.0199
 3212TIP3    H231128   5.515   4.031  12.299 -0.6601  0.4348  0.6105
 3213TIP3   OH231129   2.257   4.636  11.524 -0.6627  0.0947  0.3780
 3213TIP3    H131130   2.294   4.579  11.457 -1.9976 -2.4177  1.5980
 3213TIP3    H231131   2.295   4.604  11.606  1.0992  3.2080  0.9284
 3214TIP3   OH231132   4.280   6.040   2.707  0.0970  0.4973 -0.0181
 3214TIP3    H131133   4.314   6.042   2.797  0.2974  0.9765 -0.1011
 3214TIP3    H231134   4.185   6.045   2.717  0.1712  1.9821  0.1332
 3215TIP3   OH231135   2.605   5.967   6.497  0.2765 -0.1246  0.4341
 3215TIP3    H131136   2.514   5.939   6.492  0.1256  0.3664  0.4148
 3215TIP3    H231137   2.652   5.906   6.440 -0.1522  0.0791 -0.1400
 3216TIP3   OH231138   4.217   3.942   0.209  0.0095 -0.1337  0.3530
 3216TIP3    H131139   4.270   3.956   0.130 -0.1653  0.2881  0.3118
 3216TIP3    H231140   4.134   3.985   0.190 -0.5366 -1.1992  0.2258
 3217TIP3   OH231141   5.114   2.147  11.680 -0.4790  0.1007  0.9123
 3217TIP3    H131142   5.035   2.193  11.710 -0.7563  0.5457 -0.4238
 3217TIP3    H231143   5.116   2.067  11.732 -1.0873  0.7034  1.8872
 3218TIP3   OH231144   6.775   1.452  11.932 -0.0843 -0.4881 -0.2111
 3218TIP3    H131145   6.697   1.477  11.883 -0.3884 -1.1820 -0.0864
 3218TIP3    H231146   6.773   1.356  11.934  0.4813 -0.4970  0.2609
 3219TIP3   OH231147   3.013   4.404  12.626  0.5521 -0.0055  0.2459
 3219TIP3    H131148   2.944   4.455  12.668 -0.5773  0.8635 -2.4361
 3219TIP3    H231149   3.054   4.465  12.565  2.5097 -1.0265  0.4621
 3220TIP3   OH231150   4.025   0.920  14.994 -0.2219 -0.4032  0.3579
 3220TIP3    H131151   3.997   0.866  14.920  0.9991 -0.6899  0.0776
 3220TIP3    H231152   4.015   1.010  14.964 -2.6694 -0.4106  0.9717
 3221TIP3   OH231153   3.034   1.569   5.992  0.0576 -0.5485  0.4608
 3221TIP3    H131154   2.988   1.627   6.052  1.7075  2.1248 -0.6596
 3221TIP3    H231155   3.095   1.521   6.048 -1.2953 -1.2211  1.4144
 3222TIP3   OH231156   5.453   0.068  12.750 -0.1707 -0.0045 -0.8211
 3222TIP3    H131157   5.475  -0.021  12.778 -0.2986  0.4481  0.8386
 3222TIP3    H231158   5.359   0.076  12.765 -0.2558  0.2360 -1.4743
 3223TIP3   OH231159   4.824   1.449  16.455 -0.0138  0.0901 -0.0416
 3223TIP3    H131160   4.811   1.525  16.511 -0.6124 -0.6333  0.8442
 3223TIP3    H231161   4.865   1.483  16.376 -0.6909  1.3917  0.1481
 3224TIP3   OH231162   4.366   1.108   4.250  0.4154  0.1620  0.4247
 3224TIP3    H131163   4.337   1.026   4.290 -1.2326 -0.4457 -1.8379
 3224TIP3    H231164   4.442   1.134   4.302 -0.4547 -1.5108  2.7074
 3225TIP3   OH231165   5.810   3.295   2.930  0.0494 -0.0263 -0.3069
 3225TIP3    H131166   5.796   3.375   2.879 -1.3760  0.0428  0.1708
 3225TIP3    H231167   5.896   3.263   2.900 -0.6912  0.0501 -2.7175
 3226TIP3   OH231168   1.198   6.827   2.115  0.5456 -0.2955  0.1662
 3226TIP3    H131169   1.218   6.918   2.090  0.2283 -0.2875 -0.0667
 3226TIP3    H231170   1.164   6.788   2.035 -0.3710 -0.3093  0.5582
 3227TIP3   OH231171   2.356   1.211   1.997 -0.5196  0.7794  0.4757
 3227TIP3    H131172   2.374   1.283   2.058 -1.3783  0.1727  1.4901
 3227TIP3    H231173   2.272   1.175   2.027 -0.7591  0.1976 -0.8265
 3228TIP3   OH231174   0.917   1.059   3.519 -0.1206  0.1079 -0.1033
 3228TIP3    H131175   0.987   1.078   3.582 -0.3854  1.8652 -0.2856
 3228TIP3    H231176   0.891   0.969   3.539  1.5602 -0.2706  0.5666
 3229TIP3   OH231177   0.107   3.742  15.726 -0.6607  0.3981  0.1073
 3229TIP3    H131178   0.076   3.780  15.808  3.5591  1.7258  1.3558
 3229TIP3    H231179   0.115   3.648  15.743  1.2235  0.7993  1.7235
 3230TIP3   OH231180   4.697   0.041   2.763 -0.0945 -0.4834  0.7545
 3230TIP3    H131181   4.729   0.124   2.726 -2.1679  0.1423  0.2568
 3230TIP3    H231182   4.640   0.067   2.835 -3.4731 -1.1904 -1.4438
 3231TIP3   OH231183   1.047   2.899   3.594  0.0020 -0.3783  0.0699
 3231TIP3    H131184   0.970   2.889   3.651  0.9209  0.5636  1.5601
 3231TIP3    H231185   1.010   2.922   3.508 -1.3914 -0.3264  0.6494
 3232TIP3   OH231186   3.694   1.389   4.976 -0.2434  0.4612  0.1339
 3232TIP3    H131187   3.697   1.422   5.066  1.1122  1.5886 -0.2804
 3232TIP3    H231188   3.613   1.425   4.940 -0.2562  0.8957  0.5824
 3233TIP3   OH231189   2.857   0.307  16.388  0.8524 -0.2914 -0.0892
 3233TIP3    H131190   2.768   0.343  16.380  0.9107 -0.1124  0.0808
 3233TIP3    H231191   2.852   0.247  16.462  0.6259 -1.0282 -0.6766
 3234TIP3   OH231192   3.647   4.115   1.333  0.4379 -0.4232  0.2783
 3234TIP3    H131193   3.629   4.138   1.242  0.6219  1.2658  0.6323
 3234TIP3    H231194   3.740   4.136   1.345  0.1753  0.3138  1.1094
 3235TIP3   OH231195   5.050   5.496   5.127  0.3234 -0.3683 -0.1791
 3235TIP3    H131196   4.978   5.500   5.189  1.4269 -1.1107  1.2010
 3235TIP3    H231197   5.010   5.516   5.042 -0.9732  2.0784  0.9195
 3236TIP3   OH231198   5.755   1.683  11.366  0.0071  0.5656  0.1663
 3236TIP3    H131199   5.759   1.761  11.421  1.6064 -0.7594  2.0429
 3236TIP3    H231200   5.662   1.661  11.363 -0.2005  1.1834  1.6101
 3237TIP3   OH231201   0.884   5.327  13.247 -0.1664 -0.0022 -0.3870
 3237TIP3    H131202   0.892   5.250  13.191  1.3648 -0.6140  0.6275
 3237TIP3    H231203   0.966   5.374  13.236  1.2351 -1.3571  3.0278
 3238TIP3   OH231204   0.256   5.568   1.162 -0.0705 -0.0860 -0.1097
 3238TIP3    H131205   0.229   5.660   1.171 -1.1483 -0.2622 -1.1993
 3238TIP3    H231206   0.227   5.527   1.244 -2.0415  0.0251 -0.6858
 3239TIP3   OH231207   4.660   6.367  10.933  0.0069 -0.0707 -0.0017
 3239TIP3    H131208   4.741   6.415  10.953  0.5714 -0.6911 -0.7429
 3239TIP3    H231209   4.686   6.275  10.935 -0.9467 -0.3349  0.8707
 3240TIP3   OH231210   6.201   5.051   2.677  0.8454 -0.2743  0.0121
 3240TIP3    H131211   6.278   5.088   2.722  0.4758  0.6053 -0.0638
 3240TIP3    H231212   6.156   5.127   2.640 -0.8656 -0.6227  1.2926
 3241TIP3   OH231213   1.375   1.994   2.624 -0.8009 -0.2169 -0.1193
 3241TIP3    H131214   1.390   2.063   2.560  0.7222 -0.6228 -0.2502
 3241TIP3    H231215   1.393   1.913   2.576 -1.1773 -0.6180  0.4105
 3242TIP3   OH231216   4.008   5.194   3.539 -0.2838 -0.1560 -0.2194
 3242TIP3    H131217   4.038   5.280   3.510 -0.7679 -0.2485 -1.0370
 3242TIP3    H231218   4.065   5.171   3.613  0.3426  0.5273 -0.4873
 3243TIP3   OH231219   0.966   2.429  16.253 -0.3458  0.4215 -0.3088
 3243TIP3    H131220   1.053   2.427  16.213 -0.0780  0.1586  0.2770
 3243TIP3    H231221   0.976   2.486  16.329 -0.2852 -0.8398  0.6531
 3244TIP3   OH231222   3.021   5.764   5.352  0.2842  0.4496  0.0987
 3244TIP3    H131223   3.040   5.826   5.282  1.7617  1.4047  1.2990
 3244TIP3    H231224   3.060   5.682   5.322  0.0196  0.5775 -0.6291
 3245TIP3   OH231225   4.893   1.610  15.798  0.1630  0.8072 -0.6124
 3245TIP3    H131226   4.920   1.661  15.722  1.1054  1.9492  0.4338
 3245TIP3    H231227   4.805   1.644  15.819 -1.5836 -1.7657 -3.0317
 3246TIP3   OH231228   3.245   2.239   0.540 -0.2020  0.0387  0.0164
 3246TIP3    H131229   3.302   2.164   0.525  1.4370  1.3688 -0.8665
 3246TIP3    H231230   3.297   2.297   0.596 -0.4225  1.5572 -1.2893
 3247TIP3   OH231231   1.594   5.803  14.024 -0.1188 -0.2227  0.8402
 3247TIP3    H131232   1.566   5.894  14.036  0.1082 -0.3910  3.0646
 3247TIP3    H231233   1.515   5.752  14.042 -0.1577 -0.5046 -0.0777
 3248TIP3   OH231234   0.914   5.689   1.706 -0.7206  0.1604 -0.0359
 3248TIP3    H131235   0.903   5.762   1.768  1.9457  0.7153 -0.0963
 3248TIP3    H231236   0.952   5.730   1.628 -0.0979 -1.1426 -0.4376
 3249TIP3   OH231237   6.775   6.547  14.784  0.0032  0.3892  0.1572
 3249TIP3    H131238   6.739   6.610  14.722 -1.1450  0.3200  0.7219
 3249TIP3    H231239   6.869   6.548  14.768 -0.2361  0.6097 -1.3458
 3250TIP3   OH231240   3.397   3.024  16.102  0.7299 -1.2580  0.4302
 3250TIP3    H131241   3.411   3.039  16.195  2.2827  3.7158 -0.2931
 3250TIP3    H231242   3.485   3.014  16.066  0.3465 -0.6300 -0.7304
 3251TIP3   OH231243   4.178   2.417  13.754  0.2815 -0.0900  0.3591
 3251TIP3    H131244   4.111   2.459  13.807  0.2538 -0.5539  0.6900
 3251TIP3    H231245   4.207   2.342  13.805  2.6010  1.2872  1.2225
 3252TIP3   OH231246   6.489   5.938  15.453 -0.4546 -0.0157  0.4516
 3252TIP3    H131247   6.451   6.011  15.403 -1.0630 -0.2071  0.6265
 3252TIP3    H231248   6.517   5.977  15.535 -2.8318 -0.3578  1.4970
 3253TIP3   OH231249   6.031   6.211  13.617  0.0948 -0.2314 -0.3168
 3253TIP3    H131250   6.077   6.132  13.646  0.2442  0.6156  2.0032
 3253TIP3    H231251   6.085   6.245  13.546  2.2680 -0.1269  1.2760
 3254TIP3   OH231252   5.220   3.112   2.325 -0.6517 -0.3979  0.0413
 3254TIP3    H131253   5.293   3.174   2.332 -1.1084  0.0565  0.8960
 3254TIP3    H231254   5.242   3.043   2.388  0.5522 -1.8803 -1.8768
 3255TIP3   OH231255   0.271   4.044  14.295  0.1272 -0.0131  0.6421
 3255TIP3    H131256   0.339   4.088  14.346  0.4453  0.6271 -0.3264
 3255TIP3    H231257   0.260   4.098  14.217 -2.0391  0.3257  1.1289
 3256TIP3   OH231258   1.763   3.739   3.005  0.5504  0.5468 -0.0904
 3256TIP3    H131259   1.688   3.797   3.024 -0.8678 -1.4199  0.6346
 3256TIP3    H231260   1.800   3.721   3.091  0.5074 -0.2270 -0.2345
 3257TIP3   OH231261   3.215   4.153   1.999 -0.3040  0.2228  0.0474
 3257TIP3    H131262   3.264   4.152   1.917  0.5192 -1.0873  0.5285
 3257TIP3    H231263   3.283   4.158   2.067 -0.8202 -1.3959  0.7260
 3258TIP3   OH231264   6.071   4.279  15.120  0.7957  0.2736 -0.5119
 3258TIP3    H131265   6.144   4.338  15.138 -0.4562  1.1724  2.1119
 3258TIP3    H231266   6.051   4.294  15.027  1.4731  2.8943 -0.3245
 3259TIP3   OH231267   3.861   4.121   1.180  0.1708 -0.2281 -0.0974
 3259TIP3    H131268   3.871   4.158   1.092  2.3255  0.7969  0.5006
 3259TIP3    H231269   3.868   4.026   1.167  2.7273 -0.0130 -0.8653
 3260TIP3   OH231270   4.847   0.787   4.316  0.4542  0.0799 -0.6088
 3260TIP3    H131271   4.904   0.718   4.282  1.2763  0.8815 -0.9057
 3260TIP3    H231272   4.803   0.822   4.238  0.2441  0.0792 -0.4907
 3261TIP3   OH231273   5.669   6.109   5.363  0.3116 -0.4843 -0.9401
 3261TIP3    H131274   5.651   6.052   5.288 -1.1715  0.8262 -1.6409
 3261TIP3    H231275   5.589   6.106   5.416  1.7252 -2.2635  1.2649
 3262TIP3   OH231276   1.881   1.386   4.609 -0.3146 -0.3860  0.7205
 3262TIP3    H131277   1.854   1.446   4.540  2.3428 -1.1642 -1.1488
 3262TIP3    H231278   1.827   1.308   4.595 -0.6555 -0.0829  0.3123
 3263TIP3   OH231279   0.167   2.668  13.585  0.5168  0.1538 -0.4047
 3263TIP3    H131280   0.169   2.711  13.670  1.3711  0.7026 -0.6950
 3263TIP3    H231281   0.121   2.729  13.528 -0.7068 -0.5278 -0.1884
 3264TIP3   OH231282   0.230   6.352   0.444  0.0520  0.0148 -0.4413
 3264TIP3    H131283   0.258   6.396   0.364 -1.0414 -0.9656 -1.3918
 3264TIP3    H231284   0.258   6.410   0.514  0.5671  1.1542 -1.5578
 3265TIP3   OH231285   6.038   3.103   0.422  0.0188 -0.3551  0.8061
 3265TIP3    H131286   5.957   3.089   0.374 -1.4641 -0.5226  3.2191
 3265TIP3    H231287   6.053   3.022   0.470  2.5080 -0.9073 -0.6845
 3266TIP3   OH231288   4.439   6.117  12.735 -0.0561 -0.0687 -0.3170
 3266TIP3    H131289   4.500   6.191  12.726 -1.2344  0.7810 -1.5426
 3266TIP3    H231290   4.353   6.158  12.744 -0.4977 -1.2641  1.2538
 3267TIP3   OH231291   1.914   2.293   4.649  0.3250  0.1572 -0.4027
 3267TIP3    H131292   1.938   2.299   4.741 -0.3377 -0.9818 -0.1340
 3267TIP3    H231293   1.834   2.346   4.641  1.7961  2.4409 -0.9167
 3268TIP3   OH231294   6.225   1.092   2.451  0.2045  0.4998 -0.2354
 3268TIP3    H131295   6.177   1.142   2.517  0.7588  2.4023 -1.1944
 3268TIP3    H231296   6.301   1.057   2.496  0.0859  0.9739  0.3343
 3269TIP3   OH231297   6.525   1.753   3.871 -0.1079  0.4962 -0.3914
 3269TIP3    H131298   6.506   1.660   3.858  1.5087 -0.2589  1.9385
 3269TIP3    H231299   6.610   1.767   3.828 -0.8316  1.2184 -1.6588
 3270TIP3   OH231300   4.299   0.840   3.386  0.0463 -0.0162 -0.1820
 3270TIP3    H131301   4.275   0.750   3.406  0.5297 -0.4326 -1.3994
 3270TIP3    H231302   4.354   0.834   3.308  1.7804  1.1586  0.8961
 3271TIP3   OH231303   6.386   6.256   3.951 -0.6873 -0.0504 -0.4416
 3271TIP3    H131304   6.357   6.166   3.933  0.8938 -0.3194 -1.9174
 3271TIP3    H231305   6.480   6.254   3.933 -0.3980  1.6325  0.6889
 3272TIP3   OH231306   5.304   0.595   0.760  0.8056  0.2209 -0.5149
 3272TIP3    H131307   5.375   0.533   0.774  1.9418  1.5600 -0.1098
 3272TIP3    H231308   5.311   0.657   0.832 -1.6635 -0.3631  0.3203
 3273TIP3   OH231309   4.655   1.115  13.917  0.9191  0.5593  0.2366
 3273TIP3    H131310   4.599   1.162  13.977  0.4600  3.2384 -2.0846
 3273TIP3    H231311   4.620   1.025  13.916 -2.0663  1.6186  0.4048
 3274TIP3   OH231312   5.073   3.501  15.147  0.0558  0.1082  0.3476
 3274TIP3    H131313   5.082   3.521  15.053  0.2299  0.3721  0.4198
 3274TIP3    H231314   5.072   3.405  15.151 -1.5063  0.0810 -0.0708
 3275TIP3   OH231315   6.017   0.878   5.150  0.5280  0.0152 -0.1102
 3275TIP3    H131316   5.928   0.912   5.147 -0.5110 -2.4653 -2.7107
 3275TIP3    H231317   6.015   0.811   5.218  0.3409 -0.1654 -0.2926
 3276TIP3   OH231318   4.943   5.524   2.071 -0.0952  0.0534 -0.3060
 3276TIP3    H131319   4.922   5.561   1.985 -1.0385 -0.5822 -0.3670
 3276TIP3    H231320   4.906   5.587   2.133  2.0478  1.3836 -0.2949
 3277TIP3   OH231321   5.938   6.181   5.723 -0.1020 -0.1717  0.5966
 3277TIP3    H131322   5.938   6.131   5.642 -1.5063 -0.8205  0.9590
 3277TIP3    H231323   5.848   6.213   5.731 -0.1381 -0.5911  2.1702
 3278TIP3   OH231324   5.992   0.197   3.002 -0.1539  0.1702  0.4159
 3278TIP3    H131325   5.981   0.291   3.019  0.3362  0.5338 -1.1459
 3278TIP3    H231326   6.080   0.190   2.965 -0.7999 -0.6477 -1.0601
 3279TIP3   OH231327   6.308   5.920   2.123  0.2145  0.3963  0.0031
 3279TIP3    H131328   6.370   5.992   2.133  1.5633 -0.7255  0.1332
 3279TIP3    H231329   6.239   5.938   2.186  1.3806  0.7210  1.2408
 3280TIP3   OH231330   5.731   2.146   5.025 -0.8380  0.2124  0.5555
 3280TIP3    H131331   5.812   2.146   4.974  0.4504 -0.4300  2.4985
 3280TIP3    H231332   5.727   2.234   5.064 -1.7863  0.6795 -0.5023
 3281TIP3   OH231333   2.564   3.714   0.582  0.2741  0.2917  0.2217
 3281TIP3    H131334   2.476   3.689   0.555 -0.0430  0.2762  1.2283
 3281TIP3    H231335   2.550   3.782   0.648  0.9093 -1.1804  1.9530
 3282TIP3   OH231336   3.382   5.843  14.470 -0.2170 -0.5776 -0.3049
 3282TIP3    H131337   3.293   5.840  14.505 -0.6742 -2.2339 -1.4754
 3282TIP3    H231338   3.414   5.930  14.494 -0.9909 -1.0376  2.8471
 3283TIP3   OH231339   1.060   0.661  16.689  0.4300 -0.5438 -0.0199
 3283TIP3    H131340   1.130   0.631  16.631  0.0992  0.2634 -0.8702
 3283TIP3    H231341   1.076   0.755  16.699  1.0036 -0.8090  1.9583
 3284TIP3   OH231342   2.652   2.497   3.346 -0.1193 -0.1227 -0.0471
 3284TIP3    H131343   2.728   2.496   3.405  0.4909  1.6865 -0.7397
 3284TIP3    H231344   2.607   2.414   3.364  1.7377 -1.0222  0.7380
 3285TIP3   OH231345   5.911   2.811  14.809  0.2790 -0.0231 -0.8459
 3285TIP3    H131346   5.890   2.856  14.728 -2.7118 -0.9502 -0.7180
 3285TIP3    H231347   5.905   2.718  14.787  0.4334 -0.2938  0.1937
 3286TIP3   OH231348   3.632   6.740   2.411 -0.8348  0.2407 -0.2504
 3286TIP3    H131349   3.565   6.734   2.343 -2.2450  0.8796  1.0167
 3286TIP3    H231350   3.710   6.770   2.366 -1.2342 -1.0199 -1.8672
 3287TIP3   OH231351   1.735   1.021  13.407  0.8393 -0.7412 -0.1994
 3287TIP3    H131352   1.774   1.103  13.376 -0.2193  0.0490  0.4941
 3287TIP3    H231353   1.641   1.038  13.408  0.5332 -2.2569 -0.8433
 3288TIP3   OH231354   0.265   2.890  16.014 -0.2779  0.8252  0.3468
 3288TIP3    H131355   0.324   2.849  15.950 -1.6340  1.0131 -1.1004
 3288TIP3    H231356   0.288   2.850  16.098 -0.4547 -1.7360 -0.7309
 3289TIP3   OH231357   6.306   3.473  14.138  0.4814 -0.3710  0.4339
 3289TIP3    H131358   6.334   3.540  14.076  0.2359 -0.8753 -0.2376
 3289TIP3    H231359   6.211   3.469  14.127  0.5224 -1.0298  0.2471
 3290TIP3   OH231360   4.765   6.466   2.591  0.7888  0.6445  0.4721
 3290TIP3    H131361   4.731   6.516   2.516 -0.7871  0.0111  0.7060
 3290TIP3    H231362   4.706   6.391   2.597  1.4646  0.1905  1.7885
 3291TIP3   OH231363   1.197   2.531   2.306  0.1233 -0.5767 -0.3361
 3291TIP3    H131364   1.173   2.540   2.398 -2.1995 -0.8555 -0.8359
 3291TIP3    H231365   1.166   2.613   2.266  1.1866 -0.4206 -0.8755
 3292TIP3   OH231366   3.099   2.020  15.256 -0.1680 -0.1818 -0.3352
 3292TIP3    H131367   3.084   1.946  15.316  0.6571  0.5158  0.7737
 3292TIP3    H231368   3.022   2.076  15.269  1.4447  1.6087  2.6515
 3293TIP3   OH231369   6.603   1.730  14.193  0.5935 -0.2271 -0.0614
 3293TIP3    H131370   6.617   1.824  14.200  2.7988 -0.4359 -0.8865
 3293TIP3    H231371   6.648   1.693  14.269  1.8804 -0.7491 -1.0424
 3294TIP3   OH231372   2.691   1.625  11.675 -0.8297  0.1407 -0.4911
 3294TIP3    H131373   2.685   1.566  11.750 -1.3264 -0.1993 -0.7886
 3294TIP3    H231374   2.610   1.610  11.626  0.4114 -1.2378 -2.2659
 3295TIP3   OH231375   2.532   5.271   0.591  0.4373  0.2428 -0.5534
 3295TIP3    H131376   2.522   5.191   0.541  1.3832 -0.1131 -0.1990
 3295TIP3    H231377   2.626   5.275   0.611  0.0801  0.3708  1.1908
 3296TIP3   OH231378   4.892   4.430  12.247 -0.2057 -0.6319 -0.3079
 3296TIP3    H131379   4.860   4.440  12.337  0.1358 -0.6757 -0.1759
 3296TIP3    H231380   4.844   4.495  12.197  0.2139 -0.0031  0.0753
 3297TIP3   OH231381   0.872   6.166  16.727 -0.0830 -0.3178  0.2346
 3297TIP3    H131382   0.787   6.144  16.764  0.7917 -1.6443  1.5577
 3297TIP3    H231383   0.900   6.244  16.776  0.5743 -1.4112  1.6592
 3298TIP3   OH231384   3.208   1.242  10.384  0.1561 -0.0477  0.0487
 3298TIP3    H131385   3.210   1.337  10.375  1.2766 -0.1547 -1.0756
 3298TIP3    H231386   3.116   1.221  10.402 -0.3164  1.1641 -0.8290
 3299TIP3   OH231387   1.907   1.059   4.329  0.8382  0.1075 -0.4345
 3299TIP3    H131388   1.985   1.058   4.274  0.3889  0.4820 -1.0957
 3299TIP3    H231389   1.906   0.973   4.370  1.8262  0.2529 -0.0814
 3300TIP3   OH231390   3.573   2.159  14.751  0.1459  0.1571 -0.5964
 3300TIP3    H131391   3.636   2.227  14.728 -1.4265  1.2951 -1.7502
 3300TIP3    H231392   3.489   2.191  14.716 -1.0797 -1.3015  0.8317
 3301TIP3   OH231393   3.349   3.338   2.977 -1.0376 -0.3404  0.1136
 3301TIP3    H131394   3.323   3.421   3.015  0.1632 -0.4171  1.1841
 3301TIP3    H231395   3.316   3.272   3.037  0.0473 -0.5096  0.5523
 3302TIP3   OH231396   5.832   0.339   4.795  0.1300  0.2885 -0.5068
 3302TIP3    H131397   5.922   0.369   4.798  0.1087  0.4319 -1.1586
 3302TIP3    H231398   5.794   0.384   4.720 -0.2666 -0.3583 -0.7018
 3303TIP3   OH231399   6.693   5.679  12.851  0.3220  0.7890  0.7080
 3303TIP3    H131400   6.771   5.704  12.800  2.0709 -0.8818  2.3927
 3303TIP3    H231401   6.724   5.673  12.941 -2.4820  2.8219  1.9411
 3304TIP3   OH231402   0.498   6.077   5.118  0.2951 -0.0453 -0.4098
 3304TIP3    H131403   0.555   6.104   5.046  1.4695  3.0931  1.4770
 3304TIP3    H231404   0.432   6.146   5.123 -0.1526 -0.5444  1.0443
 3305TIP3   OH231405   6.272   6.414  16.415 -0.4004  0.0805 -0.2394
 3305TIP3    H131406   6.199   6.470  16.441 -0.0100  1.5419 -2.0975
 3305TIP3    H231407   6.349   6.470  16.420  0.9733 -1.8234  3.1447
 3306TIP3   OH231408   3.481   0.751   4.895 -0.0921  0.7408  0.1224
 3306TIP3    H131409   3.517   0.735   4.808  0.3156  0.7005  0.2954
 3306TIP3    H231410   3.388   0.729   4.887  0.2634 -0.8416  0.1122
 3307TIP3   OH231411   0.004   2.788  11.548 -0.1916 -0.5373 -0.1032
 3307TIP3    H131412   0.043   2.840  11.477  1.0025  0.1096  0.9778
 3307TIP3    H231413   0.021   2.697  11.524 -1.3647 -0.4187 -1.4952
 3308TIP3   OH231414   3.170   6.505   0.399 -0.2514  0.2989  0.0075
 3308TIP3    H131415   3.078   6.501   0.427 -0.6435  1.2943 -1.0792
 3308TIP3    H231416   3.217   6.533   0.477 -0.7497 -0.9422  0.7858
 3309TIP3   OH231417   4.848   0.193   6.121 -0.0103 -0.6639  0.2473
 3309TIP3    H131418   4.903   0.129   6.165 -0.7430 -0.3421  1.7082
 3309TIP3    H231419   4.819   0.252   6.191  0.0002  0.7913 -0.9205
 3310TIP3   OH231420   5.525   2.310  12.158  0.6125  0.6157  0.2244
 3310TIP3    H131421   5.507   2.404  12.163  0.6210  0.5901  0.7523
 3310TIP3    H231422   5.472   2.271  12.228  2.0585  0.4422  1.2724
 3311TIP3   OH231423   2.647   2.189  12.337  0.4887  0.2486  0.3186
 3311TIP3    H131424   2.640   2.209  12.243  2.2243  0.7229  0.2637
 3311TIP3    H231425   2.721   2.129  12.344 -1.6315 -2.5056  1.0701
 3312TIP3   OH231426   4.304   2.143  11.599  0.0639 -0.5100  0.6624
 3312TIP3    H131427   4.237   2.112  11.660 -2.3944 -1.4922 -2.3206
 3312TIP3    H231428   4.264   2.218  11.555  1.3760 -0.3932 -0.4127
 3313TIP3   OH231429   2.377   3.500  10.850 -0.0231 -0.3715  0.2494
 3313TIP3    H131430   2.464   3.539  10.845 -0.3763  0.4070  0.0584
 3313TIP3    H231431   2.357   3.473  10.761 -0.5934  0.8504 -0.0197
 3314TIP3   OH231432   3.689   4.117   3.101 -0.0084  0.2604 -0.1364
 3314TIP3    H131433   3.738   4.057   3.044 -0.1071  0.7216 -0.7144
 3314TIP3    H231434   3.601   4.120   3.063 -0.5107 -0.5447  0.8840
 3315TIP3   OH231435   1.630   0.857  11.820 -0.6947  0.5137 -0.8922
 3315TIP3    H131436   1.558   0.795  11.829 -1.4793  1.6906  2.2485
 3315TIP3    H231437   1.605   0.931  11.876  1.6883  2.2285 -1.9231
 3316TIP3   OH231438   5.167   4.858  11.945  0.0242 -0.9038  0.6559
 3316TIP3    H131439   5.192   4.890  11.859  0.2756  2.1232  1.7264
 3316TIP3    H231440   5.092   4.912  11.970  0.0928 -1.5484  2.4187
 3317TIP3   OH231441   2.296   2.039  11.731  0.0333  0.4464 -0.0776
 3317TIP3    H131442   2.219   2.029  11.675  0.0953  1.7902 -0.4365
 3317TIP3    H231443   2.365   1.990  11.686 -0.3243  0.1896 -0.3483
 3318TIP3   OH231444   2.635   1.198   1.382  0.3843 -0.4570  0.0980
 3318TIP3    H131445   2.682   1.128   1.428  0.4003  0.7370  1.9962
 3318TIP3    H231446   2.615   1.262   1.450  0.1940  1.3068 -1.5398
 3319TIP3   OH231447   1.480   0.728   6.490 -0.2218 -0.3842 -0.0245
 3319TIP3    H131448   1.436   0.760   6.568  0.0271  0.5160 -0.2399
 3319TIP3    H231449   1.525   0.649   6.518 -0.1048 -0.0470  0.7533
 3320TIP3   OH231450   2.761   5.091  16.375  0.1031 -0.2403 -0.0222
 3320TIP3    H131451   2.851   5.115  16.398  0.3312 -0.6127 -0.5134
 3320TIP3    H231452   2.714   5.093  16.458  0.0247  2.1978 -0.0438
 3321TIP3   OH231453   2.767   2.465  16.594  0.4542  0.0997  0.5722
 3321TIP3    H131454   2.703   2.510  16.539 -0.1182 -0.3784  0.8308
 3321TIP3    H231455   2.831   2.430  16.532 -0.0204 -0.1802  0.2317
 3322TIP3   OH231456   6.616   0.349  11.598 -0.2369  0.4128  0.4525
 3322TIP3    H131457   6.641   0.400  11.521  1.2410 -1.5345 -0.4467
 3322TIP3    H231458   6.563   0.277  11.562 -1.8037  0.9156  1.6199
 3323TIP3   OH231459   1.958   0.984  16.441 -0.3201 -1.0158  0.7188
 3323TIP3    H131460   1.948   1.044  16.366 -2.8834 -2.5750 -0.3572
 3323TIP3    H231461   1.952   1.040  16.518  4.1063  0.8884 -0.0404
 3324TIP3   OH231462   5.610   5.386   3.349  0.1996  0.4031  0.1435
 3324TIP3    H131463   5.539   5.322   3.344  0.7633 -0.1852 -0.8246
 3324TIP3    H231464   5.571   5.468   3.320  0.1664 -0.1634 -1.5061
 3325TIP3   OH231465   0.531   4.553   3.516  0.6742  0.0836 -0.1810
 3325TIP3    H131466   0.621   4.518   3.513  1.1591  1.0659  1.3780
 3325TIP3    H231467   0.524   4.592   3.604 -0.5358  1.9771 -1.0557
 3326TIP3   OH231468   2.548   5.619  14.345  0.2930 -0.1319 -0.1331
 3326TIP3    H131469   2.600   5.555  14.297  0.0916  0.3682 -1.0432
 3326TIP3    H231470   2.601   5.640  14.422 -0.8074 -3.4045  1.7330
 3327TIP3   OH231471   4.037   6.514   5.746 -0.2202 -0.2616  0.2104
 3327TIP3    H131472   4.000   6.427   5.764  0.5001 -0.5859  0.1381
 3327TIP3    H231473   4.011   6.567   5.821 -0.3669 -0.6293  0.4258
 3328TIP3   OH231474   0.532   5.791  16.113  0.4067  0.5217 -0.5824
 3328TIP3    H131475   0.625   5.784  16.090  0.5556 -0.9653  0.3106
 3328TIP3    H231476   0.527   5.872  16.164  1.5313 -0.1248  0.6234
 3329TIP3   OH231477   2.480   0.009  14.942  0.1807 -0.3533  0.0953
 3329TIP3    H131478   2.459  -0.006  15.034 -1.4073  0.2826 -0.1245
 3329TIP3    H231479   2.411   0.067  14.911 -0.0301 -1.5229 -1.8124
 3330TIP3   OH231480   4.833   3.374  14.449  0.4079 -0.2929 -0.2719
 3330TIP3    H131481   4.753   3.415  14.483  0.8799  0.0205  0.4899
 3330TIP3    H231482   4.802   3.309  14.386 -0.3708  1.3914 -1.7154
 3331TIP3   OH231483   6.646   3.915  13.325  0.4452  0.0206  0.6263
 3331TIP3    H131484   6.595   3.841  13.358 -0.4062  1.1596  1.9578
 3331TIP3    H231485   6.631   3.914  13.231 -1.4759 -0.1090  0.8936
 3332TIP3   OH231486   2.472   4.888  10.850  0.6726 -0.2329 -0.0199
 3332TIP3    H131487   2.541   4.854  10.908 -0.3707  0.6574  1.8464
 3332TIP3    H231488   2.511   4.963  10.807  0.3473  1.5811  2.6121
 3333TIP3   OH231489   6.303   2.895   3.218 -0.7083 -0.3163 -0.5994
 3333TIP3    H131490   6.258   2.857   3.143 -0.2764  0.9673 -1.5435
 3333TIP3    H231491   6.245   2.965   3.248 -1.4795 -1.5990  1.0946
 3334TIP3   OH231492   3.977   5.804   2.667  0.0725 -0.3821  0.3733
 3334TIP3    H131493   3.888   5.788   2.700 -0.4676  0.3795 -0.6626
 3334TIP3    H231494   4.000   5.890   2.702 -0.1768  0.0579 -0.5057
 3335TIP3   OH231495   5.215   0.843  13.592  0.1088 -0.0968 -0.0690
 3335TIP3    H131496   5.293   0.896  13.575 -0.0133 -0.3961 -1.6435
 3335TIP3    H231497   5.243   0.782  13.661  1.4814 -0.6229 -1.0441
 3336TIP3   OH231498   4.004   0.995  12.328  0.2589  0.1074 -0.5652
 3336TIP3    H131499   3.981   0.976  12.419  0.4732 -0.2564 -0.5828
 3336TIP3    H231500   4.047   1.080  12.330 -1.9817  1.3229 -0.6569
 3337TIP3   OH231501   0.063   0.620  12.246  0.1803  0.4351  0.0865
 3337TIP3    H131502  -0.019   0.658  12.214  0.7011  0.1010 -1.7576
 3337TIP3    H231503   0.116   0.607  12.168  0.9062 -1.9824  0.8856
 3338TIP3   OH231504   1.797   2.898  15.240 -0.2271 -0.1800  0.0929
 3338TIP3    H131505   1.784   2.924  15.331  1.2904 -1.1143  0.6181
 3338TIP3    H231506   1.784   2.803  15.239 -0.6563 -0.1293 -0.7616
 3339TIP3   OH231507   5.566   2.510   3.978 -0.3537  0.0471  0.1874
 3339TIP3    H131508   5.621   2.477   3.906  0.7692  0.0267  1.0308
 3339TIP3    H231509   5.584   2.452   4.051  0.6100  1.6614  1.2862
 3340TIP3   OH231510   1.884   3.748   5.785 -0.1946 -1.1538 -0.2562
 3340TIP3    H131511   1.813   3.755   5.721 -1.0661 -2.4173  0.5324
 3340TIP3    H231512   1.866   3.817   5.849  0.7838  0.2391 -1.4279
 3341TIP3   OH231513   3.481   4.740   6.119 -0.4798  0.1257  0.0281
 3341TIP3    H131514   3.410   4.710   6.176  0.2973 -1.6303  0.1384
 3341TIP3    H231515   3.557   4.743   6.177 -0.6429  3.5153  0.3152
 3342TIP3   OH231516   0.093   6.679  12.155 -0.1844  0.5771  0.4123
 3342TIP3    H131517   0.152   6.709  12.086 -0.6497  0.8309  0.1236
 3342TIP3    H231518   0.121   6.725  12.234  2.4065 -2.0049  1.1801
 3343TIP3   OH231519   0.687   2.372   1.775  0.0883  0.4824  0.0960
 3343TIP3    H131520   0.675   2.284   1.810 -2.1883 -0.7992 -3.3813
 3343TIP3    H231521   0.781   2.380   1.762  0.5279 -0.6537  2.1900
 3344TIP3   OH231522   0.866   5.992  17.023  0.2636  0.2587  0.0240
 3344TIP3    H131523   0.849   6.085  17.010  2.6804  0.7803  0.1255
 3344TIP3    H231524   0.852   5.953  16.936  0.9037  1.0250 -0.4365
 3345TIP3   OH231525   6.428   1.966   4.576 -0.4348 -0.1241  0.0612
 3345TIP3    H131526   6.410   1.983   4.483 -0.6896 -0.2106  0.0922
 3345TIP3    H231527   6.503   1.907   4.576 -0.0055  0.4173 -0.0684
 3346TIP3   OH231528   5.501   2.049   5.145  0.3821  0.1723  0.3808
 3346TIP3    H131529   5.481   2.132   5.188  0.5206  1.0272 -1.1128
 3346TIP3    H231530   5.592   2.059   5.115  0.6213 -0.7887  0.7455
 3347TIP3   OH231531   4.258   5.874   5.953  0.4465  0.2348 -0.0417
 3347TIP3    H131532   4.207   5.887   5.873  1.0288  1.7633 -0.1962
 3347TIP3    H231533   4.197   5.893   6.023  0.1781 -0.2097 -0.1548
 3348TIP3   OH231534   0.122   3.196   3.334 -0.3113 -0.3034 -0.2789
 3348TIP3    H131535   0.175   3.117   3.344 -0.0541 -0.0338  0.5960
 3348TIP3    H231536   0.180   3.258   3.289  0.1576  0.0115  0.7300
 3349TIP3   OH231537   6.377   6.576   2.791  0.2670  0.2288  0.2456
 3349TIP3    H131538   6.373   6.480   2.799 -0.9764  0.3829  5.0707
 3349TIP3    H231539   6.286   6.605   2.800  0.9041  1.7830  3.2458
 3350TIP3   OH231540   1.860   6.571  15.883  0.5678  0.3638  0.6612
 3350TIP3    H131541   1.854   6.496  15.824 -0.0615  0.2350  0.8743
 3350TIP3    H231542   1.770   6.604  15.889 -0.3211 -2.0783  4.6629
 3351TIP3   OH231543   3.979   1.668  12.710 -0.3674 -0.6231 -0.1775
 3351TIP3    H131544   4.020   1.719  12.780 -2.5527  0.5049  0.3888
 3351TIP3    H231545   4.051   1.645  12.652  0.9655  1.9939  0.2642
 3352TIP3   OH231546   1.915   0.138   4.413  0.0882 -0.4808 -0.2856
 3352TIP3    H131547   1.902   0.061   4.469  0.5564 -1.5538 -1.6047
 3352TIP3    H231548   1.949   0.205   4.472  0.6751 -1.6076  0.6955
 3353TIP3   OH231549   2.035   1.836  12.477 -0.4159  0.6015  0.1273
 3353TIP3    H131550   2.088   1.807  12.551  1.4154 -0.7292 -1.6035
 3353TIP3    H231551   2.091   1.897  12.430 -0.2843 -0.9795 -1.8611
 3354TIP3   OH231552   5.831   0.375   5.276 -0.0566 -0.3419 -0.1165
 3354TIP3    H131553   5.801   0.411   5.360 -2.7177 -0.2843 -0.9793
 3354TIP3    H231554   5.826   0.450   5.216  1.3604 -0.4954 -0.4415
 3355TIP3   OH231555   2.124   2.591   0.434  0.6333  0.5555 -0.0507
 3355TIP3    H131556   2.209   2.557   0.461  1.1787  0.7283 -1.4488
 3355TIP3    H231557   2.119   2.679   0.472  1.3903  0.8143 -0.5303
 3356TIP3   OH231558   3.934   1.261   0.114 -0.4161 -0.1345 -0.3564
 3356TIP3    H131559   3.968   1.330   0.171 -2.7334  0.2815  0.6454
 3356TIP3    H231560   4.010   1.208   0.091  1.4220  2.5675 -0.9623
 3357TIP3   OH231561   4.711   2.930  11.832  0.0307  0.4140 -0.0436
 3357TIP3    H131562   4.729   2.880  11.912 -0.3936  2.6143  1.5269
 3357TIP3    H231563   4.632   2.890  11.797  1.8444 -2.5496 -1.1634
 3358TIP3   OH231564   4.743   0.296   0.444 -0.2524  0.1792  0.7233
 3358TIP3    H131565   4.785   0.337   0.368  1.8511 -0.2436  1.5823
 3358TIP3    H231566   4.761   0.357   0.516  0.1532 -0.7227  1.3938
 3359TIP3   OH231567   2.942   2.243  14.988  0.2181  0.2523 -0.6675
 3359TIP3    H131568   2.938   2.149  14.974  0.7727  0.2315 -0.7213
 3359TIP3    H231569   2.957   2.280  14.901  0.1322  0.3780 -0.6289
 3360TIP3   OH231570   5.555   2.357   2.337 -0.1419  0.3696  0.2387
 3360TIP3    H131571   5.545   2.269   2.303  1.2386  0.1525  0.3448
 3360TIP3    H231572   5.646   2.362   2.367  0.1476  2.1628 -0.7634
 3361TIP3   OH231573   4.176   5.733  11.475  0.0051 -0.0933  0.3211
 3361TIP3    H131574   4.117   5.804  11.501 -0.7925 -0.8133  0.5122
 3361TIP3    H231575   4.141   5.656  11.518  0.6975 -0.6655 -0.1231
 3362TIP3   OH231576   1.187   0.596  11.398 -0.2800 -0.1816 -0.1426
 3362TIP3    H131577   1.173   0.541  11.475 -1.9948 -0.9856 -0.9853
 3362TIP3    H231578   1.102   0.598  11.354 -0.0487  2.4142 -0.6310
 3363TIP3   OH231579   6.698   0.665   5.119  0.1827  0.0595 -0.5870
 3363TIP3    H131580   6.668   0.756   5.125  1.4327  0.5032 -0.6818
 3363TIP3    H231581   6.651   0.629   5.044 -1.4876  0.1402  0.3783
 3364TIP3   OH231582   5.925   5.071  16.558 -0.2039  0.3552  0.8247
 3364TIP3    H131583   5.943   5.114  16.642  0.2625  0.6095  0.6020
 3364TIP3    H231584   5.832   5.049  16.562 -1.0085  3.1534  0.1864
 3365TIP3   OH231585   0.678   2.708  15.338  0.1470  0.6791 -0.3083
 3365TIP3    H131586   0.750   2.661  15.297 -0.1924 -0.4560  0.3550
 3365TIP3    H231587   0.721   2.769  15.399  0.5625 -0.3496  0.4668
 3366TIP3   OH231588   2.401   4.364   0.355 -0.0298 -0.1950 -0.4650
 3366TIP3    H131589   2.422   4.273   0.337 -3.0664 -0.9892 -0.5047
 3366TIP3    H231590   2.474   4.396   0.408  2.5664 -1.7254 -2.8291
 3367TIP3   OH231591   0.666   0.549   0.194 -0.2081  0.2773 -0.4591
 3367TIP3    H131592   0.655   0.570   0.287  0.1915  1.6496 -0.6988
 3367TIP3    H231593   0.626   0.623   0.148  1.4819  0.6751 -1.3694
 3368TIP3   OH231594   6.353   2.937   1.602  0.0618 -0.3754  0.1602
 3368TIP3    H131595   6.340   2.843   1.589 -0.5987 -0.3658  0.7613
 3368TIP3    H231596   6.435   2.955   1.555  0.1602 -1.2301 -0.0253
 3369TIP3   OH231597   4.780   5.989   1.345  0.2366  0.0747  0.0190
 3369TIP3    H131598   4.711   6.030   1.397 -0.1531 -2.2892  1.4663
 3369TIP3    H231599   4.849   5.968   1.408  2.0674  1.7428 -1.2925
 3370TIP3   OH231600   4.026   5.565   4.217  0.1074  0.0810  0.2643
 3370TIP3    H131601   3.937   5.562   4.184  0.1717  2.2616 -0.2359
 3370TIP3    H231602   4.059   5.475   4.208 -2.4910 -1.1573  1.8991
 3371TIP3   OH231603   4.325   6.007   2.267 -0.1871 -0.3298  0.2049
 3371TIP3    H131604   4.296   6.047   2.185 -0.1964 -0.5381  0.1075
 3371TIP3    H231605   4.338   5.915   2.246 -0.4538 -0.4375  0.5060
 3372TIP3   OH231606   1.393   4.064   0.998 -0.0340 -0.2465  0.0356
 3372TIP3    H131607   1.396   3.973   0.970  0.4688  0.4226 -2.2243
 3372TIP3    H231608   1.388   4.115   0.917 -1.4713  1.7237  1.2552
 3373TIP3   OH231609   1.690   5.948   1.328  0.1984  0.1896  0.7872
 3373TIP3    H131610   1.634   5.993   1.392  0.0752  0.7209  0.3210
 3373TIP3    H231611   1.679   5.855   1.347 -0.6007  0.3005  0.9154
 3374TIP3   OH231612   3.037   3.227   6.378  0.3740 -0.0616  0.1086
 3374TIP3    H131613   3.093   3.157   6.343 -0.3887 -0.7363  0.2052
 3374TIP3    H231614   2.959   3.181   6.410 -0.2311  0.8637 -0.0143
 3375TIP3   OH231615   0.180   1.791  14.543 -0.2019 -0.2689  0.0474
 3375TIP3    H131616   0.160   1.863  14.482  0.8402 -0.2607 -0.3008
 3375TIP3    H231617   0.200   1.717  14.487  5.5913  0.9054  0.0163
 3376TIP3   OH231618   5.626   1.194  16.267  0.7308  0.2986  0.2413
 3376TIP3    H131619   5.543   1.147  16.260  0.4973  0.4405  1.6204
 3376TIP3    H231620   5.660   1.170  16.353  2.3747 -0.1283 -0.4844
 3377TIP3   OH231621   2.691   1.600  10.986  0.2711 -0.0027 -0.1841
 3377TIP3    H131622   2.608   1.555  10.970  0.2160 -0.2899  0.8437
 3377TIP3    H231623   2.741   1.586  10.906  0.1166 -1.6152 -0.0477
 3378TIP3   OH231624   4.999   6.566   4.353 -0.4931 -0.3806  0.3527
 3378TIP3    H131625   4.977   6.637   4.292 -2.4348 -0.6396  0.6973
 3378TIP3    H231626   5.068   6.518   4.308 -1.3495 -0.1247 -1.3464
 3379TIP3   OH231627   6.343   6.417   1.194 -0.1768 -0.0397  0.4083
 3379TIP3    H131628   6.348   6.422   1.098 -1.9009 -0.3517  0.2685
 3379TIP3    H231629   6.388   6.336   1.216  0.9808  0.4628 -0.0522
 3380TIP3   OH231630   6.460   0.770  13.708 -0.6719  0.0320  0.4847
 3380TIP3    H131631   6.529   0.793  13.771 -0.2730 -0.0421  0.0735
 3380TIP3    H231632   6.485   0.684  13.676 -0.7021  0.2080 -0.0152
 3381TIP3   OH231633   5.285   5.841  12.673 -0.3441  0.1777 -0.0337
 3381TIP3    H131634   5.219   5.805  12.733  1.6131 -0.6159  1.7804
 3381TIP3    H231635   5.338   5.899  12.728  1.2013 -0.1454 -1.1286
 3382TIP3   OH231636   2.803   2.423   0.671  0.4232 -0.4692  0.2005
 3382TIP3    H131637   2.824   2.385   0.756  0.6835 -0.6607  0.0517
 3382TIP3    H231638   2.887   2.436   0.628  0.2341 -1.9825 -0.7183
 3383TIP3   OH231639   3.144   3.626  13.496 -0.0448 -0.6519 -0.6188
 3383TIP3    H131640   3.172   3.631  13.588 -2.9010 -1.8125  0.4376
 3383TIP3    H231641   3.073   3.690  13.490  0.9314  0.3246 -2.4232
 3384TIP3   OH231642   5.254   5.713   0.167 -0.1460  0.4496 -0.0080
 3384TIP3    H131643   5.201   5.791   0.186 -1.1690  0.3292 -2.1604
 3384TIP3    H231644   5.342   5.736   0.198 -0.6118  2.1163  0.1799
 3385TIP3   OH231645   2.354   3.875   5.435 -0.1806 -0.3038 -0.7376
 3385TIP3    H131646   2.327   3.945   5.494 -0.6865 -0.7695 -0.4095
 3385TIP3    H231647   2.340   3.795   5.485 -1.2109 -0.7476 -1.7100
 3386TIP3   OH231648   1.632   5.948  12.207 -0.1311 -0.6811 -0.0246
 3386TIP3    H131649   1.605   5.912  12.123  1.6899  1.6291 -1.7562
 3386TIP3    H231650   1.725   5.926  12.214  1.4888  4.1052 -1.8104
 3387TIP3   OH231651   0.251   6.538   1.359  0.5923 -0.3405  0.0775
 3387TIP3    H131652   0.165   6.535   1.402  1.0527  0.0534  1.0483
 3387TIP3    H231653   0.241   6.481   1.283 -0.0578 -1.5535  1.0371
 3388TIP3   OH231654   5.155   3.304  10.519  0.3041  0.1225  0.6114
 3388TIP3    H131655   5.065   3.283  10.543 -0.6569  0.7826 -2.0362
 3388TIP3    H231656   5.180   3.235  10.458  2.4038 -1.1849  2.7950
 3389TIP3   OH231657   6.337   1.060  12.047 -0.2701  0.4477  0.0196
 3389TIP3    H131658   6.331   1.091  12.137 -0.3149  2.0365 -0.5032
 3389TIP3    H231659   6.256   1.011  12.033 -1.1710  1.8098  0.2774
 3390TIP3   OH231660   0.544   2.715   1.322  0.2216  0.0465  0.4149
 3390TIP3    H131661   0.508   2.803   1.333 -1.3552 -0.6446  1.0869
 3390TIP3    H231662   0.497   2.679   1.247 -0.6519 -0.9323  1.4056
 3391TIP3   OH231663   3.331   1.681  14.237  0.6879  0.0574 -0.1336
 3391TIP3    H131664   3.284   1.737  14.175  0.6975  0.4709  0.2259
 3391TIP3    H231665   3.423   1.708  14.229  0.4390  1.6600  1.5964
 3392TIP3   OH231666   5.458   0.984   5.201 -0.3902  0.2781 -0.0758
 3392TIP3    H131667   5.446   1.078   5.194 -0.0182  0.2770 -0.7666
 3392TIP3    H231668   5.537   0.965   5.150  1.9729  0.1154  3.2883
 3393TIP3   OH231669   6.726   1.242  14.998  0.5274 -0.1921  0.1808
 3393TIP3    H131670   6.727   1.274  15.088  0.0793  0.2937  0.0172
 3393TIP3    H231671   6.638   1.204  14.988  0.4495  0.0747 -0.1598
 3394TIP3   OH231672   6.844   3.342   1.006  0.2948 -0.7967 -0.4320
 3394TIP3    H131673   6.938   3.341   1.025  0.2717 -0.9194 -0.3213
 3394TIP3    H231674   6.837   3.391   0.924  0.3302  0.2795  0.2051
 3395TIP3   OH231675   1.765   4.634  14.139 -0.6365 -0.0877 -0.5270
 3395TIP3    H131676   1.852   4.629  14.098  0.0789 -0.8105  1.0187
 3395TIP3    H231677   1.744   4.727  14.137  0.8867  0.3058  0.4799
 3396TIP3   OH231678   1.453   0.241  12.153  0.4727  0.2722  0.0559
 3396TIP3    H131679   1.473   0.255  12.061 -0.5737  1.4975 -0.0089
 3396TIP3    H231680   1.465   0.147  12.166 -2.4332 -0.5537 -2.1457
 3397TIP3   OH231681   2.483   6.158  12.831  0.1595  0.0701  0.1309
 3397TIP3    H131682   2.517   6.214  12.761  0.9298  0.9184  1.1563
 3397TIP3    H231683   2.470   6.217  12.905  0.3521 -0.9848  1.0360
 3398TIP3   OH231684   1.342   3.687  12.097  0.3487 -0.4484 -0.5461
 3398TIP3    H131685   1.275   3.624  12.123 -1.5701  1.3700 -0.8405
 3398TIP3    H231686   1.325   3.703  12.004  1.4178 -0.1815 -0.7094
 3399TIP3   OH231687   1.551   2.143  16.516 -0.6694  0.5206 -0.7021
 3399TIP3    H131688   1.584   2.058  16.486  0.3783  0.5900  0.1999
 3399TIP3    H231689   1.456   2.138  16.502 -0.8008 -1.2933  0.4690
 3400TIP3   OH231690   2.855   2.501  15.372 -0.3688  0.1779  0.3489
 3400TIP3    H131691   2.882   2.576  15.319  0.1932 -0.6850 -0.6163
 3400TIP3    H231692   2.926   2.491  15.436  0.1429 -0.2170 -0.2591
 3401TIP3   OH231693   1.277   5.499   0.945 -0.3247  0.0373  0.3903
 3401TIP3    H131694   1.312   5.570   0.999  1.2203 -0.0852 -0.4051
 3401TIP3    H231695   1.249   5.542   0.864  1.2903 -0.3050 -0.3919
 3402TIP3   OH231696   0.164   1.513   4.094 -0.6807 -0.4242  0.0015
 3402TIP3    H131697   0.237   1.451   4.095 -0.6795 -0.4183  1.2294
 3402TIP3    H231698   0.166   1.554   4.181 -1.9688 -0.2049 -0.0568
 3403TIP3   OH231699   0.824   3.857  12.631  0.0269  0.3690  0.6678
 3403TIP3    H131700   0.758   3.832  12.566 -0.9042  0.7534  1.4347
 3403TIP3    H231701   0.902   3.807  12.607 -0.0277  1.1375 -1.2433
 3404TIP3   OH231702   4.099   6.362   3.405  0.2756 -0.0319 -0.1018
 3404TIP3    H131703   4.101   6.275   3.365 -0.2596  0.1080 -0.4413
 3404TIP3    H231704   4.102   6.422   3.331 -1.5336  0.2302  0.0039
 3405TIP3   OH231705   3.811   4.804  11.283 -0.3853  0.3817 -0.1726
 3405TIP3    H131706   3.905   4.813  11.274 -0.2628 -0.9804 -0.3872
 3405TIP3    H231707   3.786   4.873  11.345  0.7700  0.5699  0.0967
 3406TIP3   OH231708   5.342   6.725   4.718  0.1422  0.0134  0.0964
 3406TIP3    H131709   5.412   6.789   4.729 -0.6975  0.9618  0.0552
 3406TIP3    H231710   5.340   6.677   4.800  1.1050 -0.3010 -0.0531
 3407TIP3   OH231711   6.416   1.223  12.515  0.0526  0.4410 -0.0183
 3407TIP3    H131712   6.343   1.274  12.549 -2.2761 -1.6442 -1.4787
 3407TIP3    H231713   6.459   1.280  12.452 -2.3198  0.7600 -1.4548
 3408TIP3   OH231714   0.350   4.777  13.129  0.0563  0.4297 -0.2046
 3408TIP3    H131715   0.313   4.826  13.055 -0.6261  0.1172 -0.0878
 3408TIP3    H231716   0.430   4.738  13.095  0.1601  0.9324 -0.5437
 3409TIP3   OH231717   6.617   4.997   2.940  0.4246 -0.8714  0.2097
 3409TIP3    H131718   6.708   4.979   2.915 -0.0991 -2.9432 -0.4209
 3409TIP3    H231719   6.624   5.063   3.009  2.3482 -0.4117 -0.3516
 3410TIP3   OH231720   1.127   4.977   4.818 -0.5059  0.0346 -0.4875
 3410TIP3    H131721   1.116   5.070   4.797 -0.3252  0.5132  1.3963
 3410TIP3    H231722   1.209   4.974   4.868 -0.9558 -1.0218  0.1981
 3411TIP3   OH231723   0.065   0.682  11.200 -0.0705 -0.1808 -0.1272
 3411TIP3    H131724   0.068   0.760  11.144 -0.0868  1.2644  1.7501
 3411TIP3    H231725  -0.014   0.636  11.173 -1.0309  1.4001 -0.1595
 3412TIP3   OH231726   3.313   6.032   2.052  0.6142  0.2013  0.7527
 3412TIP3    H131727   3.365   6.095   2.102  0.9478  2.0162 -1.6958
 3412TIP3    H231728   3.243   6.006   2.111 -0.8447  4.5819  1.2927
 3413TIP3   OH231729   1.580   5.422  16.529  0.3890 -0.0594 -0.2509
 3413TIP3    H131730   1.565   5.515  16.513 -0.1539  0.1390  1.1974
 3413TIP3    H231731   1.523   5.377  16.467  0.0294  0.6009 -0.4113
 3414TIP3   OH231732   2.407   1.750  11.887 -0.1515  0.3618  0.0597
 3414TIP3    H131733   2.383   1.658  11.886  1.8893 -0.2059  0.0134
 3414TIP3    H231734   2.443   1.767  11.800  2.1379  0.4073  0.9429
 3415TIP3   OH231735   0.707   2.309   4.290 -0.2820  0.6376 -0.3557
 3415TIP3    H131736   0.673   2.392   4.322  1.1728  2.0182 -2.1329
 3415TIP3    H231737   0.766   2.334   4.218  0.4838 -1.9154 -0.7035
 3416TIP3   OH231738   5.616   4.401   4.167 -0.5821  0.3692  0.1452
 3416TIP3    H131739   5.531   4.370   4.135  0.0258 -0.6918 -0.4862
 3416TIP3    H231740   5.596   4.483   4.212 -1.9084  0.2532 -0.1965
 3417TIP3   OH231741   6.661   2.056   4.959 -0.0295 -0.4874 -0.3371
 3417TIP3    H131742   6.612   2.124   4.911 -0.9036  0.1582  1.3598
 3417TIP3    H231743   6.684   2.098   5.042  0.7991 -1.7841  0.1146
 3418TIP3   OH231744   0.748   0.506   4.665 -0.3500 -0.6411 -0.0384
 3418TIP3    H131745   0.833   0.525   4.705 -0.0277 -0.8914 -0.5987
 3418TIP3    H231746   0.744   0.564   4.588 -0.4049 -1.0927 -0.3765
 3419TIP3   OH231747   6.409   1.963  13.530 -0.2374  0.0942 -0.2896
 3419TIP3    H131748   6.440   1.914  13.454 -0.7499 -1.0755  0.2313
 3419TIP3    H231749   6.484   2.016  13.557  1.1519 -2.1651  0.5424
 3420TIP3   OH231750   3.605   6.174  11.576  0.0140 -0.3408  0.3221
 3420TIP3    H131751   3.591   6.245  11.638 -0.2436  0.5000 -0.6774
 3420TIP3    H231752   3.685   6.198  11.529 -1.1085  0.3078 -1.3558
 3421TIP3   OH231753   2.558   1.373   1.643 -0.2455 -0.4429 -0.1048
 3421TIP3    H131754   2.525   1.437   1.580 -1.5236 -0.5889  0.3708
 3421TIP3    H231755   2.632   1.416   1.686 -0.3718  0.2627 -0.5932
 3422TIP3   OH231756   0.997   6.185  11.463  0.3885 -0.4211  0.1614
 3422TIP3    H131757   1.057   6.257  11.483  0.7330 -1.3090  2.7163
 3422TIP3    H231758   0.984   6.190  11.368  3.1118  0.8649 -0.2352
 3423TIP3   OH231759   4.801   2.209   2.023  0.1597  0.2032 -0.6218
 3423TIP3    H131760   4.726   2.260   1.993 -0.1202  2.1540  2.9065
 3423TIP3    H231761   4.869   2.274   2.039  0.3911 -0.6463  2.3390
 3424TIP3   OH231762   6.509   5.293  13.419  0.1707 -0.0041  0.0666
 3424TIP3    H131763   6.414   5.285  13.428  0.2128  1.2056  2.3728
 3424TIP3    H231764   6.525   5.387  13.420  1.3737 -0.1789 -0.8847
 3425TIP3   OH231765   4.480   0.661   2.984  0.2086  0.0733  0.6699
 3425TIP3    H131766   4.464   0.734   2.923  0.2537 -1.1761 -0.9078
 3425TIP3    H231767   4.552   0.691   3.039  0.3194  1.1738 -0.0339
 3426TIP3   OH231768   6.313   2.115  11.730 -0.0054 -0.1243 -0.1168
 3426TIP3    H131769   6.267   2.106  11.814  2.4452  3.5048  1.9013
 3426TIP3    H231770   6.384   2.051  11.734  0.4421  0.4163  0.8926
 3427TIP3   OH231771   4.936   1.060  13.978  0.2888 -0.0308  0.4353
 3427TIP3    H131772   4.968   1.023  13.896  0.1077 -0.0859  0.3871
 3427TIP3    H231773   4.850   1.096  13.955 -0.0772 -0.6716  0.7587
 3428TIP3   OH231774   1.342   6.179  13.093  0.2818  0.1574 -0.0563
 3428TIP3    H131775   1.354   6.262  13.047 -0.9995  0.4203  0.0379
 3428TIP3    H231776   1.386   6.114  13.038 -2.6591  0.1552 -2.7007
 3429TIP3   OH231777   0.040   0.246   4.588  0.2508  0.8575  0.2242
 3429TIP3    H131778  -0.022   0.183   4.624  0.1329  1.0412  0.3494
 3429TIP3    H231779   0.117   0.194   4.565  0.0642  0.6332  0.0998
 3430TIP3   OH231780   2.177   5.288  15.424 -0.4766 -0.4943 -0.0099
 3430TIP3    H131781   2.085   5.292  15.450 -0.7471  1.2778 -1.0432
 3430TIP3    H231782   2.226   5.291  15.506 -1.3440  0.9670  0.4931
 3431TIP3   OH231783   4.461   1.781  14.745  0.5012 -0.6180  0.1099
 3431TIP3    H131784   4.531   1.716  14.737  0.8703 -0.5308  2.1756
 3431TIP3    H231785   4.413   1.755  14.824  0.6985  1.6351  1.0336
 3432TIP3   OH231786   3.061   3.961   2.694  0.4077  0.0114 -0.5369
 3432TIP3    H131787   2.997   4.025   2.663  0.0669 -0.7034 -1.3550
 3432TIP3    H231788   3.129   3.959   2.627  0.2371 -0.7278 -0.7057
 3433TIP3   OH231789   6.039   4.505  13.530 -0.0146 -0.3314 -0.4155
 3433TIP3    H131790   6.118   4.463  13.562  0.3391  0.2859 -0.4675
 3433TIP3    H231791   6.053   4.515  13.436 -0.4054 -0.7535 -0.5231
 3434TIP3   OH231792   5.223   4.833   3.203 -0.0132 -0.0881 -0.3946
 3434TIP3    H131793   5.311   4.830   3.165 -0.1736 -0.2443 -0.7582
 3434TIP3    H231794   5.236   4.809   3.295  0.5108  1.2698 -0.0950
 3435TIP3   OH231795   5.560   2.032  13.154  0.2022  0.3928  0.4898
 3435TIP3    H131796   5.629   2.009  13.092 -1.0694  0.7910 -1.1669
 3435TIP3    H231797   5.511   1.951  13.166 -2.1109  1.1690 -2.5072
 3436TIP3   OH231798   1.271   1.885   0.213 -0.0513 -0.4687  0.1779
 3436TIP3    H131799   1.219   1.875   0.133  0.2777  1.9871 -0.4384
 3436TIP3    H231800   1.306   1.974   0.207  0.9246 -0.6302  2.5309
 3437TIP3   OH231801   5.561   0.092   2.275  0.0340 -0.4383 -0.2278
 3437TIP3    H131802   5.614   0.168   2.250 -1.3902  0.4878 -0.5090
 3437TIP3    H231803   5.546   0.045   2.194 -0.0263 -0.4007 -0.2388
 3438TIP3   OH231804   1.512   2.809  16.958  0.5361 -1.0103  0.2087
 3438TIP3    H131805   1.576   2.778  16.894  0.1115 -0.0226 -0.7307
 3438TIP3    H231806   1.430   2.767  16.932  0.4655 -0.9805  0.3831
 3439TIP3   OH231807   4.330   5.835  14.798 -0.4523  0.2388  0.1137
 3439TIP3    H131808   4.405   5.777  14.810 -0.0699  0.9306  1.2845
 3439TIP3    H231809   4.256   5.776  14.783 -0.1938 -0.6194  1.9204
 3440TIP3   OH231810   4.142   5.148   5.473  0.4771  0.6407 -0.2832
 3440TIP3    H131811   4.156   5.135   5.379 -1.1825  0.2193 -0.4976
 3440TIP3    H231812   4.185   5.232   5.492  0.5214  0.9076 -1.4868
 3441TIP3   OH231813   2.889   3.149   5.668 -0.4212  0.1865 -0.0741
 3441TIP3    H131814   2.843   3.224   5.706  0.4906  0.0703  1.3353
 3441TIP3    H231815   2.821   3.081   5.662 -1.1678  0.9845 -1.0342
 3442TIP3   OH231816   2.041   0.938  13.374  0.1685 -0.2224  0.1149
 3442TIP3    H131817   1.955   0.980  13.368  0.8708  1.1731 -0.6249
 3442TIP3    H231818   2.043   0.876  13.302 -0.4972 -0.8230  0.6015
 3443TIP3   OH231819   1.716   3.859  12.764  0.2048 -0.1452 -0.6000
 3443TIP3    H131820   1.632   3.821  12.737 -0.4699  0.3394  0.7548
 3443TIP3    H231821   1.710   3.951  12.739 -0.6755  0.4606  1.5806
 3444TIP3   OH231822   3.106   3.634   2.168  0.1635  0.2654 -0.0624
 3444TIP3    H131823   3.106   3.720   2.126  2.6923  0.5070  0.2503
 3444TIP3    H231824   3.129   3.574   2.098  0.8494  0.1935  0.2178
 3445TIP3   OH231825   3.215   3.924   5.968 -0.1746 -0.2014  0.3490
 3445TIP3    H131826   3.275   3.960   6.033  0.6748 -2.3842  0.8534
 3445TIP3    H231827   3.131   3.966   5.987  0.7370  1.4621  0.8759
 3446TIP3   OH231828   6.780   3.061   3.186 -0.1952  0.2355 -0.4651
 3446TIP3    H131829   6.707   3.028   3.238 -0.3302 -0.2982 -0.9764
 3446TIP3    H231830   6.842   3.096   3.250 -0.8796  0.6607 -0.0304
 3447TIP3   OH231831   2.384   4.210   5.026 -0.8210 -0.8689 -0.2181
 3447TIP3    H131832   2.316   4.271   4.997  0.0615  0.4251  0.3007
 3447TIP3    H231833   2.423   4.177   4.945 -1.5229 -0.9803 -0.5125
 3448TIP3   OH231834   0.159   1.251  12.432 -0.0114  0.9054  0.6014
 3448TIP3    H131835   0.080   1.198  12.419  0.2648  0.9391 -1.5358
 3448TIP3    H231836   0.135   1.337  12.400  0.0650  1.7102  2.5465
 3449TIP3   OH231837   2.866   6.527   1.223  0.5119  0.0104  0.3232
 3449TIP3    H131838   2.806   6.456   1.201  0.8440 -0.0016 -0.5966
 3449TIP3    H231839   2.812   6.606   1.218  0.6471  0.0479 -0.9478
 3450TIP3   OH231840   4.374   1.352   1.499  0.1371  0.1459  0.0791
 3450TIP3    H131841   4.315   1.320   1.567 -0.6493  2.5783  0.6457
 3450TIP3    H231842   4.460   1.317   1.523 -0.7749 -2.2247  0.0734
 3451TIP3   OH231843   4.970   2.609  11.471 -0.3710  0.1973 -0.2097
 3451TIP3    H131844   5.027   2.675  11.431  0.9918 -0.3663  0.7383
 3451TIP3    H231845   5.009   2.525  11.447 -0.9267 -0.2145  0.2812
 3452TIP3   OH231846   3.814   4.418   5.744 -0.1871  0.4438 -0.4715
 3452TIP3    H131847   3.774   4.475   5.678  3.8436  1.8163 -2.0266
 3452TIP3    H231848   3.772   4.443   5.826 -2.0417  2.0815 -1.8221
 3453TIP3   OH231849   4.945   6.289  16.536  0.7405  0.1033 -0.2647
 3453TIP3    H131850   4.950   6.335  16.452  1.3096  0.9891  0.2369
 3453TIP3    H231851   4.980   6.352  16.599 -1.1525  0.0433  0.8896
 3454TIP3   OH231852   0.513   5.514  14.702  0.2332 -0.0098 -0.5072
 3454TIP3    H131853   0.471   5.537  14.785 -0.0792  0.3371 -0.7568
 3454TIP3    H231854   0.566   5.591  14.679  0.2205 -0.0538 -0.6888
 3455TIP3   OH231855   6.765   6.064  13.164  0.1513 -0.6341 -0.2003
 3455TIP3    H131856   6.763   6.073  13.260 -1.0828  0.0025 -0.2688
 3455TIP3    H231857   6.826   5.992  13.148 -0.1167 -1.1708  1.0986
 3456TIP3   OH231858   3.624   4.234  11.985  0.1767 -0.1443  0.4685
 3456TIP3    H131859   3.597   4.291  11.913 -3.9489 -0.1366  1.7514
 3456TIP3    H231860   3.587   4.148  11.963 -1.1697 -0.1440  2.4601
 3457TIP3   OH231861   5.496   2.138   3.214 -0.0728 -0.5724  0.1755
 3457TIP3    H131862   5.516   2.168   3.302  0.3542 -1.0254  0.2377
 3457TIP3    H231863   5.460   2.050   3.226  0.1820 -0.7207 -0.1163
 3458TIP3   OH231864   1.819   5.411   0.166  0.1921  0.4444  0.1451
 3458TIP3    H131865   1.781   5.467   0.098  0.1038 -0.5068 -0.5988
 3458TIP3    H231866   1.749   5.349   0.187 -0.1089  1.2792  1.7716
 3459TIP3   OH231867   4.943   6.557   4.920 -0.3025  0.3571 -0.2320
 3459TIP3    H131868   4.978   6.560   4.831 -0.2575  1.0924 -0.1945
 3459TIP3    H231869   5.015   6.585   4.975 -0.5112  0.4692 -0.0150
 3460TIP3   OH231870   5.031   4.802  12.607  0.3348 -0.6839  0.4000
 3460TIP3    H131871   4.990   4.801  12.521  0.5051  1.2417  0.2512
 3460TIP3    H231872   5.121   4.772  12.591  0.5729  0.3349 -0.2279
 3461TIP3   OH231873   2.237   4.497   5.042  0.0305  0.1720  0.3778
 3461TIP3    H131874   2.163   4.449   5.079  0.7668 -0.7978  0.6096
 3461TIP3    H231875   2.208   4.589   5.042 -0.9908 -0.1359  0.8861
 3462TIP3   OH231876   4.721   6.373  15.627 -0.0356 -0.5081  0.3841
 3462TIP3    H131877   4.740   6.461  15.596  0.3230 -0.3022  1.1852
 3462TIP3    H231878   4.626   6.364  15.615  0.3244 -1.3035 -2.9905
 3463TIP3   OH231879   0.808   4.673  12.118 -0.1219  0.0437  0.4124
 3463TIP3    H131880   0.871   4.743  12.137 -0.7538  0.7879 -0.1803
 3463TIP3    H231881   0.792   4.632  12.203 -2.1703  2.6742  1.4449
 3464TIP3   OH231882   4.759   5.490  12.474 -0.1855 -0.1016 -0.7652
 3464TIP3    H131883   4.667   5.487  12.448 -0.1784  1.6693 -1.1600
 3464TIP3    H231884   4.805   5.517  12.394  0.8561 -2.0103 -0.8750
 3465TIP3   OH231885   0.651   0.686   5.267  0.3505  0.0678  0.2590
 3465TIP3    H131886   0.586   0.724   5.208 -0.3161 -0.5737  0.5597
 3465TIP3    H231887   0.603   0.618   5.315  0.5541  1.2572  2.3020
 3466TIP3   OH231888   5.597   2.452  16.696  0.1051  0.1654 -0.0986
 3466TIP3    H131889   5.593   2.519  16.628 -0.9673  2.2494  1.8845
 3466TIP3    H231890   5.522   2.395  16.678  0.6937 -0.2152 -1.4750
 3467TIP3   OH231891   5.318   0.751  16.310 -0.6331  0.4738  0.0507
 3467TIP3    H131892   5.228   0.734  16.338 -0.0020 -0.1355  1.8838
 3467TIP3    H231893   5.311   0.768  16.216 -2.4662 -1.0905 -0.1700
 3468TIP3   OH231894   4.014   4.830  13.661  0.0980  0.5368 -0.7567
 3468TIP3    H131895   3.926   4.862  13.677  0.0459 -0.5649  1.5255
 3468TIP3    H231896   4.071   4.903  13.686 -0.1159  0.1008  1.1549
 3469TIP3   OH231897   0.438   5.777  12.423  0.0590 -0.2294 -0.7333
 3469TIP3    H131898   0.374   5.709  12.401 -1.3502  0.8353 -0.0704
 3469TIP3    H231899   0.442   5.777  12.518  1.5003 -0.6473 -0.7675
 3470TIP3   OH231900   1.067   1.105   2.064  0.4292 -0.1820  0.3885
 3470TIP3    H131901   1.146   1.107   2.119  0.0225 -1.4543  1.0530
 3470TIP3    H231902   1.069   1.019   2.022 -0.2630  0.0369 -0.1155
 3471TIP3   OH231903   6.560   3.094  15.279 -0.1051  0.3656  0.5016
 3471TIP3    H131904   6.487   3.070  15.222  0.0929  0.8780  0.0116
 3471TIP3    H231905   6.532   3.176  15.320  0.4964  1.0018 -0.3068
 3472TIP3   OH231906   3.962   3.246  16.634 -0.5744 -0.5067  0.1162
 3472TIP3    H131907   3.940   3.323  16.685 -0.1776 -0.3718  0.0852
 3472TIP3    H231908   3.964   3.277  16.543  1.1886 -0.1792  0.2438
 3473TIP3   OH231909   5.387   1.390   3.983  0.2516  0.1421  0.5010
 3473TIP3    H131910   5.363   1.331   4.054  0.2308 -0.9059 -0.3465
 3473TIP3    H231911   5.464   1.349   3.943 -0.3281  0.1828 -0.6915
 3474TIP3   OH231912   6.158   5.453   4.744  0.4500  0.6949 -0.1331
 3474TIP3    H131913   6.080   5.456   4.800  0.3445  0.1596 -0.2539
 3474TIP3    H231914   6.230   5.438   4.805  0.4154  0.7925 -0.0670
 3475TIP3   OH231915   5.794   6.046  12.068  0.6334 -0.1718  0.7263
 3475TIP3    H131916   5.872   6.095  12.095  1.1530 -0.1439 -0.7719
 3475TIP3    H231917   5.823   5.955  12.065  1.4721  0.0783 -2.4747
 3476TIP3   OH231918   0.954   2.953   1.513 -0.0250  0.8167  0.0581
 3476TIP3    H131919   1.026   2.895   1.487 -0.8614  0.3165 -1.2556
 3476TIP3    H231920   0.935   2.927   1.603  0.3002 -0.2495 -0.1535
 3477TIP3   OH231921   3.752   5.015   5.973  0.1917  0.4508 -0.1410
 3477TIP3    H131922   3.751   4.920   5.989 -0.5225  0.4113 -0.3665
 3477TIP3    H231923   3.817   5.049   6.034  1.0055 -0.2743 -0.5825
 3478TIP3   OH231924   0.275   5.658  15.518  0.2361  0.1559  0.9964
 3478TIP3    H131925   0.345   5.595  15.534 -0.0218 -0.1990  0.7504
 3478TIP3    H231926   0.319   5.736  15.484  0.4511 -0.2580  0.3285
 3479TIP3   OH231927   2.216   5.395  11.668 -0.5630 -0.3254 -0.0633
 3479TIP3    H131928   2.188   5.351  11.588 -1.0948 -0.3409  0.1281
 3479TIP3    H231929   2.135   5.413  11.715 -0.2693 -0.1185  0.3685
 3480TIP3   OH231930   3.788   1.484   4.713  0.1120 -0.1786 -0.4541
 3480TIP3    H131931   3.732   1.456   4.786 -1.6003 -0.6567 -1.8825
 3480TIP3    H231932   3.856   1.417   4.707  0.7528  0.2758  1.1558
 3481TIP3   OH231933   2.392   0.960  16.587 -0.0295 -0.2612  1.1268
 3481TIP3    H131934   2.318   1.010  16.622  0.1453  1.4182 -0.7189
 3481TIP3    H231935   2.351   0.887  16.541 -0.8884  1.9612 -2.0135
 3482TIP3   OH231936   2.537   5.043   1.881  0.2447 -0.0760  0.6080
 3482TIP3    H131937   2.622   5.019   1.917  0.4258  0.6699  0.6798
 3482TIP3    H231938   2.538   5.138   1.876  0.7610 -0.1350 -2.5963
 3483TIP3   OH231939   6.721   6.546   2.122 -0.2069 -0.7275  0.2096
 3483TIP3    H131940   6.817   6.547   2.112 -0.1478 -1.1209  0.7043
 3483TIP3    H231941   6.699   6.636   2.144  0.1163 -0.7403  0.6179
 3484TIP3   OH231942   3.196   4.121   3.601  0.3115 -0.1448  0.3171
 3484TIP3    H131943   3.281   4.113   3.643  0.4382  0.0714  0.1045
 3484TIP3    H231944   3.155   4.197   3.642 -0.3855 -1.0997  1.4587
 3485TIP3   OH231945   5.111   0.772   2.135 -0.3359  0.5175 -0.2610
 3485TIP3    H131946   5.089   0.796   2.225 -2.3545 -0.7118 -0.3649
 3485TIP3    H231947   5.157   0.849   2.100 -0.0878  1.2605  1.6004
 3486TIP3   OH231948   4.647   3.616  16.845 -0.1453  0.0440 -0.0908
 3486TIP3    H131949   4.660   3.599  16.752  0.1587  3.9119 -0.9593
 3486TIP3    H231950   4.732   3.647  16.875 -0.4362 -0.4530  1.3025
 3487TIP3   OH231951   2.391   0.291   4.418  0.1647  0.0927 -0.2706
 3487TIP3    H131952   2.391   0.332   4.504 -1.7265 -0.7463  0.1780
 3487TIP3    H231953   2.314   0.234   4.418 -0.6658  1.0521 -2.9698
 3488TIP3   OH231954   2.188   6.221  13.220  0.0639 -0.0140  0.0822
 3488TIP3    H131955   2.104   6.194  13.181 -0.9423  2.6553  0.2019
 3488TIP3    H231956   2.166   6.244  13.310  1.1902 -0.3240  0.4514
 3489TIP3   OH231957   5.933   4.702   1.773 -0.3884  0.2466  0.0474
 3489TIP3    H131958   5.877   4.643   1.823  1.4929 -0.8897  0.9038
 3489TIP3    H231959   5.962   4.768   1.836  2.5638 -1.5962  0.7708
 3490TIP3   OH231960   3.506   3.929   2.472  0.3791 -0.2165  0.0351
 3490TIP3    H131961   3.473   3.864   2.410  2.8017 -0.1299 -1.4844
 3490TIP3    H231962   3.547   3.877   2.541 -0.5014 -0.2857  0.5259
 3491TIP3   OH231963   2.509   5.161  16.251  0.1709 -0.2286  0.8936
 3491TIP3    H131964   2.603   5.143  16.261 -0.2681 -1.1301  4.8582
 3491TIP3    H231965   2.493   5.235  16.309 -1.3152  1.2326 -1.2565
 3492TIP3   OH231966   3.649   4.501  15.857  0.0794  0.1071 -0.1051
 3492TIP3    H131967   3.643   4.582  15.907  0.6245  0.4916 -0.6516
 3492TIP3    H231968   3.741   4.495  15.831  0.7359 -2.0665  2.2262
 3493TIP3   OH231969   3.310   2.274  14.126 -0.3739 -0.0253 -0.3392
 3493TIP3    H131970   3.394   2.227  14.120  0.0596  0.6657  0.1739
 3493TIP3    H231971   3.244   2.205  14.119  0.2388 -0.5942 -0.6422
 3494TIP3   OH231972   4.772   5.113  13.801  0.7365  0.1846  0.6564
 3494TIP3    H131973   4.779   5.205  13.777  1.0843  0.1268  0.5253
 3494TIP3    H231974   4.779   5.065  13.719  0.9442  0.0271  0.7632
 3495TIP3   OH231975   5.376   1.256   4.243 -0.1219 -0.0262  0.3586
 3495TIP3    H131976   5.327   1.305   4.310  0.9342 -0.1930  1.2761
 3495TIP3    H231977   5.336   1.169   4.244 -1.6346  0.5864 -0.8867
 3496TIP3   OH231978   3.740   1.786   3.314 -0.0602  0.1899 -0.0199
 3496TIP3    H131979   3.813   1.843   3.289  0.4221 -0.0628  0.7940
 3496TIP3    H231980   3.743   1.713   3.252  0.8784 -0.2295  0.5071
 3497TIP3   OH231981   0.629   5.409  11.351 -0.0497 -0.4948 -0.1973
 3497TIP3    H131982   0.557   5.454  11.307  1.8884  0.5050 -2.6223
 3497TIP3    H231983   0.597   5.320  11.365 -1.9491  0.0911 -0.6035
 3498TIP3   OH231984   1.992   6.328   3.611 -0.0640  0.8177  0.6429
 3498TIP3    H131985   1.947   6.251   3.647  1.0193 -0.5852 -0.8316
 3498TIP3    H231986   2.077   6.329   3.655  0.3446  0.5027 -0.1171
 3499TIP3   OH231987   4.932   0.966   2.829 -0.0064 -0.5003 -0.2843
 3499TIP3    H131988   4.925   0.903   2.901  2.2108 -1.1419 -0.5843
 3499TIP3    H231989   4.865   0.939   2.767 -0.5866 -1.1722  0.6087
 3500TIP3   OH231990   2.546   2.750  13.851  0.1323 -0.2817 -0.2522
 3500TIP3    H131991   2.478   2.737  13.785  0.8829 -0.3953 -1.0204
 3500TIP3    H231992   2.611   2.806  13.808  0.7190 -0.5007  0.3304
 3501TIP3   OH231993   1.946   5.190  13.402  0.0803 -0.0125  0.2072
 3501TIP3    H131994   1.855   5.166  13.381 -0.0682 -0.6911  1.5003
 3501TIP3    H231995   1.938   5.269  13.456  0.1331 -0.8634  1.5150
 3502TIP3   OH231996   3.458   2.992  16.944  0.1505  0.3224 -0.3680
 3502TIP3    H131997   3.381   3.038  16.976 -1.7141 -2.8343  0.0731
 3502TIP3    H231998   3.528   3.016  17.004 -0.9973  1.6080  0.5045
 3503TIP3   OH231999   5.006   1.757  15.340 -0.3300  0.0803 -0.1965
 3503TIP3    H132000   4.987   1.848  15.362 -0.7079 -0.2564  0.9458
 3503TIP3    H232001   5.016   1.713  15.425  0.5427 -0.8066 -0.7303
 3504TIP3   OH232002   5.069   5.979  12.985 -0.2959 -0.7966 -0.3865
 3504TIP3    H132003   5.081   6.004  13.076  0.4051 -3.0392  0.1944
 3504TIP3    H232004   5.069   6.062  12.937  1.5102  0.3216  1.4105
 3505TIP3   OH232005   3.257   5.166   6.864 -0.1428 -0.3117  0.4050
 3505TIP3    H132006   3.332   5.145   6.920  0.7137 -0.7420 -0.8664
 3505TIP3    H232007   3.216   5.082   6.844  0.4718 -0.3413 -0.8310
 3506TIP3   OH232008   6.403   5.693  13.647 -0.2359  0.2591 -0.2196
 3506TIP3    H132009   6.469   5.624  13.659  0.5599  0.8445 -1.0733
 3506TIP3    H232010   6.411   5.748  13.725 -0.9402 -0.6511  0.5109
 3507TIP3   OH232011   4.202   6.116   3.706 -0.1927 -0.1191  0.2592
 3507TIP3    H132012   4.129   6.079   3.656  0.3849 -0.4195 -0.3885
 3507TIP3    H232013   4.260   6.151   3.638  0.1944  0.2437  0.7777
 3508TIP3   OH232014   4.336   1.150   5.709  0.7805  0.3618  0.3104
 3508TIP3    H132015   4.391   1.132   5.785 -0.5486  0.1245  1.2574
 3508TIP3    H232016   4.377   1.101   5.638  1.0153 -0.9489  1.3075
 3509TIP3   OH232017   5.978   1.712   5.527 -0.3570  0.1615 -0.3064
 3509TIP3    H132018   5.931   1.689   5.447 -1.4817  0.7797  0.1614
 3509TIP3    H232019   6.040   1.780   5.498  0.5636 -0.9251 -0.9937
 3510TIP3   OH232020   4.331   1.640  15.855  0.1953 -0.2314  0.1122
 3510TIP3    H132021   4.245   1.601  15.866 -0.2555  0.5454 -0.5581
 3510TIP3    H232022   4.343   1.646  15.760  0.0933  1.5560  0.1775
 3511TIP3   OH232023   1.207   2.384   4.060  0.4909 -0.5712  0.1709
 3511TIP3    H132024   1.286   2.329   4.061  0.6125 -0.3918  0.6096
 3511TIP3    H232025   1.149   2.344   4.124  0.1409 -0.8174 -0.2957
 3512TIP3   OH232026   5.688   0.659   5.964  0.2676  0.1904 -0.6393
 3512TIP3    H132027   5.705   0.574   6.004  1.0486  0.1130 -1.1218
 3512TIP3    H232028   5.653   0.712   6.036 -0.6670 -0.6515 -0.4375
 3513TIP3   OH232029   4.942   4.667  12.051 -0.3790  0.4276  0.6737
 3513TIP3    H132030   5.031   4.635  12.068 -0.5187 -1.3229 -1.5280
 3513TIP3    H232031   4.944   4.697  11.961 -2.2155 -0.3751  0.3278
 3514TIP3   OH232032   6.327   5.526  11.288 -0.1611  0.4900  0.0855
 3514TIP3    H132033   6.384   5.496  11.359  0.8332  1.7627 -0.1300
 3514TIP3    H232034   6.345   5.465  11.217 -2.0545 -1.5262  1.2455
 3515TIP3   OH232035   1.453   6.515   4.761 -0.4298 -0.0754  0.0929
 3515TIP3    H132036   1.358   6.509   4.773 -0.9685  1.3552 -2.7172
 3515TIP3    H232037   1.470   6.608   4.752  1.4716 -0.2183  1.7171
 3516TIP3   OH232038   1.582   3.746   3.597 -0.1907  0.1373  0.0804
 3516TIP3    H132039   1.508   3.734   3.657 -0.2304 -0.1671 -0.0283
 3516TIP3    H232040   1.636   3.668   3.610  0.6265  0.8133  0.8708
 3517TIP3   OH232041   1.644   3.327  15.276 -0.1886  0.2453 -0.0261
 3517TIP3    H132042   1.662   3.313  15.183  0.1818  0.3764  0.0234
 3517TIP3    H232043   1.601   3.246  15.304 -0.6525  0.3556 -0.3964
 3518TIP3   OH232044   1.275   1.466  17.006  0.3069 -0.2602 -0.5946
 3518TIP3    H132045   1.364   1.483  17.036 -0.2840 -0.2132  1.2571
 3518TIP3    H232046   1.284   1.393  16.944  1.6707  0.0417 -0.7763
 3519TIP3   OH232047   5.726   5.978   6.463  0.4408 -0.0006 -0.1291
 3519TIP3    H132048   5.820   5.968   6.477  0.4734 -3.0527 -1.6780
 3519TIP3    H232049   5.686   5.910   6.517 -0.7654  0.3445 -0.5483
 3520TIP3   OH232050   4.468   3.962  12.047  0.6210  0.2023  0.0646
 3520TIP3    H132051   4.450   4.037  11.990  1.6521 -0.4397 -1.1550
 3520TIP3    H232052   4.392   3.956  12.104 -0.0775  1.3671 -0.7127
 3521TIP3   OH232053   3.673   2.844   3.471  0.1323  0.2343 -0.0103
 3521TIP3    H132054   3.661   2.867   3.563  2.8891  0.4964  0.3615
 3521TIP3    H232055   3.642   2.920   3.423  0.9280  1.0958  0.8142
 3522TIP3   OH232056   4.367   5.343  12.337  0.0453  0.2493 -0.2517
 3522TIP3    H132057   4.353   5.264  12.390 -2.7891 -1.5351 -3.3007
 3522TIP3    H232058   4.320   5.412  12.385 -2.1121 -1.2133 -0.1042
 3523TIP3   OH232059   5.138   3.874   0.539 -0.4308  0.3523 -0.0172
 3523TIP3    H132060   5.084   3.952   0.522 -1.0084 -0.1255 -0.3867
 3523TIP3    H232061   5.076   3.801   0.538  0.5151 -0.5782 -3.2031
 3524TIP3   OH232062   5.536   3.575  11.097 -0.3008 -0.4056 -0.4027
 3524TIP3    H132063   5.586   3.630  11.037  0.9553 -0.4069  0.5908
 3524TIP3    H232064   5.585   3.579  11.179 -0.8296 -2.0533  0.0348
 3525TIP3   OH232065   2.867   2.738  15.228  0.5106  0.0124 -0.8509
 3525TIP3    H132066   2.787   2.785  15.206  0.4599  0.8554  0.9120
 3525TIP3    H232067   2.881   2.678  15.155 -2.5890 -1.3236 -0.4828
 3526TIP3   OH232068   4.934   6.649   0.147 -0.0727 -0.0634 -0.1144
 3526TIP3    H132069   4.870   6.704   0.103  0.2478  2.9514  2.8043
 3526TIP3    H232070   5.019   6.681   0.116  0.1202  1.3882  1.6986
 3527TIP3   OH232071   2.679   3.674  16.253  0.0500  0.0003  0.2476
 3527TIP3    H132072   2.769   3.683  16.284  0.7910 -0.3379 -1.6718
 3527TIP3    H232073   2.665   3.579  16.248  0.4588  0.0111 -1.7258
 3528TIP3   OH232074   3.412   2.428  12.139  0.4787  0.0636  0.0275
 3528TIP3    H132075   3.473   2.462  12.074  2.4705  0.6359  2.0603
 3528TIP3    H232076   3.411   2.333  12.123  1.9875  0.0268 -0.0535
 3529TIP3   OH232077   6.049   5.344   3.563  0.1998 -0.5156 -0.3654
 3529TIP3    H132078   6.090   5.335   3.477  3.3180 -1.2278  1.0573
 3529TIP3    H232079   5.975   5.284   3.561  0.3326 -0.6884 -2.4382
 3530TIP3   OH232080   3.422   1.460   2.033 -0.5349  0.1489 -0.2820
 3530TIP3    H132081   3.443   1.378   1.990  0.3478  0.7027 -0.9231
 3530TIP3    H232082   3.496   1.477   2.090 -2.0387 -1.0046  2.2071
 3531TIP3   OH232083   2.006   2.982  13.439  0.4802 -0.5528 -0.3388
 3531TIP3    H132084   1.921   2.941  13.457  0.2986  0.7795  2.1917
 3531TIP3    H232085   2.007   2.993  13.343 -1.8998 -1.2275 -0.5024
 3532TIP3   OH232086   1.118   0.213   1.870  0.8717  0.0606  0.2334
 3532TIP3    H132087   1.043   0.154   1.870 -0.4642  1.6660  0.5733
 3532TIP3    H232088   1.139   0.225   1.778  0.4141 -0.0577  0.1096
 3533TIP3   OH232089   0.438   0.883   5.912  0.1835 -1.0235  0.3581
 3533TIP3    H132090   0.400   0.854   5.995  0.8068 -2.1316  0.2757
 3533TIP3    H232091   0.507   0.819   5.894  0.2716 -0.6073 -0.8549
 3534TIP3   OH232092   2.828   1.925   2.156 -0.0211  0.6659 -0.8559
 3534TIP3    H132093   2.778   1.954   2.232 -0.3841  0.5193 -1.0359
 3534TIP3    H232094   2.764   1.919   2.086 -0.0868 -1.1493 -0.6878
 3535TIP3   OH232095   1.063   3.088  12.972  0.4013 -0.2055 -0.2532
 3535TIP3    H132096   1.042   3.171  12.928 -2.3452 -0.0178  1.2021
 3535TIP3    H232097   1.159   3.086  12.974  0.6309  1.1945 -3.4652
 3536TIP3   OH232098   4.014   0.928   0.809 -0.4183 -0.5084  0.3827
 3536TIP3    H132099   4.052   1.015   0.822 -1.4639 -0.2843  2.3423
 3536TIP3    H232100   4.088   0.873   0.784  0.2350  0.9445 -1.0922
 3537TIP3   OH232101   6.117   2.710   1.030  0.2647  0.6091  0.2199
 3537TIP3    H132102   6.146   2.722   1.120  1.1682 -0.0792  0.0351
 3537TIP3    H232103   6.137   2.793   0.987  1.1542  0.4442  0.3081
 3538TIP3   OH232104   3.533   1.816   5.006  0.5733  0.2938  0.1063
 3538TIP3    H132105   3.586   1.843   4.932  1.6685  0.9190  1.0844
 3538TIP3    H232106   3.468   1.756   4.969  1.1236  0.5512 -1.3278
 3539TIP3   OH232107   2.348   6.670  11.246  0.0606 -0.0261 -0.5144
 3539TIP3    H132108   2.426   6.707  11.206  0.3780  1.0810  1.0280
 3539TIP3    H232109   2.277   6.695  11.187  0.7120  0.0001 -1.3016
 3540TIP3   OH232110   6.309   0.964  12.969 -0.3246  0.0206  0.2794
 3540TIP3    H132111   6.327   0.899  12.902 -2.0524 -0.1089 -0.0977
 3540TIP3    H232112   6.215   0.957  12.986 -0.1263  0.7742  1.9631
 3541TIP3   OH232113   3.571   2.156  14.135  0.4672 -0.5897  0.3534
 3541TIP3    H132114   3.647   2.201  14.172  0.3356 -0.9222  1.0425
 3541TIP3    H232115   3.602   2.121  14.051  0.2973  1.6457 -0.7093
 3542TIP3   OH232116   4.455   3.614  15.419 -0.8645 -0.4160 -0.3174
 3542TIP3    H132117   4.443   3.535  15.472 -3.3430 -0.0204 -0.1427
 3542TIP3    H232118   4.530   3.658  15.458 -0.3793 -1.9243  0.5394
 3543TIP3   OH232119   0.165   3.866  14.817 -0.3789  0.4411 -0.7744
 3543TIP3    H132120   0.153   3.958  14.793 -0.8768  0.6437  0.2190
 3543TIP3    H232121   0.159   3.865  14.912  1.9401 -0.2974 -0.5829
 3544TIP3   OH232122   5.210   6.842   4.409  0.1913 -0.2936  0.1442
 3544TIP3    H132123   5.274   6.883   4.467 -0.8185 -0.5573  1.4947
 3544TIP3    H232124   5.215   6.749   4.431  0.2251 -0.4731 -0.6222
 3545TIP3   OH232125   3.960   0.345   0.197 -0.2691  0.0062  0.4882
 3545TIP3    H132126   4.010   0.267   0.220  0.0362 -0.0762 -0.3946
 3545TIP3    H232127   3.921   0.375   0.279  2.1716  0.7440  1.4430
 3546TIP3   OH232128   6.591   5.751   2.762 -0.1503  0.2016 -0.1319
 3546TIP3    H132129   6.609   5.679   2.823  0.2885  0.1416 -0.3274
 3546TIP3    H232130   6.600   5.711   2.675  1.4214  0.7837 -0.2677
 3547TIP3   OH232131   2.045   5.829  12.450 -0.1267  0.0413  0.4613
 3547TIP3    H132132   2.064   5.740  12.478  1.6520  0.8918  2.2075
 3547TIP3    H232133   2.129   5.861  12.416 -0.5310  1.3009  0.5988
 3548TIP3   OH232134   5.211   1.521   3.575  0.3624 -0.1266  0.1815
 3548TIP3    H132135   5.179   1.486   3.658  1.6847  2.2156  1.8282
 3548TIP3    H232136   5.146   1.495   3.511 -1.8735 -0.2261  2.3379
 3549TIP3   OH232137   6.626   5.875  15.203 -0.0056  0.5155  0.3945
 3549TIP3    H132138   6.559   5.864  15.271 -0.1226 -2.3074 -0.0572
 3549TIP3    H232139   6.656   5.786  15.185  1.9305  1.4525 -1.3803
 3550TIP3   OH232140   6.733   5.528   1.153  0.0597 -0.0248 -0.6192
 3550TIP3    H132141   6.787   5.605   1.135  3.0598 -1.9145 -0.2688
 3550TIP3    H232142   6.681   5.553   1.230  1.9494  1.2519  0.3174
 3551TIP3   OH232143   4.782   1.195   4.082  0.1031  0.5375  0.4175
 3551TIP3    H132144   4.747   1.224   4.166 -0.7088 -0.7299  0.5422
 3551TIP3    H232145   4.783   1.100   4.089  0.8807  0.4526 -0.6844
 3552TIP3   OH232146   0.641   4.177   4.923  0.4459 -0.0301 -0.1154
 3552TIP3    H132147   0.729   4.151   4.895  1.0809  1.0497  0.8024
 3552TIP3    H232148   0.613   4.242   4.859  0.7794  0.4347  0.2042
 3553TIP3   OH232149   4.754   4.127   5.687 -0.1718  0.4620 -0.2655
 3553TIP3    H132150   4.722   4.047   5.646  0.3593 -0.2068  0.5675
 3553TIP3    H232151   4.682   4.189   5.679 -1.1767 -0.5803  0.3922
 3554TIP3   OH232152   4.836   5.032  13.313  0.5703  0.8845  0.4900
 3554TIP3    H132153   4.827   4.967  13.383  1.6719  0.1076 -0.0578
 3554TIP3    H232154   4.762   5.014  13.255  0.1380  0.9729  1.0057
 3555TIP3   OH232155   1.869   0.983   1.245  0.8323 -0.2244 -0.0792
 3555TIP3    H132156   1.850   0.893   1.218  1.0860 -0.7405  1.3690
 3555TIP3    H232157   1.916   1.021   1.170  0.8364 -1.3317 -0.6635
 3556TIP3   OH232158   6.239   0.621   0.348 -0.2043 -0.1931 -0.3709
 3556TIP3    H132159   6.253   0.543   0.401  0.8729 -1.2461 -2.0942
 3556TIP3    H232160   6.152   0.608   0.310  0.2179 -0.9055 -1.1379
 3557TIP3   OH232161   2.557   0.714  13.032  0.0207 -0.7176  1.2022
 3557TIP3    H132162   2.578   0.804  13.008  0.1567 -0.9139  0.5666
 3557TIP3    H232163   2.607   0.661  12.971 -0.1724 -1.2251  1.4810
 3558TIP3   OH232164   4.526   3.993  14.822 -0.5819  0.7694  0.1817
 3558TIP3    H132165   4.550   4.085  14.833  0.5597  0.5486 -0.3071
 3558TIP3    H232166   4.435   3.995  14.792 -0.4362  1.7587 -0.2287
 3559TIP3   OH232167   2.375   5.924  15.237  0.0817  0.2505 -0.4415
 3559TIP3    H132168   2.437   5.879  15.294  0.5721 -0.8477 -1.7860
 3559TIP3    H232169   2.290   5.911  15.279  0.1462 -2.2642 -0.8963
 3560TIP3   OH232170   1.822   6.526  15.032  0.1823 -0.4941  0.3698
 3560TIP3    H132171   1.775   6.571  15.102 -0.7566 -0.5687 -0.1842
 3560TIP3    H232172   1.849   6.596  14.973  0.9444 -0.4344  0.7815
 3561TIP3   OH232173   0.739   6.003  14.618  0.0660 -0.0269  0.2032
 3561TIP3    H132174   0.703   6.022  14.705 -0.5541  0.9048 -0.2377
 3561TIP3    H232175   0.832   6.020  14.627 -0.1282  0.9640  0.4576
 3562TIP3   OH232176   0.857   4.515   4.961  0.0093 -0.0356  0.1473
 3562TIP3    H132177   0.903   4.595   4.937  2.6225 -1.7600 -1.1012
 3562TIP3    H232178   0.851   4.519   5.056  0.2580  1.5519  0.1264
 3563TIP3   OH232179   6.159   4.047   4.766 -0.0896  0.0208  0.2583
 3563TIP3    H132180   6.177   3.964   4.721  0.1238 -1.6457  3.1646
 3563TIP3    H232181   6.086   4.027   4.825 -1.0041  2.3554  0.0304
 3564TIP3   OH232182   3.907   4.610  15.804 -0.3307 -0.1402 -0.2602
 3564TIP3    H132183   3.948   4.692  15.832 -0.4597 -0.6214  1.4114
 3564TIP3    H232184   3.980   4.549  15.795 -0.5257 -0.6957  1.6400
 3565TIP3   OH232185   3.166   5.432  11.004  0.5271 -0.1275  0.0568
 3565TIP3    H132186   3.248   5.387  11.023 -0.3062 -0.8933  2.2169
 3565TIP3    H232187   3.144   5.406  10.915  0.9286 -2.7287  0.6382
 3566TIP3   OH232188   0.800   0.046   4.833  0.4815  0.7178  0.0825
 3566TIP3    H132189   0.805   0.086   4.920  2.2192 -0.8319  0.7795
 3566TIP3    H232190   0.868  -0.022   4.835 -0.1655 -0.0615 -2.1319
 3567TIP3   OH232191   4.672   1.736   2.058  0.0118  0.9024  0.0189
 3567TIP3    H132192   4.636   1.715   2.144 -0.2487 -2.3683 -0.7742
 3567TIP3    H232193   4.627   1.817   2.033 -2.7803 -0.0804  1.3810
 3568TIP3   OH232194   3.841   0.134   0.377  0.0159  0.0870 -0.1292
 3568TIP3    H132195   3.779   0.206   0.389 -0.6769 -0.5513  0.1385
 3568TIP3    H232196   3.914   0.156   0.435 -0.6326  0.0780  0.7028
 3569TIP3   OH232197   3.907   2.756  15.168 -0.3636 -0.1748 -0.4627
 3569TIP3    H132198   3.854   2.836  15.170 -0.8849 -0.5277  1.6193
 3569TIP3    H232199   3.894   2.722  15.079  0.5818  2.4664 -1.7344
 3570TIP3   OH232200   5.887   4.511   5.907  0.3722 -0.7924  0.1080
 3570TIP3    H132201   5.866   4.599   5.937  1.2989 -0.4267 -0.2844
 3570TIP3    H232202   5.960   4.522   5.846 -1.1414 -1.5594 -1.9750
 3571TIP3   OH232203   2.649   6.149  11.201  0.4867  0.5930  0.0736
 3571TIP3    H132204   2.686   6.080  11.146  1.5866  1.0149  0.2526
 3571TIP3    H232205   2.581   6.188  11.147 -1.2694 -1.6107  0.5296
 3572TIP3   OH232206   3.695   3.386   4.895  0.1058  0.2325 -0.0960
 3572TIP3    H132207   3.744   3.319   4.846 -0.8827 -0.1232 -0.6280
 3572TIP3    H232208   3.712   3.366   4.987  1.9033  0.8373 -0.2643
 3573TIP3   OH232209   1.630   1.581   4.660 -0.1145 -0.4434 -0.0461
 3573TIP3    H132210   1.611   1.490   4.680 -0.6620 -0.0943  1.0688
 3573TIP3    H232211   1.615   1.628   4.742  0.7949  0.5641 -0.4284
 3574TIP3   OH232212   3.879   1.808   3.026  0.1063  0.1602 -0.4683
 3574TIP3    H132213   3.838   1.881   2.980  0.9526  0.2735 -1.0570
 3574TIP3    H232214   3.830   1.731   2.996 -1.0361  0.4924  0.4409
 3575TIP3   OH232215   0.233   1.544   4.400 -0.2043  0.2564  0.3454
 3575TIP3    H132216   0.216   1.465   4.452 -0.5027  0.3437  0.3856
 3575TIP3    H232217   0.322   1.534   4.369 -0.5921 -0.6125 -0.5437
 3576TIP3   OH232218   4.380   2.522  16.832 -0.1509  0.2825 -0.2325
 3576TIP3    H132219   4.330   2.576  16.772  1.4738  0.1086 -1.8470
 3576TIP3    H232220   4.414   2.583  16.897  0.1455  0.9269 -0.9736
 3577TIP3   OH232221   5.558   6.116   1.479 -0.2663 -0.4712 -0.3760
 3577TIP3    H132222   5.574   6.137   1.571  0.3272 -0.9066 -0.3706
 3577TIP3    H232223   5.526   6.197   1.441 -0.5402 -0.2941  0.2221
 3578TIP3   OH232224   5.033   0.134  12.060  0.3907  0.3940  0.2234
 3578TIP3    H132225   4.951   0.175  12.034  0.2216 -0.2698 -0.3231
 3578TIP3    H232226   5.015   0.040  12.057  0.5041  0.2703  2.3263
 3579TIP3   OH232227   4.926   4.320  17.045 -0.4806 -0.2305 -0.3722
 3579TIP3    H132228   4.894   4.301  16.957  0.3698 -2.1501 -0.3410
 3579TIP3    H232229   5.019   4.297  17.041 -0.5094 -0.7281  1.1035
 3580TIP3   OH232230   3.439   3.058   5.690  0.0106  0.0943  0.3714
 3580TIP3    H132231   3.353   3.046   5.731 -0.2655 -2.3098 -0.7104
 3580TIP3    H232232   3.432   3.141   5.643 -1.1026  0.7858  1.6758
 3581TIP3   OH232233   3.576   1.550   6.319 -0.1092 -0.1304 -0.1093
 3581TIP3    H132234   3.500   1.607   6.308 -1.4194 -2.0212 -1.6161
 3581TIP3    H232235   3.639   1.581   6.253 -0.2558  0.3901 -0.0075
 3582TIP3   OH232236   4.291   0.111   3.592  0.1791  0.3343  0.0290
 3582TIP3    H132237   4.356   0.111   3.662  0.3162  0.4945 -0.0971
 3582TIP3    H232238   4.307   0.030   3.544  0.3169  0.3930 -0.0274
 3583TIP3   OH232239   3.055   1.648   1.295  0.4320 -0.9315 -0.4274
 3583TIP3    H132240   3.132   1.634   1.351  0.9846  0.6093 -0.7525
 3583TIP3    H232241   2.990   1.687   1.354  1.0196  0.7066 -0.7991
 3584TIP3   OH232242   3.624   3.918   2.807  0.0546 -0.3657 -0.5111
 3584TIP3    H132243   3.709   3.876   2.800  0.3634  0.0596  0.5594
 3584TIP3    H232244   3.563   3.854   2.770  0.6957 -1.1341 -0.2679
 3585TIP3   OH232245   1.542   3.072  17.047  0.6605  0.5880  0.1979
 3585TIP3    H132246   1.510   2.994  17.000  1.7420 -0.2370  0.7670
 3585TIP3    H232247   1.621   3.097  16.999  0.3087  1.3692  0.0116
 3586TIP3   OH232248   5.226   2.266  15.007 -0.1005  0.4448  0.2364
 3586TIP3    H132249   5.180   2.210  14.945 -2.3353  1.5776  0.7648
 3586TIP3    H232250   5.317   2.238  15.002 -0.7001 -1.4183 -1.4219
 3587TIP3   OH232251   1.574   3.269  15.767 -0.7911 -0.4635  0.1453
 3587TIP3    H132252   1.660   3.268  15.725 -1.5862 -1.3362 -1.5519
 3587TIP3    H232253   1.512   3.284  15.695 -2.0974 -0.1453  1.2862
 3588TIP3   OH232254   4.816   4.836   2.820 -0.4133  0.3406  0.7410
 3588TIP3    H132255   4.880   4.798   2.880 -0.8132 -0.6072  0.5846
 3588TIP3    H232256   4.787   4.763   2.766 -2.0391  0.6214  1.1747
 3589TIP3   OH232257   6.703   4.829  14.262  0.3890 -0.0165 -0.2911
 3589TIP3    H132258   6.760   4.889  14.309  0.1512 -0.9196  1.2120
 3589TIP3    H232259   6.749   4.811  14.180  3.0978 -1.8997  1.4689
 3590TIP3   OH232260   6.120   0.305  12.525  0.4276 -0.1765  0.1286
 3590TIP3    H132261   6.037   0.319  12.481  0.2975  3.7275  1.2567
 3590TIP3    H232262   6.167   0.243  12.469 -2.0963 -0.2671 -2.0606
 3591TIP3   OH232263   3.526   5.911  16.237 -0.0232  0.5302 -0.9660
 3591TIP3    H132264   3.499   5.820  16.250  1.4494  0.0178 -1.2274
 3591TIP3    H232265   3.489   5.959  16.311  3.9352 -1.3440  2.6925
 3592TIP3   OH232266   0.444   4.564  12.175 -0.0016 -0.4195 -0.6185
 3592TIP3    H132267   0.511   4.575  12.243  1.5090  0.5617 -2.1839
 3592TIP3    H232268   0.493   4.545  12.095 -1.7024 -1.2349 -1.5384
 3593TIP3   OH232269   5.866   3.252   1.292  0.6094 -0.4300  0.2378
 3593TIP3    H132270   5.785   3.293   1.320  2.1704  1.0855  2.9255
 3593TIP3    H232271   5.885   3.186   1.360  1.5887 -0.8044 -0.3659
 3594TIP3   OH232272   6.029   2.174   3.121  0.7064  0.0390 -0.8553
 3594TIP3    H132273   6.061   2.172   3.031  0.7508  4.1632 -1.1313
 3594TIP3    H232274   6.040   2.085   3.152  1.3056 -1.4314 -4.6902
 3595TIP3   OH232275   5.185   0.243  14.275  0.6860  0.1835 -0.1816
 3595TIP3    H132276   5.246   0.274  14.342 -0.3063  0.1949  0.7403
 3595TIP3    H232277   5.102   0.286  14.296 -0.0364 -1.0134 -0.4755
 3596TIP3   OH232278   6.806   4.538   5.664  0.2677  0.3677 -0.2105
 3596TIP3    H132279   6.901   4.539   5.679  0.3171  0.3803 -0.5122
 3596TIP3    H232280   6.797   4.532   5.568 -0.0163 -2.7312 -0.1006
 3597TIP3   OH232281   6.690   5.089   4.093 -0.5551  0.1571  0.4182
 3597TIP3    H132282   6.779   5.103   4.061 -1.2320 -1.5248 -2.5474
 3597TIP3    H232283   6.701   5.043   4.176  1.3329  0.1249  0.1938
 3598TIP3   OH232284   4.289   5.944  16.436  0.1620  0.6461 -0.7447
 3598TIP3    H132285   4.258   6.025  16.477  0.4436  0.3559  0.0550
 3598TIP3    H232286   4.376   5.965  16.403 -0.3307  1.0763 -1.8143
 3599TIP3   OH232287   4.854   2.968  10.690  0.0996  0.3461  0.0249
 3599TIP3    H132288   4.819   2.913  10.761  0.1614  0.2340 -0.0297
 3599TIP3    H232289   4.776   3.004  10.648  0.0510  0.1785 -0.0327
 3600TIP3   OH232290   6.842   1.776   0.151 -0.1314  0.2447 -0.0067
 3600TIP3    H132291   6.786   1.840   0.106 -0.1098 -0.5714 -1.2474
 3600TIP3    H232292   6.824   1.693   0.107  0.3444 -0.4836  1.1244
 3601TIP3   OH232293   6.650   5.468  15.449 -0.2794 -0.2895 -0.2243
 3601TIP3    H132294   6.724   5.502  15.500 -1.3589  2.9131 -0.5643
 3601TIP3    H232295   6.683   5.386  15.412  2.8008  0.5437  0.3223
 3602TIP3   OH232296   4.479   0.298  14.499 -0.1571  0.2058  0.5894
 3602TIP3    H132297   4.422   0.262  14.431  0.8113 -0.6939  0.2322
 3602TIP3    H232298   4.430   0.285  14.581 -0.3351 -0.8390  0.3213
 3603TIP3   OH232299   1.138   3.340  17.070  0.3454 -0.0050  0.2126
 3603TIP3    H132300   1.124   3.421  17.021  2.3648 -0.2908 -0.8958
 3603TIP3    H232301   1.171   3.370  17.155 -0.8909  0.3850  0.5847
 3604TIP3   OH232302   6.118   2.289  16.275 -0.2557 -0.1270 -0.3565
 3604TIP3    H132303   6.111   2.196  16.254 -1.0993  0.2314 -1.7330
 3604TIP3    H232304   6.028   2.318  16.284 -0.0024  0.6456 -0.3074
 3605TIP3   OH232305   6.721   0.511  13.372  0.2567 -0.1793  0.3511
 3605TIP3    H132306   6.723   0.560  13.290 -0.1472  0.9233  0.9821
 3605TIP3    H232307   6.790   0.445  13.362  0.9207  0.6122 -0.4599
 3606TIP3   OH232308   3.302   1.118   3.126 -0.1875  0.4295 -0.0283
 3606TIP3    H132309   3.241   1.144   3.194 -0.3128 -1.2887  0.5794
 3606TIP3    H232310   3.381   1.091   3.173 -0.6413 -1.7845 -0.4043
 3607TIP3   OH232311   2.269   6.028  12.710  0.4834  0.7725 -0.9830
 3607TIP3    H132312   2.295   6.021  12.618  2.4697 -1.1053 -0.3642
 3607TIP3    H232313   2.343   6.070  12.753 -0.4498  1.6818 -0.2081
 3608TIP3   OH232314   3.830   6.004  14.716 -0.2235 -0.4753 -0.0873
 3608TIP3    H132315   3.906   6.062  14.715 -0.4026 -0.2201  0.6186
 3608TIP3    H232316   3.863   5.922  14.752 -0.3916 -0.1962  0.7235
 3609TIP3   OH232317   0.192   4.149   1.646  0.2671  0.4410 -0.6964
 3609TIP3    H132318   0.208   4.056   1.630 -0.0794 -0.0022  1.2241
 3609TIP3    H232319   0.277   4.183   1.675 -0.0520  0.2162  0.5777
 3610TIP3   OH232320   3.427   0.633  13.559 -0.3640 -0.2360 -0.0714
 3610TIP3    H132321   3.489   0.637  13.486 -0.2411 -0.5708  0.0118
 3610TIP3    H232322   3.472   0.581  13.626  0.3622  1.7627  1.0623
 3611TIP3   OH232323   1.322   6.061  11.468  0.2425  0.0493  0.3384
 3611TIP3    H132324   1.323   6.144  11.420  2.1600  0.1502  0.4767
 3611TIP3    H232325   1.412   6.049  11.498  0.6589 -3.2660 -1.6887
 3612TIP3   OH232326   4.795   5.428   5.317 -0.4145  0.5987 -0.1568
 3612TIP3    H132327   4.704   5.413   5.293  0.0775 -0.8828 -1.2738
 3612TIP3    H232328   4.797   5.516   5.353 -2.2976  0.6124 -0.0345
 3613TIP3   OH232329   3.685   0.048   5.393 -0.0809  0.5287  0.0714
 3613TIP3    H132330   3.616   0.105   5.357  1.1755  1.8143 -0.3670
 3613TIP3    H232331   3.717   0.094   5.470  0.7256  0.2401 -0.0861
 3614TIP3   OH232332   2.630   0.670  15.424  0.3755  0.1347 -0.0044
 3614TIP3    H132333   2.721   0.644  15.438  0.4213  1.4133  2.8861
 3614TIP3    H232334   2.601   0.700  15.510 -1.5384  3.5576 -1.6405
 3615TIP3   OH232335   5.880   5.555  10.435 -0.3171  0.9113 -0.0101
 3615TIP3    H132336   5.950   5.521  10.491  0.0498  2.1375  0.3220
 3615TIP3    H232337   5.804   5.500  10.455  0.5688 -0.5251 -0.4684
 3616TIP3   OH232338   3.518   2.618   6.151 -0.1848 -0.0801  0.6874
 3616TIP3    H132339   3.534   2.669   6.231 -1.5051  1.2776  0.1424
 3616TIP3    H232340   3.451   2.668   6.104 -0.2358 -1.4255 -0.7525
 3617TIP3   OH232341   0.157   4.597  10.776  0.1454 -0.1103  0.6964
 3617TIP3    H132342   0.200   4.680  10.794  0.2927 -0.3449  1.4532
 3617TIP3    H232343   0.072   4.604  10.820 -0.3178  0.0815 -0.2063
 3618TIP3   OH232344   5.061   5.253  13.167 -0.2911 -0.3551 -0.1103
 3618TIP3    H132345   5.094   5.265  13.077  1.6328 -1.4540  0.3849
 3618TIP3    H232346   5.054   5.158  13.177 -1.3365 -0.2175  0.6469
 3619TIP3   OH232347   1.224   3.767   0.305 -0.0593 -0.1246  0.4227
 3619TIP3    H132348   1.318   3.773   0.319  0.0103 -0.2970  0.0446
 3619TIP3    H232349   1.202   3.677   0.330 -0.1778  0.0054  0.8012
 3620TIP3   OH232350   2.010   4.080   5.350  0.4742  0.0121 -0.2468
 3620TIP3    H132351   1.976   4.049   5.434 -1.3067 -0.1747 -0.9962
 3620TIP3    H232352   2.055   4.003   5.314  0.3226 -0.2284  0.0647
 3621TIP3   OH232353   3.484   3.063  13.366  0.1332  0.0143  0.0961
 3621TIP3    H132354   3.468   3.151  13.402  1.3193 -0.0904  0.9447
 3621TIP3    H232355   3.563   3.073  13.313  0.6627 -0.6595  0.7364
 3622TIP3   OH232356   3.657   1.495  15.565  0.1111 -0.4480  0.5559
 3622TIP3    H132357   3.746   1.493  15.602 -0.0770  0.0576  1.0466
 3622TIP3    H232358   3.614   1.418  15.602 -0.1914  0.2475  1.7237
 3623TIP3   OH232359   6.847   2.932   6.253 -0.4122 -0.5273  0.0253
 3623TIP3    H132360   6.923   2.989   6.265 -0.3765 -0.6787  0.5237
 3623TIP3    H232361   6.835   2.890   6.338 -0.5594 -1.1154 -0.2823
 3624TIP3   OH232362   2.443   4.520  11.971  0.4361  0.4121  0.7070
 3624TIP3    H132363   2.432   4.560  12.058 -2.1636  0.5594  0.3670
 3624TIP3    H232364   2.470   4.593  11.915  0.1762  0.7406  1.0044
 3625TIP3   OH232365   5.691   1.629   2.091  0.0202  0.2472  0.2324
 3625TIP3    H132366   5.597   1.613   2.099 -0.5799  2.3046 -1.7996
 3625TIP3    H232367   5.707   1.708   2.143  0.8720 -0.6850  1.4411
 3626TIP3   OH232368   5.708   2.694  16.507 -0.9921 -0.7531  0.0507
 3626TIP3    H132369   5.756   2.750  16.447 -0.9279 -0.3629  0.4574
 3626TIP3    H232370   5.775   2.658  16.565 -1.1602 -0.3531  0.5021
 3627TIP3   OH232371   4.697   1.398   5.296  0.1926  0.1698 -0.0573
 3627TIP3    H132372   4.738   1.465   5.241  1.1904  0.1369  0.6147
 3627TIP3    H232373   4.603   1.413   5.286  0.3737  0.6275 -1.1824
 3628TIP3   OH232374   2.419   1.743   1.047  0.0307  0.0234 -0.0034
 3628TIP3    H132375   2.498   1.719   0.998  0.4454  0.6216  0.3680
 3628TIP3    H232376   2.428   1.698   1.131  0.9928  1.7243  0.8427
 3629TIP3   OH232377   6.051   4.222  15.539  0.1027 -0.0648  1.0074
 3629TIP3    H132378   6.017   4.289  15.480 -0.2045 -1.1424 -0.0694
 3629TIP3    H232379   5.992   4.224  15.615 -0.4874  0.2074  0.5431
 3630TIP3   OH232380   4.473   0.137  12.648  0.5017 -0.4761 -0.0645
 3630TIP3    H132381   4.419   0.135  12.727  0.1653 -2.1281 -0.3109
 3630TIP3    H232382   4.409   0.141  12.576  0.7881  0.2229 -0.2874
 3631TIP3   OH232383   3.655   2.850   6.030  0.2060 -0.1448 -0.9753
 3631TIP3    H132384   3.579   2.882   6.079  0.2537 -0.5685 -0.6220
 3631TIP3    H232385   3.702   2.929   6.004 -0.5160  0.1393 -1.4580
 3632TIP3   OH232386   5.539   5.630   5.447  0.5933  0.4004  0.6534
 3632TIP3    H132387   5.446   5.639   5.466  0.2872  0.1442 -0.6488
 3632TIP3    H232388   5.581   5.634   5.533 -0.5289  1.4600  1.1835
 3633TIP3   OH232389   2.655   2.059  15.007 -1.2023  0.3362 -0.0131
 3633TIP3    H132390   2.734   2.011  15.034 -0.9574  0.6287 -0.1962
 3633TIP3    H232391   2.685   2.115  14.936 -1.5508  0.5439  0.0027
 3634TIP3   OH232392   4.437   3.481   6.558  0.3234 -0.6660  0.1033
 3634TIP3    H132393   4.427   3.560   6.505 -1.7863 -1.4081 -0.7243
 3634TIP3    H232394   4.398   3.504   6.642  0.3149 -0.6322  0.0900
 3635TIP3   OH232395   1.418   4.320   4.130 -0.1771 -0.4729 -0.3210
 3635TIP3    H132396   1.386   4.291   4.044  0.9516 -1.7508 -0.3441
 3635TIP3    H232397   1.340   4.325   4.185 -0.8219 -0.3253 -1.2303
 3636TIP3   OH232398   4.615   1.202  12.044  0.1455 -0.1174 -0.1964
 3636TIP3    H132399   4.663   1.214  11.962  0.2126  0.6270 -0.0497
 3636TIP3    H232400   4.541   1.263  12.038  1.2791  1.4651  1.1684
 3637TIP3   OH232401   0.147   1.257   5.284 -0.1212  0.3676  0.3389
 3637TIP3    H132402   0.147   1.353   5.289 -0.1468  0.2931  3.4210
 3637TIP3    H232403   0.055   1.233   5.293 -0.1645  0.0344 -0.8813
 3638TIP3   OH232404   6.782   3.799  11.140 -0.7687 -0.0148 -0.0313
 3638TIP3    H132405   6.795   3.738  11.067  2.3455  0.6779 -0.2031
 3638TIP3    H232406   6.743   3.877  11.099 -1.7405 -0.6575 -0.3779
 3639TIP3   OH232407   0.701   3.299  13.781 -0.7295  0.2061 -0.2242
 3639TIP3    H132408   0.741   3.232  13.838 -0.0372 -0.4385 -1.4376
 3639TIP3    H232409   0.663   3.362  13.842  0.5693 -0.1162  0.9669
 3640TIP3   OH232410   2.475   3.666  14.519  1.0171 -0.2527 -0.0266
 3640TIP3    H132411   2.557   3.715  14.523  0.7326  0.1705  2.4911
 3640TIP3    H232412   2.502   3.574  14.518  1.5092 -0.1097 -0.8825
 3641TIP3   OH232413   1.049   6.278  11.981 -0.2598  0.0232  0.3618
 3641TIP3    H132414   1.130   6.323  11.956  0.9117 -2.1029  0.0584
 3641TIP3    H232415   1.032   6.307  12.070  0.4909  0.9798  0.2125
 3642TIP3   OH232416   4.328   0.564  12.254  0.0054 -0.8055  0.2051
 3642TIP3    H132417   4.395   0.546  12.320  0.6850 -2.5610 -0.8895
 3642TIP3    H232418   4.369   0.542  12.171 -1.4821 -0.5825 -0.6305
 3643TIP3   OH232419   3.851   2.184   4.583 -0.2200 -0.5677  0.1050
 3643TIP3    H132420   3.796   2.123   4.533  0.0238 -0.7499  0.0621
 3643TIP3    H232421   3.890   2.130   4.652 -1.6841 -0.0483  1.4164
 3644TIP3   OH232422   5.096   5.271   2.088 -0.1773  0.4405 -0.1990
 3644TIP3    H132423   5.021   5.212   2.092  1.0138 -1.1268 -0.0570
 3644TIP3    H232424   5.064   5.353   2.126 -1.8412 -0.1473 -0.2638
 3645TIP3   OH232425   0.789   6.149  12.024 -0.0735  0.4040  0.4294
 3645TIP3    H132426   0.810   6.159  12.116 -1.6964 -0.8804  0.9983
 3645TIP3    H232427   0.871   6.119  11.983  0.1288 -1.2221  1.9011
 3646TIP3   OH232428   3.232   6.743  13.531  0.1030  0.2469 -0.5775
 3646TIP3    H132429   3.189   6.677  13.585  0.7366 -0.6126 -1.0910
 3646TIP3    H232430   3.184   6.740  13.448 -0.1857  0.7903 -0.4297
 3647TIP3   OH232431   2.919   1.162   4.511  0.1579  0.0600  0.0060
 3647TIP3    H132432   2.920   1.145   4.416 -0.3177  0.4689 -0.0792
 3647TIP3    H232433   2.937   1.077   4.551 -2.4750 -0.7828 -0.3985
 3648TIP3   OH232434   4.682   0.270   4.149  0.1688 -0.4121 -0.2484
 3648TIP3    H132435   4.768   0.271   4.106  0.7244 -2.4642  0.7139
 3648TIP3    H232436   4.637   0.195   4.111 -0.4359 -0.5450  0.6978
 3649TIP3   OH232437   2.708   0.067   2.284 -0.0416  0.1383  0.3809
 3649TIP3    H132438   2.675   0.022   2.206  0.3299 -0.0436  0.3268
 3649TIP3    H232439   2.691   0.005   2.355 -1.2222  0.6787  0.5955
 3650TIP3   OH232440   5.216   2.689   3.933  0.1091  0.0682  0.3525
 3650TIP3    H132441   5.246   2.660   4.019  0.8555  1.1503  0.4767
 3650TIP3    H232442   5.173   2.773   3.949 -1.7859 -0.7687 -0.0334
 3651TIP3   OH232443   5.817   1.367  15.640  0.2997  0.1222 -0.1169
 3651TIP3    H132444   5.845   1.306  15.708  0.8812 -1.5899 -1.8006
 3651TIP3    H232445   5.741   1.324  15.599 -2.2820  2.7080  1.5801
 3652TIP3   OH232446   1.276   5.651   4.058  0.2014 -0.0436 -0.2291
 3652TIP3    H132447   1.191   5.683   4.091  0.4463 -2.0263  2.7185
 3652TIP3    H232448   1.261   5.558   4.043  1.9258 -0.4989  0.7123
 3653TIP3   OH232449   2.339   0.764   6.392  0.5919 -0.0101 -0.6105
 3653TIP3    H132450   2.400   0.828   6.354 -0.2582 -0.0797 -2.1574
 3653TIP3    H232451   2.279   0.816   6.445 -0.4145  0.5978 -2.2745
 3654TIP3   OH232452   4.431   1.590  12.487  0.1483  0.4247  0.4324
 3654TIP3    H132453   4.365   1.609  12.555 -1.2183  2.3419 -1.2765
 3654TIP3    H232454   4.512   1.577  12.535 -1.4164 -2.0454  2.6532
 3655TIP3   OH232455   3.884   5.100  14.752 -0.6724 -0.0565  0.4496
 3655TIP3    H132456   3.913   5.044  14.680  0.3655 -1.7155  2.0669
 3655TIP3    H232457   3.791   5.114  14.735 -0.6920 -1.2915 -0.6607
 3656TIP3   OH232458   3.803   6.100   3.299  0.0017 -0.0432 -0.2755
 3656TIP3    H132459   3.758   6.044   3.362  0.5901 -0.4823 -0.2382
 3656TIP3    H232460   3.825   6.179   3.349  2.3837 -1.2293  0.7557
 3657TIP3   OH232461   6.649   1.937   2.621 -0.2816  0.3308  0.5562
 3657TIP3    H132462   6.613   1.987   2.694 -1.1450 -1.8867  1.7743
 3657TIP3    H232463   6.668   1.851   2.658  3.8295  0.4878 -0.7203
 3658TIP3   OH232464   6.484   4.285  14.811 -0.2944  0.2634  0.4118
 3658TIP3    H132465   6.420   4.247  14.750  0.0541 -0.2773  0.3784
 3658TIP3    H232466   6.463   4.244  14.895 -0.3903  0.5579  0.5312
 3659TIP3   OH232467   2.463   0.597  11.179  0.1341  0.4341 -0.5152
 3659TIP3    H132468   2.526   0.653  11.133 -0.5869  3.0511  1.4544
 3659TIP3    H232469   2.517   0.528  11.218  1.4636  1.2710 -0.8008
 3660TIP3   OH232470   4.724   5.187   5.628 -0.2803  0.0022  0.7354
 3660TIP3    H132471   4.748   5.210   5.718  1.1377 -1.1776  0.7006
 3660TIP3    H232472   4.630   5.167   5.632  0.0799 -1.5814  2.3053
 3661TIP3   OH232473   4.836   6.730   1.546  0.0749  0.6816  0.0830
 3661TIP3    H132474   4.824   6.782   1.625 -0.9594  0.6415 -0.0283
 3661TIP3    H232475   4.908   6.670   1.567  0.4921  1.3629  0.6179
 3662TIP3   OH232476   6.173   3.724   2.914  0.2341 -0.5643  0.1735
 3662TIP3    H132477   6.185   3.765   2.829  2.7322  0.7469  1.0330
 3662TIP3    H232478   6.125   3.789   2.965  0.5042 -0.4724  0.3163
 3663TIP3   OH232479   1.762   1.720   4.068  0.2269  0.0916  0.1892
 3663TIP3    H132480   1.830   1.686   4.010  1.6286 -1.5959  2.6285
 3663TIP3    H232481   1.717   1.642   4.100 -1.6715  1.0778  0.0737
 3664TIP3   OH232482   1.257   1.797   1.640 -0.0696  0.5697 -0.0156
 3664TIP3    H132483   1.300   1.850   1.707 -1.7973  1.0784  0.7453
 3664TIP3    H232484   1.233   1.716   1.685  2.2913 -0.8410 -1.0966
 3665TIP3   OH232485   4.875   6.371   6.359  0.0717 -0.6153  0.0257
 3665TIP3    H132486   4.822   6.384   6.437  1.4323  0.6250  0.7970
 3665TIP3    H232487   4.861   6.451   6.307  1.1647 -0.2597  0.2506
 3666TIP3   OH232488   1.114   3.420   2.336  0.9557  0.1499 -0.0668
 3666TIP3    H132489   1.028   3.410   2.295  0.3748 -0.5979  1.2647
 3666TIP3    H232490   1.176   3.388   2.271 -0.0419 -2.3164  0.0853
 3667TIP3   OH232491   6.509   6.581  13.082  0.0414  0.2593 -0.2704
 3667TIP3    H132492   6.506   6.591  13.177  0.2831 -0.8303 -0.1313
 3667TIP3    H232493   6.418   6.573  13.055  0.0300 -0.9879  0.0746
 3668TIP3   OH232494   0.195   6.454  11.694  0.6862 -0.4512  0.3405
 3668TIP3    H132495   0.199   6.536  11.645  1.1634 -0.4785  0.3330
 3668TIP3    H232496   0.136   6.473  11.767 -0.0706 -0.4236 -0.2628
 3669TIP3   OH232497   2.766   2.343   5.719  0.0127  0.6073 -0.5597
 3669TIP3    H132498   2.715   2.267   5.693 -0.2896  0.7979 -0.5282
 3669TIP3    H232499   2.783   2.330   5.812  1.0495 -0.0484 -0.8222
 3670TIP3   OH232500   2.200   4.256  14.419  0.3511 -0.3952  0.6426
 3670TIP3    H132501   2.105   4.268  14.422 -0.1946 -3.2361 -1.4502
 3670TIP3    H232502   2.236   4.344  14.436 -2.6842  1.4053 -1.3588
 3671TIP3   OH232503   2.416   1.422   6.349 -0.2621 -0.0983  0.2909
 3671TIP3    H132504   2.456   1.337   6.364  1.1573  0.6243  0.7826
 3671TIP3    H232505   2.433   1.441   6.257 -0.6275 -0.3635  0.1674
 3672TIP3   OH232506   0.223   5.806  16.028 -0.1934 -0.2325  0.2278
 3672TIP3    H132507   0.207   5.822  15.935  0.1713  0.0921  0.2193
 3672TIP3    H232508   0.317   5.817  16.039 -0.2789  0.0554  0.6988
 3673TIP3   OH232509   6.552   0.963  16.462  0.0375 -0.2338  0.0564
 3673TIP3    H132510   6.463   0.980  16.493  0.7330  0.9812  1.4931
 3673TIP3    H232511   6.559   1.011  16.380 -0.1545  1.0333  0.7503
 3674TIP3   OH232512   4.537   4.349  11.318 -0.1257  0.1092  0.2500
 3674TIP3    H132513   4.610   4.410  11.328  0.0807 -0.2144  0.7762
 3674TIP3    H232514   4.508   4.361  11.228  1.4941 -0.7596 -0.4462
 3675TIP3   OH232515   3.835   2.239  14.141 -0.2815  0.4595  0.2224
 3675TIP3    H132516   3.870   2.318  14.182  0.3278 -1.5695  4.0706
 3675TIP3    H232517   3.904   2.174  14.152 -1.4545 -1.1159 -1.2007
 3676TIP3   OH232518   0.353   0.558  16.148 -0.5226 -0.5380  0.5431
 3676TIP3    H132519   0.402   0.528  16.225 -0.6860 -0.6127  0.6186
 3676TIP3    H232520   0.313   0.641  16.177  2.5233  1.5209 -0.6393
 3677TIP3   OH232521   2.010   5.183   0.070 -0.0059 -0.7538  0.0962
 3677TIP3    H132522   1.958   5.186  -0.010  0.2199  1.3337 -0.0240
 3677TIP3    H232523   1.986   5.262   0.118  1.9612 -0.4757  0.7176
 3678TIP3   OH232524   4.902   6.042  16.836  0.1694  0.1982 -0.0169
 3678TIP3    H132525   4.814   6.010  16.852  0.6519 -2.1274 -1.4585
 3678TIP3    H232526   4.958   5.985  16.889  1.0229 -1.2141 -2.2689
 3679TIP3   OH232527   0.176   2.125  13.570  0.4337  0.6064 -0.0736
 3679TIP3    H132528   0.126   2.190  13.620  2.6343  1.6641  0.9161
 3679TIP3    H232529   0.197   2.056  13.633 -0.2363 -0.1212 -0.6251
 3680TIP3   OH232530   0.022   0.819   3.500 -0.4332  0.0118 -0.1220
 3680TIP3    H132531   0.115   0.836   3.510 -0.4837  0.3507 -0.2141
 3680TIP3    H232532  -0.013   0.898   3.459 -0.8303  0.0551  0.2887
 3681TIP3   OH232533   3.736   1.174   3.773  0.4255 -0.0693 -0.5546
 3681TIP3    H132534   3.696   1.251   3.732  0.7921  0.0297 -0.7232
 3681TIP3    H232535   3.804   1.146   3.712 -0.7065 -1.4597 -1.2490
 3682TIP3   OH232536   1.475   2.799   3.156 -0.3467 -0.7037  0.0483
 3682TIP3    H132537   1.389   2.830   3.187  0.6474 -0.4221  2.8382
 3682TIP3    H232538   1.474   2.705   3.171 -0.0306 -0.6353  0.5318
 3683TIP3   OH232539   5.024   0.408   3.032  0.3216 -0.1495 -0.7748
 3683TIP3    H132540   5.114   0.412   2.999 -0.0637  1.9868 -1.7411
 3683TIP3    H232541   5.031   0.437   3.123  0.5965  0.2339 -0.9130
 3684TIP3   OH232542   4.315   0.619   3.202 -0.5612  0.0460  0.2368
 3684TIP3    H132543   4.222   0.623   3.179 -0.6441 -1.5085  0.1865
 3684TIP3    H232544   4.360   0.600   3.120 -0.1399  1.0469  0.2107
 3685TIP3   OH232545   2.567   2.706   5.733 -0.0841 -0.3375  0.6279
 3685TIP3    H132546   2.492   2.740   5.685 -0.3195  0.5170  1.5498
 3685TIP3    H232547   2.570   2.613   5.711  1.3898  0.4170 -3.0747
 3686TIP3   OH232548   0.124   2.656   0.249  0.4775  0.6945  0.0311
 3686TIP3    H132549   0.209   2.659   0.294  0.4785  0.3070  0.0631
 3686TIP3    H232550   0.061   2.636   0.318  0.8859 -3.5130 -0.5499
 3687TIP3   OH232551   0.819   1.230  15.271 -0.3144  0.1102  0.5311
 3687TIP3    H132552   0.872   1.184  15.206  0.5337  0.8731  0.6666
 3687TIP3    H232553   0.845   1.322  15.264  0.1648  0.1544  2.2633
 3688TIP3   OH232554   2.445   6.121  13.738 -0.1604  0.2985  0.1208
 3688TIP3    H132555   2.470   6.175  13.664  2.0093  0.9585  1.2581
 3688TIP3    H232556   2.455   6.031  13.707  1.2839  0.5607 -0.2400
 3689TIP3   OH232557   3.924   5.798  11.573  0.3129  0.0424  0.4262
 3689TIP3    H132558   3.942   5.757  11.657  0.7594  0.7374  0.6820
 3689TIP3    H232559   3.832   5.779  11.555  0.5964 -1.3264  0.3754
 3690TIP3   OH232560   6.309   3.918  12.982  0.3364 -1.1850  0.9132
 3690TIP3    H132561   6.332   3.922  12.889 -0.0005  1.9486  0.8565
 3690TIP3    H232562   6.367   3.982  13.024 -0.5959 -1.3803  2.5895
 3691TIP3   OH232563   1.301   0.332  14.123  0.4576 -0.0615 -0.5277
 3691TIP3    H132564   1.355   0.359  14.197  0.6092 -2.2100  0.2338
 3691TIP3    H232565   1.364   0.303  14.057  0.3002  1.1758 -1.2495
 3692TIP3   OH232566   4.463   4.758  15.156  0.0910  0.8899  0.5969
 3692TIP3    H132567   4.478   4.808  15.236  2.2525  3.0223 -0.9652
 3692TIP3    H232568   4.551   4.740  15.122 -0.7337  0.1917 -1.3378
 3693TIP3   OH232569   4.926   5.411   1.032  0.4434  0.4360  0.6526
 3693TIP3    H132570   4.992   5.346   1.056  0.0025 -0.0740  0.5143
 3693TIP3    H232571   4.853   5.395   1.092 -0.1080  0.0649 -0.0870
 3694TIP3   OH232572   6.086   0.846  13.418  0.0134  0.1923 -0.1355
 3694TIP3    H132573   6.164   0.897  13.435 -0.4975  0.9464  0.0002
 3694TIP3    H232574   6.078   0.787  13.493 -0.4585  1.2696  0.6838
 3695TIP3   OH232575   2.468   5.735  16.241  0.1074  0.3456  0.0417
 3695TIP3    H132576   2.413   5.721  16.318  0.1251  1.1407  0.2105
 3695TIP3    H232577   2.505   5.823  16.254  1.8408 -0.3717  0.1912
 3696TIP3   OH232578   3.348   4.283   6.702 -0.2556  0.2640  0.5691
 3696TIP3    H132579   3.417   4.326   6.651  0.9054  0.6274  2.3482
 3696TIP3    H232580   3.325   4.347   6.770  0.8182 -1.4706  2.6917
 3697TIP3   OH232581   6.306   4.707   3.514 -0.2796  0.2397  0.0882
 3697TIP3    H132582   6.225   4.726   3.467  0.7821  0.5378 -1.7292
 3697TIP3    H232583   6.285   4.632   3.570 -2.0198  0.8669  0.3145
 3698TIP3   OH232584   1.387   4.567  16.887 -0.0936 -0.2241 -0.6425
 3698TIP3    H132585   1.334   4.548  16.809  0.0231 -0.9264 -0.5582
 3698TIP3    H232586   1.333   4.627  16.938  0.7908  2.1409 -2.3285
 3699TIP3   OH232587   1.889   2.977  11.327 -0.1767  0.5145  0.1079
 3699TIP3    H132588   1.800   2.942  11.321 -0.4638  0.4849  3.0473
 3699TIP3    H232589   1.926   2.936  11.405  1.2242  3.0312  0.8926
 3700TIP3   OH232590   4.501   1.334   3.949 -0.1654 -0.4936 -0.3535
 3700TIP3    H132591   4.451   1.408   3.983 -1.2421 -1.3051 -0.0972
 3700TIP3    H232592   4.510   1.275   4.023  1.5813 -0.1883 -0.2798
 3701TIP3   OH232593   0.985   1.468   3.210  0.1252 -0.1538 -0.0618
 3701TIP3    H132594   0.945   1.552   3.189  0.0132  0.1180  1.1435
 3701TIP3    H232595   0.962   1.453   3.302 -0.8417 -2.0734 -0.5661
 3702TIP3   OH232596   0.909   3.844  11.095  0.2272 -0.0414 -0.8880
 3702TIP3    H132597   0.848   3.912  11.123  1.2786  0.7861 -0.5306
 3702TIP3    H232598   0.873   3.763  11.130 -0.2059  0.5429  0.0632
 3703TIP3   OH232599   2.663   2.756   1.362  0.5917 -0.5749  0.1447
 3703TIP3    H132600   2.592   2.810   1.395  1.0123  0.0915 -0.0215
 3703TIP3    H232601   2.742   2.808   1.379  0.8598 -0.4280 -1.4375
 3704TIP3   OH232602   4.136   5.004  14.608 -0.3480  0.9976 -0.3145
 3704TIP3    H132603   4.181   4.921  14.620  1.6476  1.9584 -0.6540
 3704TIP3    H232604   4.095   4.998  14.522  0.5457  0.6809 -0.7233
 3705TIP3   OH232605   2.102   1.198  14.976  0.5176  0.3742  0.3828
 3705TIP3    H132606   2.041   1.267  14.952 -2.0426 -1.8337  0.1094
 3705TIP3    H232607   2.156   1.186  14.898  0.3829  1.4200  0.1170
 3706TIP3   OH232608   4.950   0.773  13.038  0.3174 -0.8627 -0.2336
 3706TIP3    H132609   4.928   0.806  12.951  1.4033  0.7294  0.0456
 3706TIP3    H232610   4.867   0.741  13.073 -0.3029 -0.7205 -1.5096
 3707TIP3   OH232611   0.634   6.508  14.173  0.3497 -0.0328  0.1685
 3707TIP3    H132612   0.677   6.423  14.178  0.2526 -0.1476 -0.9033
 3707TIP3    H232613   0.541   6.488  14.188  0.1676 -0.2779 -1.1840
 3708TIP3   OH232614   1.134   2.139  14.115 -0.0114  0.4132 -0.5486
 3708TIP3    H132615   1.228   2.121  14.106  0.1468  1.0195 -0.1413
 3708TIP3    H232616   1.129   2.213  14.176 -0.8053 -0.2492  0.2060
 3709TIP3   OH232617   6.558   2.144   2.446 -0.2455 -0.2850 -0.3540
 3709TIP3    H132618   6.605   2.185   2.518  0.4851  0.6792 -1.3507
 3709TIP3    H232619   6.502   2.079   2.488  1.4191 -0.9581  0.9435
 3710TIP3   OH232620   2.657   5.407   3.280  0.6261 -0.0966 -0.0078
 3710TIP3    H132621   2.631   5.497   3.302  1.8889  0.4657 -0.7166
 3710TIP3    H232622   2.656   5.361   3.364  0.7214  0.7722  0.4870
 3711TIP3   OH232623   2.890   5.708  12.248  0.1148  0.2674  0.5124
 3711TIP3    H132624   2.842   5.790  12.259 -0.3085  0.2175 -0.8048
 3711TIP3    H232625   2.979   5.735  12.224  0.7323  0.3530  2.6401
 3712TIP3   OH232626   2.687   4.355   4.720  0.7248 -0.3458  0.1778
 3712TIP3    H132627   2.698   4.280   4.778 -2.2160 -2.1682 -1.3884
 3712TIP3    H232628   2.626   4.412   4.767  1.6127  0.2671  0.6172
 3713TIP3   OH232629   1.009   6.739   4.910 -0.6619 -0.5967 -0.0929
 3713TIP3    H132630   0.959   6.660   4.890 -1.0926  0.3922 -3.5648
 3713TIP3    H232631   1.095   6.724   4.871  0.0921 -0.2514  1.3564
 3714TIP3   OH232632   5.614   5.414  12.444 -0.1617 -0.5268 -0.4338
 3714TIP3    H132633   5.544   5.474  12.419  0.5427  0.1205 -0.8742
 3714TIP3    H232634   5.633   5.436  12.534 -0.0129 -0.1981 -0.5452
 3715TIP3   OH232635   6.754   6.627   4.226  0.5299  0.0085  0.1317
 3715TIP3    H132636   6.718   6.623   4.137  1.0985 -0.3783 -0.0804
 3715TIP3    H232637   6.704   6.561   4.275  1.6836 -1.3218 -0.4349
 3716TIP3   OH232638   4.321   6.323   4.883 -0.1614 -0.0460 -0.1936
 3716TIP3    H132639   4.321   6.240   4.835  0.6735  0.0408 -0.3704
 3716TIP3    H232640   4.241   6.321   4.935 -2.4711  0.9208 -3.3911
 3717TIP3   OH232641   5.863   2.219   0.639 -0.2642 -0.4779  0.1517
 3717TIP3    H132642   5.873   2.240   0.546 -1.6547 -2.8341 -0.6020
 3717TIP3    H232643   5.780   2.172   0.644  1.1600 -2.9950  2.0890
 3718TIP3   OH232644   3.442   4.140   2.170  0.1850 -0.2356  0.0316
 3718TIP3    H132645   3.397   4.112   2.250  1.3413  0.7068  1.0413
 3718TIP3    H232646   3.506   4.071   2.154 -2.1092 -2.1034 -1.9698
 3719TIP3   OH232647   1.142   5.282  12.769 -0.1118  0.0449 -0.2729
 3719TIP3    H132648   1.132   5.197  12.812 -2.7728  0.5712  0.3229
 3719TIP3    H232649   1.095   5.273  12.686  0.6326  0.5967 -0.7739
 3720TIP3   OH232650   4.638   4.209   5.331  0.1153  0.0177 -0.0401
 3720TIP3    H132651   4.560   4.168   5.369 -0.7902  1.5231 -0.1751
 3720TIP3    H232652   4.711   4.155   5.361 -0.9718 -1.4132  0.1211
 3721TIP3   OH232653   3.859   5.989  13.750 -0.2255  0.4294 -0.2942
 3721TIP3    H132654   3.887   6.063  13.804  2.3875  0.0343 -0.9593
 3721TIP3    H232655   3.793   6.026  13.690 -1.2448  1.4503  1.3756
 3722TIP3   OH232656   4.419   6.722  13.494  0.0431  0.6937 -0.7147
 3722TIP3    H132657   4.335   6.766  13.485  0.2190  1.1965  0.0568
 3722TIP3    H232658   4.403   6.632  13.466 -0.9899  0.5199  0.3857
 3723TIP3   OH232659   2.358   6.237   2.046 -0.0410 -0.6401 -0.3486
 3723TIP3    H132660   2.321   6.148   2.041 -1.5199 -0.0007 -1.5071
 3723TIP3    H232661   2.283   6.295   2.034  0.8900  0.7883  0.4553
 3724TIP3   OH232662   2.681   0.162  17.077  0.7527 -0.1442 -0.1131
 3724TIP3    H132663   2.724   0.231  17.128  1.4654 -1.2451  0.8079
 3724TIP3    H232664   2.643   0.104  17.143 -1.0209  0.0738 -0.8929
 3725TIP3   OH232665   5.672   6.184  15.666  0.4876  1.0221 -0.2322
 3725TIP3    H132666   5.587   6.216  15.697  0.5796  0.2003  0.9404
 3725TIP3    H232667   5.725   6.176  15.745  0.5286 -1.8006 -0.4270
 3726TIP3   OH232668   4.009   3.208  11.142 -0.4201 -0.1487  0.4181
 3726TIP3    H132669   3.961   3.289  11.161 -0.3015 -0.4761  2.2571
 3726TIP3    H232670   4.089   3.214  11.195  0.0467 -1.0601 -0.1507
 3727TIP3   OH232671   6.779   4.701   3.279 -0.6640  0.3684 -0.0736
 3727TIP3    H132672   6.771   4.796   3.277 -0.2797  0.4457  1.3657
 3727TIP3    H232673   6.696   4.671   3.316 -0.1347  0.2648  1.0654
 3728TIP3   OH232674   2.380   4.927  16.155 -0.1348  0.7006  0.1075
 3728TIP3    H132675   2.296   4.925  16.110  0.8880  1.8348 -2.0286
 3728TIP3    H232676   2.416   5.013  16.133  1.2291  0.5598  1.6575
 3729TIP3   OH232677   6.389   3.815   4.959  0.0035 -0.3436 -0.2735
 3729TIP3    H132678   6.402   3.910   4.958  0.3988 -0.3868  0.5750
 3729TIP3    H232679   6.432   3.785   5.039  0.1181 -1.2768 -0.6698
 3730TIP3   OH232680   4.848   4.689   6.272  0.4018 -0.0416  0.5069
 3730TIP3    H132681   4.942   4.686   6.286  0.3326 -0.5988  0.8350
 3730TIP3    H232682   4.822   4.775   6.304  1.0788  0.9150 -1.3298
 3731TIP3   OH232683   1.801   4.732  15.389  0.0435 -0.0287  0.2441
 3731TIP3    H132684   1.767   4.807  15.341 -0.2473  1.3564  2.4925
 3731TIP3    H232685   1.778   4.657  15.334  1.6050  1.5362 -2.7809
 3732TIP3   OH232686   3.670   0.069  12.004 -0.3015 -0.3165  0.0806
 3732TIP3    H132687   3.588   0.088  11.959 -0.3399  0.5297  0.4856
 3732TIP3    H232688   3.681   0.143  12.065  1.0386 -0.1214 -0.3677
 3733TIP3   OH232689   1.204   2.812   0.155 -0.4002 -0.3730 -0.4394
 3733TIP3    H132690   1.272   2.745   0.162 -0.0710  0.1022  1.5621
 3733TIP3    H232691   1.251   2.893   0.138 -0.5556 -0.2060 -0.0807
 3734TIP3   OH232692   2.598   2.662   3.111 -0.1508 -0.2834  0.3667
 3734TIP3    H132693   2.596   2.749   3.151 -0.9328 -0.2295  0.2406
 3734TIP3    H232694   2.611   2.602   3.184 -0.4289 -0.1107  0.5615
 3735TIP3   OH232695   0.324   5.605   3.774 -0.2173 -0.6156  0.1484
 3735TIP3    H132696   0.355   5.560   3.853  0.5222  0.9204  0.7686
 3735TIP3    H232697   0.384   5.678   3.763 -1.8684  0.7440 -0.3046
 3736TIP3   OH232698   2.550   1.271  13.458 -0.5171 -0.0859 -0.3448
 3736TIP3    H132699   2.626   1.319  13.422 -0.4780  0.9518  1.0568
 3736TIP3    H232700   2.588   1.209  13.519 -0.8354  1.6330  1.7044
 3737TIP3   OH232701   2.677   5.559  12.593 -0.2160 -0.4272 -0.5792
 3737TIP3    H132702   2.601   5.612  12.615 -0.2960 -0.9358  0.4257
 3737TIP3    H232703   2.747   5.622  12.578  0.1240 -0.0131  2.2126
 3738TIP3   OH232704   6.509   5.614  16.807 -0.4976 -0.2748  0.6488
 3738TIP3    H132705   6.489   5.524  16.830 -0.5237 -0.4949 -0.2005
 3738TIP3    H232706   6.434   5.665  16.839 -1.3195 -0.7866 -0.4141
 3739TIP3   OH232707   5.048   3.975  15.354  1.0238 -0.1961  0.3452
 3739TIP3    H132708   5.027   4.046  15.414 -0.9986 -0.1234 -0.3792
 3739TIP3    H232709   5.071   4.019  15.272  1.3111 -0.3507  0.3405
 3740TIP3   OH232710   3.234   3.746  14.923 -0.1133 -0.3996  0.0344
 3740TIP3    H132711   3.224   3.665  14.873  0.5628 -0.1814 -0.4824
 3740TIP3    H232712   3.313   3.732  14.976 -0.1747 -0.2041  0.1779
 3741TIP3   OH232713   1.695   0.171   3.355  0.3950 -0.2584 -0.2609
 3741TIP3    H132714   1.652   0.120   3.423  0.9921 -2.5001 -1.4747
 3741TIP3    H232715   1.629   0.236   3.330 -0.6690 -0.8380  0.8695
 3742TIP3   OH232716   2.350   4.996  15.846 -0.0145  0.8155  0.1938
 3742TIP3    H132717   2.280   5.061  15.850 -2.4517 -1.6152 -0.2305
 3742TIP3    H232718   2.345   4.949  15.929  1.2877  0.7169  0.2388
 3743TIP3   OH232719   1.102   0.183  12.165  0.7644  0.3671 -0.4017
 3743TIP3    H132720   1.125   0.275  12.157  0.5721  0.8331  3.0367
 3743TIP3    H232721   1.187   0.138  12.166  1.0441  0.8707  0.7941
 3744TIP3   OH232722   0.081   3.536   3.984  0.7174  0.9284  0.1899
 3744TIP3    H132723   0.034   3.455   4.004  1.3858  0.8817  1.7172
 3744TIP3    H232724   0.067   3.550   3.890  0.3274 -0.7797 -0.0336
 3745TIP3   OH232725   6.220   4.647  14.340  0.2122 -0.9305  0.2267
 3745TIP3    H132726   6.181   4.721  14.293  0.3774 -0.0511  1.4360
 3745TIP3    H232727   6.303   4.680  14.373  0.3435 -1.6942  0.6972
 3746TIP3   OH232728   3.192   0.545  13.746  0.4549 -0.4832 -0.0943
 3746TIP3    H132729   3.214   0.459  13.710 -0.3337 -1.5942  1.9253
 3746TIP3    H232730   3.255   0.560  13.816 -1.3074 -0.9048  1.6577
 3747TIP3   OH232731   2.908   2.481   1.614  0.2088  0.1381 -0.0812
 3747TIP3    H132732   2.910   2.411   1.548  0.5555  0.0127  0.0612
 3747TIP3    H232733   2.855   2.445   1.685 -0.8140  0.5639 -0.6114
 3748TIP3   OH232734   1.465   5.318  15.116 -0.4871 -0.0382  0.0070
 3748TIP3    H132735   1.406   5.387  15.084 -0.3145 -0.0203 -0.2773
 3748TIP3    H232736   1.412   5.238  15.112 -1.0918  0.2589  1.5124
 3749TIP3   OH232737   2.036   6.176  11.152  0.3439  0.3721  0.0389
 3749TIP3    H132738   1.943   6.198  11.149 -0.3570 -2.3779 -2.0365
 3749TIP3    H232739   2.079   6.243  11.099 -0.4613  1.3976  0.6347
 3750TIP3   OH232740   3.882   1.875  16.387 -0.0922 -0.5164 -0.7510
 3750TIP3    H132741   3.796   1.912  16.368  0.2212 -0.4606 -2.1799
 3750TIP3    H232742   3.943   1.945  16.364  0.3209 -0.1194  1.3636
 3751TIP3   OH232743   0.254   2.584  14.178  0.1479 -0.3937 -0.7863
 3751TIP3    H132744   0.245   2.598  14.272  0.8680 -0.0913 -0.7485
 3751TIP3    H232745   0.166   2.565  14.147 -0.1434 -0.1902 -0.0960
 3752TIP3   OH232746   2.247   1.866  16.415 -0.9111  0.0301 -0.8901
 3752TIP3    H132747   2.160   1.839  16.444 -0.4320 -0.8519 -0.2120
 3752TIP3    H232748   2.231   1.934  16.350 -2.0697  1.6668  0.9852
 3753TIP3   OH232749   4.303   1.366   4.281  0.6767 -0.0249  0.2051
 3753TIP3    H132750   4.329   1.425   4.352  1.2498  1.6717 -1.3290
 3753TIP3    H232751   4.342   1.282   4.304  1.3227  0.6309  1.6150
 3754TIP3   OH232752   0.485   1.189  12.838 -0.1703  0.3900 -0.5806
 3754TIP3    H132753   0.493   1.245  12.916  0.7752  0.2978 -0.6114
 3754TIP3    H232754   0.422   1.122  12.864 -1.7232  1.7134 -0.6967
 3755TIP3   OH232755   0.592   0.626  13.837 -0.0471  0.4390 -0.6209
 3755TIP3    H132756   0.545   0.552  13.876  0.3080  0.0738 -0.8776
 3755TIP3    H232757   0.664   0.586  13.788 -0.4701  0.9021 -1.6274
 3756TIP3   OH232758   5.524   5.690   4.039 -0.8830  0.1753  0.5670
 3756TIP3    H132759   5.434   5.699   4.007 -0.2779 -0.6166 -1.5221
 3756TIP3    H232760   5.573   5.758   3.993 -0.0790 -0.6201  0.2214
 3757TIP3   OH232761   6.368   3.266  14.430  0.6632 -0.1858 -0.2852
 3757TIP3    H132762   6.373   3.248  14.524 -1.7056  2.3808  0.4966
 3757TIP3    H232763   6.283   3.229  14.404  0.0739  1.4006 -0.7247
 3758TIP3   OH232764   2.642   0.858   5.095  0.2109 -0.2812  0.1128
 3758TIP3    H132765   2.723   0.908   5.085  0.3394 -0.5867 -0.4825
 3758TIP3    H232766   2.620   0.831   5.005 -2.7573  3.1717 -0.4543
 3759TIP3   OH232767   3.294   4.213  11.957  0.1142  0.1642 -0.0469
 3759TIP3    H132768   3.358   4.261  12.009  0.6367 -0.1778 -0.3617
 3759TIP3    H232769   3.314   4.236  11.866  0.8965 -1.2549 -0.2584
 3760TIP3   OH232770   5.702   2.993  10.309 -0.1779  0.0114  0.1253
 3760TIP3    H132771   5.684   2.923  10.373 -1.2453 -2.0763 -2.2821
 3760TIP3    H232772   5.618   3.038  10.300 -0.1232  0.0741 -0.0604
 3761TIP3   OH232773   2.571   4.240  16.637  0.0502  0.4182  0.2640
 3761TIP3    H132774   2.491   4.289  16.657 -0.6565  0.1208 -1.6782
 3761TIP3    H232775   2.611   4.286  16.564  1.2025  0.0229  0.6152
 3762TIP3   OH232776   5.793   0.346   5.690 -0.2568 -0.1284 -0.2157
 3762TIP3    H132777   5.770   0.294   5.613 -1.5149  1.2657 -0.8366
 3762TIP3    H232778   5.710   0.387   5.717  0.5612  1.0218  0.6374
 3763TIP3   OH232779   2.550   1.928  16.492  0.4721  0.1440  0.2362
 3763TIP3    H132780   2.465   1.887  16.508  0.3536  0.3177  0.0561
 3763TIP3    H232781   2.538   2.020  16.517  0.5147  0.2399 -0.0875
 3764TIP3   OH232782   1.921   4.065   0.633 -0.5426 -0.1469  0.0051
 3764TIP3    H132783   1.887   4.029   0.715  0.1665 -0.8269  0.0166
 3764TIP3    H232784   1.939   4.157   0.652  0.0474 -0.4088  0.7537
 3765TIP3   OH232785   6.004   5.507  16.746  0.4144 -0.0591  0.0986
 3765TIP3    H132786   6.038   5.576  16.690  0.1142  0.4938  0.5826
 3765TIP3    H232787   6.079   5.479  16.798  1.0222 -1.5074 -1.4789
 3766TIP3   OH232788   5.858   2.986   0.235  0.5868 -0.2614 -0.7200
 3766TIP3    H132789   5.852   2.900   0.193  1.2358 -0.3457 -0.6474
 3766TIP3    H232790   5.825   3.048   0.169  0.4509 -0.5250 -0.8986
 3767TIP3   OH232791   3.914   0.534   3.627 -0.1148  0.1991  0.3605
 3767TIP3    H132792   3.893   0.589   3.552  0.7630 -0.5094 -0.4336
 3767TIP3    H232793   4.004   0.557   3.649  0.7424 -1.7329 -0.7956
 3768TIP3   OH232794   2.236   3.848   3.158  0.2991 -0.6016 -0.2420
 3768TIP3    H132795   2.220   3.923   3.216 -0.1522  1.3109 -2.6632
 3768TIP3    H232796   2.315   3.808   3.192  0.6091  1.0458  1.1123
 3769TIP3   OH232797   4.500   3.724   6.377 -0.0473  0.1221  0.1609
 3769TIP3    H132798   4.567   3.749   6.313 -2.1551 -0.8613 -2.6438
 3769TIP3    H232799   4.465   3.808   6.408  0.1090  0.6393 -1.0159
 3770TIP3   OH232800   5.809   5.381  16.538 -0.5211  0.3473 -0.8323
 3770TIP3    H132801   5.857   5.314  16.490 -1.3088 -0.2902 -0.7383
 3770TIP3    H232802   5.866   5.402  16.612 -0.7252 -0.9716 -0.2752
 3771TIP3   OH232803   2.516   4.132  14.470 -0.1648  1.0554 -0.4556
 3771TIP3    H132804   2.420   4.133  14.467 -0.2577  0.0045  1.0058
 3771TIP3    H232805   2.537   4.189  14.543  0.2689  0.5383 -0.1732
 3772TIP3   OH232806   3.537   2.203  17.068 -0.1877 -0.2185  0.6283
 3772TIP3    H132807   3.514   2.176  17.157 -0.0601 -0.4702  0.5860
 3772TIP3    H232808   3.568   2.293  17.077  1.1004 -0.6848  1.0344
 3773TIP3   OH232809   6.771   1.292   1.233 -0.0367  0.1047  0.4762
 3773TIP3    H132810   6.735   1.218   1.183  0.6446 -1.3806  2.0719
 3773TIP3    H232811   6.707   1.305   1.304 -0.5251  1.5717 -0.1985
 3774TIP3   OH232812   3.236   6.530   4.565  0.0134  0.1435  0.5780
 3774TIP3    H132813   3.261   6.449   4.521 -1.3866 -0.4131  0.7697
 3774TIP3    H232814   3.300   6.538   4.636  0.9786 -0.0681 -0.2360
 3775TIP3   OH232815   3.111   3.475   6.471 -0.1801 -0.4410  0.5789
 3775TIP3    H132816   3.139   3.490   6.381 -1.9134  2.1808  0.3653
 3775TIP3    H232817   3.088   3.382   6.474 -0.2739 -0.5393 -1.7257
 3776TIP3   OH232818   5.215   4.909   5.212  0.4523 -0.5003 -0.3100
 3776TIP3    H132819   5.160   4.873   5.281  2.0903 -3.9722 -0.6449
 3776TIP3    H232820   5.206   4.847   5.139  1.6344  1.0741 -1.8856
 3777TIP3   OH232821   0.271   4.180   5.690 -0.0276  0.1323 -0.0921
 3777TIP3    H132822   0.311   4.093   5.685  3.1370  1.4786 -0.5495
 3777TIP3    H232823   0.256   4.204   5.598 -0.6109  0.2179  0.0231
 3778TIP3   OH232824   5.617   5.084  11.665  0.0443  0.0810 -0.7030
 3778TIP3    H132825   5.526   5.081  11.697 -0.0003 -0.9313 -0.8797
 3778TIP3    H232826   5.630   4.998  11.625  1.1978  0.1040 -0.3864
 3779TIP3   OH232827   4.414   5.632   5.427 -0.2841 -0.0944 -0.2053
 3779TIP3    H132828   4.478   5.612   5.495 -0.0441  2.0068  0.2650
 3779TIP3    H232829   4.462   5.625   5.345 -0.0577 -0.7465 -0.0198
 3780TIP3   OH232830   5.506   4.083  13.847  0.3759 -0.8573 -0.6461
 3780TIP3    H132831   5.467   4.141  13.780 -0.5243 -1.0878 -0.3362
 3780TIP3    H232832   5.490   3.995  13.814 -2.2521 -1.0976  0.9515
 3781TIP3   OH232833   6.433   1.212  13.376  0.3663 -0.6347  0.0836
 3781TIP3    H132834   6.438   1.119  13.356  1.3461  0.0103 -3.1455
 3781TIP3    H232835   6.340   1.233  13.372  0.2408 -1.2507 -0.2976
 3782TIP3   OH232836   3.773   3.609  16.513 -0.1544  0.2023  0.0355
 3782TIP3    H132837   3.741   3.546  16.577  1.0672 -1.4010 -0.8627
 3782TIP3    H232838   3.703   3.673  16.505 -0.9328 -0.3410  1.8787
 3783TIP3   OH232839   2.514   2.392   2.907  0.1320  0.0455 -0.5411
 3783TIP3    H132840   2.550   2.465   2.856  2.1565 -0.2946  0.2924
 3783TIP3    H232841   2.450   2.433   2.965  0.7554  1.0732 -0.5475
 3784TIP3   OH232842   2.394   2.177   2.359  0.0217 -0.0912  0.2667
 3784TIP3    H132843   2.325   2.137   2.411  0.1575 -0.7788 -0.0656
 3784TIP3    H232844   2.397   2.125   2.279 -0.3872  1.1220 -0.5782
 3785TIP3   OH232845   1.846   0.915  14.616 -0.1656 -0.4902  0.4932
 3785TIP3    H132846   1.841   0.887  14.525  1.5170 -2.2208  0.8519
 3785TIP3    H232847   1.934   0.953  14.625 -1.5382  3.0139  0.6164
 3786TIP3   OH232848   6.090   3.278  16.184 -0.8682 -0.0003  0.2493
 3786TIP3    H132849   6.121   3.332  16.256 -0.8356 -0.9730  0.9919
 3786TIP3    H232850   6.059   3.340  16.118  1.3813  0.9943  0.0363
 3787TIP3   OH232851   5.749   3.578  15.279 -0.4033 -0.2321 -0.3142
 3787TIP3    H132852   5.672   3.548  15.231 -0.9027 -0.2772  0.4858
 3787TIP3    H232853   5.785   3.649  15.226 -1.1691 -0.0119 -0.5457
 3788TIP3   OH232854   4.664   2.244  12.483  0.6440 -0.1607 -0.2487
 3788TIP3    H132855   4.635   2.267  12.395  1.1511 -3.0515 -1.2957
 3788TIP3    H232856   4.588   2.202  12.523  0.1223  1.9246  1.1326
 3789TIP3   OH232857   5.024   1.130  12.940 -0.5068 -0.3431  0.4415
 3789TIP3    H132858   5.085   1.181  12.994 -2.2909  2.2888  0.1782
 3789TIP3    H232859   5.009   1.050  12.990  0.7480  0.3232  2.0023
 3790TIP3   OH232860   3.832   6.183   1.849  0.4481  0.0737  0.2314
 3790TIP3    H132861   3.822   6.205   1.756 -0.2198 -1.8363 -0.1875
 3790TIP3    H232862   3.790   6.256   1.895 -1.0032  0.1011 -1.0564
 3791TIP3   OH232863   0.239   2.292  11.831 -0.5493 -0.0860 -0.0051
 3791TIP3    H132864   0.215   2.369  11.780  0.5651  0.0931 -0.2888
 3791TIP3    H232865   0.301   2.245  11.775  0.9851  0.2967  1.2922
 3792TIP3   OH232866   4.833   2.738   4.002 -0.0591 -0.3053 -0.2040
 3792TIP3    H132867   4.873   2.680   3.938 -0.3668 -1.9613  1.0242
 3792TIP3    H232868   4.818   2.682   4.079 -4.3780  0.2636 -0.4130
 3793TIP3   OH232869   0.324   2.314   1.774 -0.3639  0.7673  0.4833
 3793TIP3    H132870   0.374   2.395   1.776  0.4892  0.3350 -1.1365
 3793TIP3    H232871   0.390   2.245   1.780 -0.8803  0.1895 -0.2650
 3794TIP3   OH232872   1.597   3.494   3.290 -0.2512 -0.2490 -0.3711
 3794TIP3    H132873   1.580   3.405   3.259  1.1364 -0.6749 -0.0123
 3794TIP3    H232874   1.688   3.491   3.319 -0.1473  1.3319 -0.4744
 3795TIP3   OH232875   2.593   6.034  16.836 -0.0961 -0.1746 -0.0709
 3795TIP3    H132876   2.655   6.106  16.827  1.1390 -1.1524  0.3042
 3795TIP3    H232877   2.615   5.974  16.764 -0.2555 -0.7920  0.3835
 3796TIP3   OH232878   4.988   2.006   1.305  0.8146  0.1015 -0.6510
 3796TIP3    H132879   5.017   1.921   1.337 -0.0260 -0.0375 -0.2215
 3796TIP3    H232880   4.982   1.995   1.210  1.8170  0.0382 -0.7143
 3797TIP3   OH232881   5.227   2.008   4.394  0.4806 -0.7554 -0.4993
 3797TIP3    H132882   5.306   2.050   4.429  0.9159 -1.6319 -0.4051
 3797TIP3    H232883   5.260   1.940   4.336 -0.2292  0.0282 -1.8808
 3798TIP3   OH232884   4.513   0.593  12.978  0.0027 -0.4142 -0.3531
 3798TIP3    H132885   4.447   0.656  12.949 -0.2211  0.4899  1.9338
 3798TIP3    H232886   4.579   0.646  13.023 -0.1385 -1.7490  1.5536
 3799TIP3   OH232887   3.121   3.714  10.613 -0.4454 -0.1710  0.5108
 3799TIP3    H132888   3.135   3.797  10.568 -1.1006  0.2302  1.0303
 3799TIP3    H232889   3.206   3.694  10.653  0.2363 -0.6841 -1.0997
 3800TIP3   OH232890   0.687   4.246  12.273  0.6189  0.5558 -0.2843
 3800TIP3    H132891   0.712   4.177  12.335  0.7148  1.3394  0.5815
 3800TIP3    H232892   0.592   4.251  12.280  0.3576 -1.0226 -2.0519
 3801TIP3   OH232893   6.690   4.899   4.320 -0.7439 -0.1725 -0.0111
 3801TIP3    H132894   6.673   4.939   4.405 -2.3861 -1.0466  0.1056
 3801TIP3    H232895   6.677   4.805   4.335  0.4804 -0.5087 -0.8747
 3802TIP3   OH232896   3.650   2.663  14.671  0.1706 -0.3192  0.5425
 3802TIP3    H132897   3.702   2.669  14.751 -1.1613  2.4321  1.3059
 3802TIP3    H232898   3.707   2.698  14.603 -0.1734  1.5193  1.1511
 3803TIP3   OH232899   1.206   6.304   0.061 -0.2176 -0.2199 -0.8160
 3803TIP3    H132900   1.161   6.220   0.071  1.4584 -1.1402 -0.8035
 3803TIP3    H232901   1.297   6.282   0.046  1.5841  1.4752  4.8388
 3804TIP3   OH232902   4.018   0.825   5.097  0.1688  0.1232  0.0689
 3804TIP3    H132903   3.933   0.866   5.114  0.4292  0.6970  0.0058
 3804TIP3    H232904   4.078   0.898   5.085  0.3876 -0.2682 -1.3807
 3805TIP3   OH232905   0.469   2.147   3.365  0.5749  0.2771  0.3890
 3805TIP3    H132906   0.442   2.233   3.333 -0.7272  0.3787  1.6292
 3805TIP3    H232907   0.536   2.166   3.431  0.6626  0.3078  0.2909
 3806TIP3   OH232908   6.710   0.558  15.410 -0.0860  0.5210 -0.8959
 3806TIP3    H132909   6.721   0.463  15.404  2.1815  0.5170  1.4288
 3806TIP3    H232910   6.790   0.594  15.373 -1.7270  1.7392 -3.5923
 3807TIP3   OH232911   2.514   6.811   3.780  0.0853 -0.4263  0.2275
 3807TIP3    H132912   2.536   6.781   3.692 -1.8647 -0.5821 -0.2541
 3807TIP3    H232913   2.592   6.860   3.809  0.5280  0.1720 -1.8285
 3808TIP3   OH232914   4.651   3.038  14.557  0.5955  0.4907 -0.3322
 3808TIP3    H132915   4.729   3.045  14.501  1.2889 -2.8373 -0.0310
 3808TIP3    H232916   4.659   3.111  14.619  4.0253 -0.1897  0.2404
 3809TIP3   OH232917   1.280   6.535  15.730  0.4906  0.6313 -0.0813
 3809TIP3    H132918   1.289   6.613  15.675 -0.4054  0.7282 -0.0995
 3809TIP3    H232919   1.186   6.517  15.732  0.6410 -0.1749  0.3097
 3810TIP3   OH232920   6.092   1.806  15.308 -0.1008 -0.0484  0.5610
 3810TIP3    H132921   6.078   1.901  15.308 -0.1402 -0.0213 -1.0869
 3810TIP3    H232922   6.183   1.795  15.281 -0.9512 -0.4854 -2.5225
 3811TIP3   OH232923   0.980   5.371   1.650 -0.1380  0.5988  0.1148
 3811TIP3    H132924   0.906   5.343   1.595  1.6343 -0.7219 -1.7557
 3811TIP3    H232925   1.005   5.292   1.698  0.7026  0.7595 -0.0587
 3812TIP3   OH232926   1.902   6.073   2.878  0.0359  0.2000  0.1695
 3812TIP3    H132927   1.997   6.079   2.889 -0.0552  0.3056  0.9973
 3812TIP3    H232928   1.888   5.987   2.839  0.3897 -0.3971  1.3043
 3813TIP3   OH232929   2.139   5.740  14.649  0.3563  0.0697 -0.4182
 3813TIP3    H132930   2.168   5.823  14.612 -0.2498  0.2705 -0.4470
 3813TIP3    H232931   2.182   5.735  14.734 -1.0725  1.3065  0.4136
 3814TIP3   OH232932   6.470   6.452  11.789 -0.2581  0.4148 -0.8007
 3814TIP3    H132933   6.523   6.512  11.736  1.0201  0.9814  1.0074
 3814TIP3    H232934   6.384   6.493  11.794  0.5040  2.0091  0.1342
 3815TIP3   OH232935   4.037   3.549  16.204  0.3367 -0.4819  0.2482
 3815TIP3    H132936   4.080   3.512  16.127  1.7155  0.9720  0.2794
 3815TIP3    H232937   4.050   3.643  16.196  0.3717 -0.2819  2.1809
 3816TIP3   OH232938   1.027   5.839  13.083  1.1251  0.5977 -0.1562
 3816TIP3    H132939   0.969   5.799  13.019  3.2662 -0.3583 -1.5961
 3816TIP3    H232940   1.032   5.931  13.057  1.3872  0.3743 -0.9224
 3817TIP3   OH232941   5.805   2.437  12.088 -0.2604 -0.2162 -0.1972
 3817TIP3    H132942   5.716   2.409  12.106 -0.7879  1.5612  0.1498
 3817TIP3    H232943   5.836   2.474  12.170  0.7186 -0.5723 -0.3840
 3818TIP3   OH232944   6.205   3.171  12.042  0.4552  0.1551 -0.4428
 3818TIP3    H132945   6.195   3.242  11.978  1.0571  0.5999 -0.0626
 3818TIP3    H232946   6.202   3.216  12.127  0.4730 -0.3265 -0.1872
 3819TIP3   OH232947   3.750   6.333  12.775 -0.6594 -0.4403  0.2019
 3819TIP3    H132948   3.813   6.274  12.734 -1.2622 -0.6319 -0.4795
 3819TIP3    H232949   3.724   6.288  12.856  0.6284  0.0003  0.8876
 3820TIP3   OH232950   2.768   4.967   3.896 -0.9150  0.0297 -0.4430
 3820TIP3    H132951   2.738   4.924   3.815  1.1698 -2.3125 -0.0735
 3820TIP3    H232952   2.792   4.895   3.954 -1.4475  1.6818  1.9651
 3821TIP3   OH232953   0.240   5.890  14.305 -0.5990  0.1414  0.2382
 3821TIP3    H132954   0.261   5.966  14.251 -0.6592  0.8211  1.1488
 3821TIP3    H232955   0.287   5.818  14.264  0.3712  0.8872 -0.0010
 3822TIP3   OH232956   2.719   3.943  11.751  0.3220 -0.1211  0.0878
 3822TIP3    H132957   2.647   3.954  11.688  2.0811  0.6266 -1.9285
 3822TIP3    H232958   2.747   3.852  11.741  1.2617  0.2657 -1.0415
 3823TIP3   OH232959   5.954   5.325   0.999  0.2193  0.2531  0.6902
 3823TIP3    H132960   5.862   5.346   0.984  0.4545  0.9388  0.1350
 3823TIP3    H232961   5.989   5.403   1.044  1.3730  1.6718 -2.3792
 3824TIP3   OH232962   4.640   1.534  13.628  0.1948  0.0868 -0.0931
 3824TIP3    H132963   4.715   1.561  13.681  0.6910 -2.5589  0.7288
 3824TIP3    H232964   4.678   1.513  13.543  0.3472 -0.8296  0.1890
 3825TIP3   OH232965   5.465   3.338   3.846  0.5550  0.0280 -0.1533
 3825TIP3    H132966   5.436   3.301   3.763 -0.6813 -1.0313  0.7053
 3825TIP3    H232967   5.471   3.262   3.905  2.7102  0.5550  0.3963
 3826TIP3   OH232968   3.816   5.400   5.653  0.0792 -0.7309  0.2443
 3826TIP3    H132969   3.829   5.403   5.748 -2.8569  3.1747  0.7787
 3826TIP3    H232970   3.731   5.358   5.642 -1.2375  1.8411 -0.2030
 3827TIP3   OH232971   6.227   4.439  10.892 -0.2118 -0.0888  0.4109
 3827TIP3    H132972   6.173   4.516  10.873 -0.4208 -0.1727  0.6641
 3827TIP3    H232973   6.273   4.421  10.810  0.4717  0.8159  0.5797
 3828TIP3   OH232974   3.854   2.115   0.429 -0.6519  0.6935  0.6246
 3828TIP3    H132975   3.767   2.153   0.422 -0.7870  0.0614 -1.7757
 3828TIP3    H232976   3.913   2.182   0.395 -0.2412  0.8657  1.6297
 3829TIP3   OH232977   3.798   4.842  14.044  0.5561  0.1101  0.2002
 3829TIP3    H132978   3.881   4.888  14.028  0.7306  0.1843  1.3015
 3829TIP3    H232979   3.731   4.901  14.009  0.8575  0.7265  0.6635
 3830TIP3   OH232980   2.303   5.175   2.076 -0.0826 -0.0705 -0.4030
 3830TIP3    H132981   2.291   5.080   2.072 -0.1579 -0.0609 -0.4108
 3830TIP3    H232982   2.321   5.200   1.985  1.6394 -0.2976 -0.1751
 3831TIP3   OH232983   2.617   6.570   0.792 -0.1728 -0.0339 -0.0555
 3831TIP3    H132984   2.706   6.589   0.823 -0.4996  1.9129 -0.1785
 3831TIP3    H232985   2.571   6.537   0.869 -0.3614  2.6362  1.0915
 3832TIP3   OH232986   0.496   1.091  15.447 -0.3274 -0.0876 -0.9379
 3832TIP3    H132987   0.423   1.041  15.483  1.9539 -2.7539  0.4106
 3832TIP3    H232988   0.504   1.061  15.356  0.6964 -1.9111 -0.2894
 3833TIP3   OH232989   2.398   3.145  12.850 -0.4738 -0.1243 -0.5005
 3833TIP3    H132990   2.401   3.225  12.798  0.3604  0.7666  0.8444
 3833TIP3    H232991   2.467   3.157  12.915 -2.3163 -0.5790  1.6540
 3834TIP3   OH232992   6.416   0.373  11.898  0.2551  0.1858  0.7709
 3834TIP3    H132993   6.339   0.430  11.889 -0.1953 -0.2181  1.9129
 3834TIP3    H232994   6.488   0.427  11.865 -0.7710 -0.2069 -2.4341
 3835TIP3   OH232995   4.830   5.199   2.127  0.3543 -0.2588  0.3714
 3835TIP3    H132996   4.817   5.198   2.032  2.3226 -1.6897  0.0626
 3835TIP3    H232997   4.786   5.279   2.156 -2.1590 -0.8804 -1.4259
 3836TIP3   OH232998   5.616   5.875   5.986  0.2824 -0.0742 -0.1448
 3836TIP3    H132999   5.694   5.896   6.037  2.3269 -0.2422 -2.9834
 3836TIP3    H233000   5.630   5.785   5.957 -1.1870 -0.2424 -0.3913
 3837TIP3   OH233001   5.785   2.775   0.077  0.2354 -0.3644  0.0848
 3837TIP3    H133002   5.821   2.793  -0.010 -0.8043 -1.6604 -0.6576
 3837TIP3    H233003   5.770   2.681   0.077 -0.5239 -0.2626  1.3938
 3838TIP3   OH233004   4.279   6.334  10.521 -0.1633  0.2947  0.1893
 3838TIP3    H133005   4.208   6.274  10.496 -0.0934  1.1656 -2.4177
 3838TIP3    H233006   4.357   6.297  10.480  0.4752  0.5642  1.1298
 3839TIP3   OH233007   4.268   2.987   0.742  0.0502  0.2549  0.7040
 3839TIP3    H133008   4.279   2.959   0.833 -0.1873 -2.2486  0.0349
 3839TIP3    H233009   4.326   2.930   0.692 -0.6543  0.8193 -0.8257
 3840TIP3   OH233010   1.782   1.635  12.390 -0.0493 -0.0007  0.3684
 3840TIP3    H133011   1.845   1.699  12.424 -1.1535  1.0095  0.6070
 3840TIP3    H233012   1.836   1.564  12.356  1.1940  0.5553  1.0941
 3841TIP3   OH233013   0.307   0.814  11.544  0.2774 -0.4404 -0.0223
 3841TIP3    H133014   0.355   0.850  11.470 -1.8718  0.6999 -0.9645
 3841TIP3    H233015   0.338   0.863  11.620 -0.8864  1.8686 -0.9371
 3842TIP3   OH233016   1.379   2.140  15.418 -0.0083  0.0968 -0.2024
 3842TIP3    H133017   1.290   2.135  15.454 -0.5776 -0.9032 -1.6506
 3842TIP3    H233018   1.434   2.102  15.486 -0.9659 -1.1579 -0.0955
 3843TIP3   OH233019   3.837   0.137   4.883  0.1167 -0.0193 -0.0113
 3843TIP3    H133020   3.892   0.212   4.859 -1.0048  0.3852 -1.4360
 3843TIP3    H233021   3.829   0.143   4.978 -0.9621  2.4467 -0.1760
 3844TIP3   OH233022   2.466   4.263   5.681  0.3274 -0.3992  0.4337
 3844TIP3    H133023   2.433   4.331   5.740 -1.0112 -1.3185  0.8043
 3844TIP3    H233024   2.552   4.240   5.716 -0.3657 -0.8042  1.9448
 3845TIP3   OH233025   5.563   5.556   4.704 -0.0834 -0.0098 -0.2901
 3845TIP3    H133026   5.548   5.524   4.793  0.7930  2.4952  0.8554
 3845TIP3    H233027   5.653   5.533   4.685  0.1855  0.7125  0.0748
 3846TIP3   OH233028   4.109   4.401   0.711 -0.2927  0.6251 -0.0037
 3846TIP3    H133029   4.027   4.441   0.682 -1.3330 -1.4960 -0.2142
 3846TIP3    H233030   4.174   4.426   0.645 -1.7931 -1.1592 -2.3263
 3847TIP3   OH233031   3.435   1.262   3.493  0.0314 -0.1341  0.2671
 3847TIP3    H133032   3.356   1.224   3.530 -1.2620  1.4823 -0.7400
 3847TIP3    H233033   3.468   1.195   3.433 -1.8743 -0.0016 -1.0288
 3848TIP3   OH233034   3.966   2.127  16.859 -0.4832 -0.1514 -0.4413
 3848TIP3    H133035   4.053   2.157  16.832 -0.7192  0.6623 -0.3264
 3848TIP3    H233036   3.978   2.035  16.880  1.6227  0.9368  4.6544
 3849TIP3   OH233037   4.140   6.229   1.753  0.4632  0.0166  0.5574
 3849TIP3    H133038   4.197   6.287   1.702 -1.0661 -0.0129 -1.2824
 3849TIP3    H233039   4.096   6.288   1.815  0.1799  0.5459 -0.1388
 3850TIP3   OH233040   0.917   3.768  13.586  0.0415 -0.0535  0.3507
 3850TIP3    H133041   0.994   3.825  13.576  0.4024 -0.4845  0.6277
 3850TIP3    H233042   0.907   3.727  13.500  0.3620 -0.2859  0.4197
 3851TIP3   OH233043   4.039   2.935  13.112  0.2406 -0.1658  0.2544
 3851TIP3    H133044   4.054   2.918  13.205  1.5734  1.4661  0.3788
 3851TIP3    H233045   3.944   2.944  13.105  0.1247 -0.2023  1.4933
 3852TIP3   OH233046   3.948   3.547   0.096 -0.3101  0.1091 -0.2120
 3852TIP3    H133047   3.936   3.639   0.071 -2.1023 -0.5182 -1.9581
 3852TIP3    H233048   4.043   3.536   0.105 -0.0861  2.1732  0.3362
 3853TIP3   OH233049   1.837   5.817  14.642  0.1039  0.2731  0.3919
 3853TIP3    H133050   1.930   5.809  14.619  0.1293  1.3130  0.1149
 3853TIP3    H233051   1.792   5.764  14.575  0.4031  0.8590 -0.2905
 3854TIP3   OH233052   0.599   6.120  11.796 -0.0431 -0.2581  0.1475
 3854TIP3    H133053   0.662   6.138  11.866  0.7433  1.5714 -0.9479
 3854TIP3    H233054   0.628   6.038  11.757  1.6185  0.4614 -0.2208
 3855TIP3   OH233055   0.400   2.962  16.472  0.1833 -0.3522 -0.6567
 3855TIP3    H133056   0.434   2.969  16.382  1.5851  0.7461 -0.0887
 3855TIP3    H233057   0.460   2.901  16.515 -0.3029 -0.6369 -0.3727
 3856TIP3   OH233058   2.736   4.340   6.070 -0.1390  0.6554  0.1124
 3856TIP3    H133059   2.815   4.290   6.047 -1.6929 -1.7244 -0.4096
 3856TIP3    H233060   2.722   4.322   6.163  0.2575  1.6243  0.3751
 3857TIP3   OH233061   5.107   5.442  14.917 -0.0823 -0.3128  0.2394
 3857TIP3    H133062   5.020   5.479  14.935 -0.8005 -1.2570 -1.1365
 3857TIP3    H233063   5.163   5.479  14.986 -1.5362  0.3987  1.0958
 3858TIP3   OH233064   1.221   6.731  12.617 -0.6853  0.3167 -0.1237
 3858TIP3    H133065   1.132   6.698  12.629 -0.4784 -0.6802 -1.1215
 3858TIP3    H233066   1.218   6.777  12.533 -0.3761  0.7290  0.0861
 3859TIP3   OH233067   1.121   2.524  12.240  0.2766 -0.2679 -0.0362
 3859TIP3    H133068   1.050   2.486  12.188  0.2912 -1.8904  1.0378
 3859TIP3    H233069   1.143   2.455  12.303  1.6441  0.8586  0.7637
 3860TIP3   OH233070   2.032   2.960   6.657 -0.2232 -0.0812  0.2851
 3860TIP3    H133071   1.943   2.971   6.624 -0.4455  0.4990  1.0538
 3860TIP3    H233072   2.068   3.048   6.658  0.1486 -0.2341  0.5662
 3861TIP3   OH233073   1.559   4.104  16.199  0.2191 -0.7359  0.1259
 3861TIP3    H133074   1.565   4.009  16.204 -0.9101 -0.9138 -1.2635
 3861TIP3    H233075   1.500   4.128  16.271  0.0569 -1.1521  0.1334
 3862TIP3   OH233076   0.589   6.509  11.235  0.2895 -0.3076  0.2811
 3862TIP3    H133077   0.671   6.476  11.200 -0.1304  0.5929 -1.6822
 3862TIP3    H233078   0.524   6.487  11.168 -0.5855  1.3894  0.5340
 3863TIP3   OH233079   6.362   2.832   5.390  0.1524  0.4097 -0.3148
 3863TIP3    H133080   6.269   2.853   5.383 -0.1382 -0.7953 -0.2733
 3863TIP3    H233081   6.393   2.833   5.300 -0.0519  0.2044 -0.3900
 3864TIP3   OH233082   4.920   0.521   0.939 -0.3735  0.4216  0.4537
 3864TIP3    H133083   4.913   0.515   1.034  2.9466 -1.1340  0.7325
 3864TIP3    H233084   4.965   0.604   0.924 -2.8545  1.7689 -0.0121
 3865TIP3   OH233085   2.334   0.221  11.195 -0.5790  0.0421 -0.0343
 3865TIP3    H133086   2.254   0.170  11.208 -1.5339  1.7497  1.3103
 3865TIP3    H233087   2.317   0.275  11.118  0.2053 -1.1698 -1.1047
 3866TIP3   OH233088   3.435   0.712  15.011  0.1454  0.1318  0.7141
 3866TIP3    H133089   3.364   0.683  14.955  1.0967 -1.9063  0.4622
 3866TIP3    H233090   3.419   0.668  15.095  1.3282 -0.7670  0.5002
 3867TIP3   OH233091   4.900   6.710  14.177  0.0819 -0.1229 -0.4437
 3867TIP3    H133092   4.940   6.686  14.261  1.4165  1.4651 -0.5569
 3867TIP3    H233093   4.941   6.652  14.113 -1.9980 -2.3458  0.1012
 3868TIP3   OH233094   6.812   3.531   5.790  0.2322  0.1822  0.4722
 3868TIP3    H133095   6.850   3.612   5.825  1.3286 -0.8908  1.8775
 3868TIP3    H233096   6.737   3.514   5.847  0.2742 -0.0176  0.4670
 3869TIP3   OH233097   0.907   1.589   2.105 -0.6236  0.0726 -0.2666
 3869TIP3    H133098   0.926   1.647   2.179 -1.8968  1.2339 -0.8065
 3869TIP3    H233099   0.954   1.509   2.125 -2.3950 -0.3690  2.7461
 3870TIP3   OH233100   2.637   1.076  16.983  0.3807  0.1091  0.4686
 3870TIP3    H133101   2.621   0.995  16.935  0.3578  0.5030 -0.2057
 3870TIP3    H233102   2.608   1.057  17.073 -2.6141  0.2956 -0.3344
 3871TIP3   OH233103   4.546   5.812  15.250  0.3495 -0.4359 -0.0054
 3871TIP3    H133104   4.600   5.746  15.294  0.7266 -1.0016 -1.2634
 3871TIP3    H233105   4.593   5.894  15.262  0.2384 -0.5014  0.9663
 3872TIP3   OH233106   2.790   3.221   4.771  0.1313 -0.0749  0.4531
 3872TIP3    H133107   2.817   3.300   4.819  0.2968 -0.3685  0.8438
 3872TIP3    H233108   2.867   3.198   4.718 -0.0167  0.1910  0.1197
 3873TIP3   OH233109   0.238   5.390  15.002 -0.0664 -0.3487  0.3294
 3873TIP3    H133110   0.255   5.471  14.954  1.5844 -0.5413  0.5211
 3873TIP3    H233111   0.170   5.414  15.065 -1.4884  0.1887 -1.3079
 3874TIP3   OH233112   0.470   0.683   2.392  0.4678  0.2227 -0.5391
 3874TIP3    H133113   0.476   0.773   2.361 -3.1319  1.3024  1.3123
 3874TIP3    H233114   0.529   0.680   2.467 -0.4265  1.5560  0.2623
 3875TIP3   OH233115   2.793   6.756   1.981  0.2560 -0.1166 -0.0064
 3875TIP3    H133116   2.867   6.813   2.000  0.5257 -0.7362  0.8975
 3875TIP3    H233117   2.832   6.669   1.972 -0.2539 -0.3009 -0.4383
 3876TIP3   OH233118   3.396   3.532  15.487 -0.0167  0.0426  0.3555
 3876TIP3    H133119   3.400   3.562  15.396 -0.1330 -1.9408 -0.3503
 3876TIP3    H233120   3.487   3.519  15.512 -0.0003  0.2421  0.4006
 3877TIP3   OH233121   0.853   6.804   3.407  0.0575  0.1851 -0.5604
 3877TIP3    H133122   0.908   6.776   3.334 -0.5625  1.2666 -1.4707
 3877TIP3    H233123   0.795   6.730   3.423  1.9256 -1.1032  0.6194
 3878TIP3   OH233124   0.572   6.405   2.375 -0.6655  0.1385 -0.1888
 3878TIP3    H133125   0.632   6.391   2.447  1.9327  1.2250 -1.9993
 3878TIP3    H233126   0.520   6.481   2.401  0.6753  0.9129  0.2917
 3879TIP3   OH233127   6.406   5.405   3.202 -0.2691  0.0519 -0.4689
 3879TIP3    H133128   6.342   5.429   3.135 -0.5422  2.0370  0.4230
 3879TIP3    H233129   6.458   5.484   3.214  1.2353 -0.9851  0.0763
 3880TIP3   OH233130   2.537   1.739   0.168 -0.8581 -0.2225 -0.6328
 3880TIP3    H133131   2.503   1.703   0.086 -0.1209  0.0586 -1.0686
 3880TIP3    H233132   2.555   1.662   0.222 -0.5803 -0.4543 -1.0456
 3881TIP3   OH233133   6.777   4.276  14.715 -0.6147  0.4802  0.1864
 3881TIP3    H133134   6.736   4.221  14.647 -0.2301  1.0665 -0.5397
 3881TIP3    H233135   6.866   4.243  14.723 -0.9416 -0.2041  1.1073
 3882TIP3   OH233136   3.191   2.578   1.417 -0.0377 -0.3429  0.4181
 3882TIP3    H133137   3.211   2.578   1.323  0.1940  1.3623  0.4344
 3882TIP3    H233138   3.203   2.487   1.444  2.2820 -0.4396 -0.6965
 3883TIP3   OH233139   2.808   3.916   4.677  0.7203  0.0855 -0.4609
 3883TIP3    H133140   2.899   3.887   4.689 -0.0095 -2.5380 -0.7621
 3883TIP3    H233141   2.771   3.855   4.614 -1.4570  0.6856  0.1572
 3884TIP3   OH233142   0.921   4.433  11.909 -0.2005 -1.1041 -0.6059
 3884TIP3    H133143   0.947   4.450  11.818 -1.9140  1.2747 -0.7319
 3884TIP3    H233144   0.826   4.423  11.905 -0.6255  1.3039  1.1351
 3885TIP3   OH233145   1.006   6.124  13.408  0.4031  0.4315  0.2287
 3885TIP3    H133146   0.928   6.111  13.353  2.0324 -1.7024 -1.8115
 3885TIP3    H233147   0.999   6.056  13.475 -0.5808  1.7459  1.5185
 3886TIP3   OH233148   2.132   0.431  11.853 -0.0693 -0.7284  0.2685
 3886TIP3    H133149   2.089   0.512  11.880  0.5646 -0.4961  0.6294
 3886TIP3    H233150   2.128   0.432  11.757 -0.9353 -0.7634  0.3034
 3887TIP3   OH233151   3.488   1.518  16.788  0.3714  0.0181 -0.4046
 3887TIP3    H133152   3.488   1.570  16.708  0.9863 -0.6294 -0.8410
 3887TIP3    H233153   3.579   1.494  16.801  0.2209 -0.2003  0.2819
 3888TIP3   OH233154   3.558   3.577   3.225 -0.5735  0.7690  0.3832
 3888TIP3    H133155   3.605   3.637   3.283  0.7210  0.5844 -0.4391
 3888TIP3    H233156   3.551   3.496   3.276  1.9609  0.0850 -0.2240
 3889TIP3   OH233157   6.694   1.257   5.223 -0.2402  0.0665 -0.5141
 3889TIP3    H133158   6.622   1.291   5.170 -1.7877 -1.7874  0.2544
 3889TIP3    H233159   6.668   1.277   5.313  0.5586 -0.0509 -0.2496
 3890TIP3   OH233160   2.781   0.440   2.611  0.0725 -0.1542 -0.2540
 3890TIP3    H133161   2.837   0.454   2.535  0.0683 -0.0122 -0.2319
 3890TIP3    H233162   2.731   0.361   2.590  0.0829 -0.1244 -0.3918
 3891TIP3   OH233163   3.190   2.360  15.250  0.0747  0.0414  0.7456
 3891TIP3    H133164   3.204   2.339  15.158 -2.7962 -0.1564  0.2653
 3891TIP3    H233165   3.254   2.306  15.296  2.3442  0.9744 -1.1099
 3892TIP3   OH233166   0.054   3.640  13.469  0.6950  0.2717  0.5558
 3892TIP3    H133167   0.103   3.559  13.482  2.6690  1.1488 -0.9763
 3892TIP3    H233168   0.060   3.685  13.553  1.6022 -0.1101  0.7044
 3893TIP3   OH233169   6.467   4.755   2.044  0.0692  0.2340  0.1973
 3893TIP3    H133170   6.551   4.777   2.085 -0.4975  2.6792  0.2193
 3893TIP3    H233171   6.412   4.725   2.117  0.6869 -0.6559  0.3035
 3894TIP3   OH233172   3.767   2.840   5.322  0.7294 -0.8182  0.1843
 3894TIP3    H133173   3.807   2.927   5.316  1.4658 -1.2596 -2.0147
 3894TIP3    H233174   3.709   2.846   5.398 -0.3197  2.0505 -0.7255
 3895TIP3   OH233175   2.590   2.584  12.320  0.1226  0.2651  0.3458
 3895TIP3    H133176   2.655   2.637  12.274  0.3942 -0.3680 -0.0192
 3895TIP3    H233177   2.640   2.535  12.385 -0.0226 -0.0365  0.2329
 3896TIP3   OH233178   6.660   5.865   1.775  0.1191 -0.2407 -0.0705
 3896TIP3    H133179   6.601   5.935   1.747 -0.3377 -0.5843  0.0271
 3896TIP3    H233180   6.699   5.899   1.856 -0.9271 -0.5375  0.5752
 3897TIP3   OH233181   2.868   3.827   1.687  0.3724 -0.0660  0.5710
 3897TIP3    H133182   2.880   3.913   1.729 -0.9530  0.3291  0.1898
 3897TIP3    H233183   2.899   3.840   1.597  3.2061 -0.9104  1.3446
 3898TIP3   OH233184   6.850   4.266  12.472  0.7302 -0.6286 -0.0994
 3898TIP3    H133185   6.786   4.196  12.458 -1.0120  0.7019  0.7036
 3898TIP3    H233186   6.850   4.315  12.389 -1.8219  1.2252  0.8452
 3899TIP3   OH233187   1.408   3.082   4.801 -0.5171 -0.8838 -0.0689
 3899TIP3    H133188   1.444   2.996   4.780 -0.6666 -1.2171  0.9600
 3899TIP3    H233189   1.349   3.102   4.728  0.7637 -0.8978 -1.1330
 3900TIP3   OH233190   5.343   5.781  16.140  0.2038 -0.4723 -0.1861
 3900TIP3    H133191   5.352   5.707  16.201  2.1003  0.7149  1.0587
 3900TIP3    H233192   5.415   5.769  16.078 -0.7162 -0.7428 -1.2424
 3901TIP3   OH233193   0.062   6.767   2.864  0.5074  0.4175  0.3853
 3901TIP3    H133194   0.132   6.819   2.825  0.5303  0.6746  0.7592
 3901TIP3    H233195   0.038   6.815   2.944 -1.8622  1.7712 -1.0197
 3902TIP3   OH233196   5.214   5.581   1.922  0.3556 -0.1137 -0.1818
 3902TIP3    H133197   5.277   5.550   1.856  2.1082 -0.4962  1.5709
 3902TIP3    H233198   5.143   5.517   1.919  1.3067 -1.2095 -0.4360
 3903TIP3   OH233199   1.202   6.142  14.812 -0.1731 -0.5860 -0.3373
 3903TIP3    H133200   1.160   6.228  14.818 -0.8591 -0.9482  0.2465
 3903TIP3    H233201   1.139   6.087  14.766 -0.3369 -1.1217  0.4972
 3904TIP3   OH233202   2.402   1.520  14.012  0.2286 -0.5690 -0.5375
 3904TIP3    H133203   2.371   1.446  13.959  0.8234 -0.1345 -1.5232
 3904TIP3    H233204   2.464   1.481  14.074  0.8778 -0.8442 -1.3503
 3905TIP3   OH233205   1.114   1.667   2.581 -0.8711 -0.3910  0.2560
 3905TIP3    H133206   1.063   1.746   2.595  0.4505  0.2222  2.1100
 3905TIP3    H233207   1.113   1.653   2.487  0.0158  2.6772 -0.3275
 3906TIP3   OH233208   3.339   2.654  14.973  0.1194  0.0973  0.5291
 3906TIP3    H133209   3.245   2.637  14.981  0.1552 -1.9813 -1.9475
 3906TIP3    H233210   3.380   2.567  14.979  1.5418  0.5485 -1.3681
 3907TIP3   OH233211   6.281   3.026  10.820  0.0544  0.8445  0.1826
 3907TIP3    H133212   6.195   3.014  10.779  0.1569  0.1840  0.1474
 3907TIP3    H233213   6.288   2.953  10.882  1.0105  0.2940 -0.5492
 3908TIP3   OH233214   2.826   4.765   4.050  0.6621  0.4365  0.6101
 3908TIP3    H133215   2.814   4.679   4.009  3.7522 -0.6271  1.6451
 3908TIP3    H233216   2.759   4.768   4.119 -0.6450 -0.3194 -0.5727
 3909TIP3   OH233217   0.008   4.802  14.720  0.1916 -0.2687  0.6837
 3909TIP3    H133218   0.009   4.709  14.695  1.8362 -0.1031  0.0198
 3909TIP3    H233219   0.088   4.838  14.683 -0.4927  1.4796  0.7874
 3910TIP3   OH233220   0.192   0.400   3.467  0.1359  0.0129 -0.1094
 3910TIP3    H133221   0.123   0.333   3.470  1.7660 -1.7704 -0.3705
 3910TIP3    H233222   0.224   0.405   3.557 -0.0986  0.6019 -0.0538
 3911TIP3   OH233223   2.796   3.945   3.911  0.0115 -0.7623 -0.5911
 3911TIP3    H133224   2.773   4.025   3.863  1.2231 -0.7982 -1.2711
 3911TIP3    H233225   2.712   3.898   3.920 -0.5197  0.0341 -1.2062
 3912TIP3   OH233226   0.679   6.388  10.615  0.0302 -0.1841  0.7048
 3912TIP3    H133227   0.628   6.314  10.582 -2.5371  2.1210 -0.9664
 3912TIP3    H233228   0.684   6.448  10.541  0.6230  2.0068  2.4137
 3913TIP3   OH233229   3.445   6.742  13.709 -0.2563  0.5490  0.0242
 3913TIP3    H133230   3.453   6.648  13.723  0.1993  0.2925 -1.7025
 3913TIP3    H233231   3.388   6.750  13.633 -2.6452  1.8120  1.7941
 3914TIP3   OH233232   1.562   1.605  11.919  0.4744  0.2568 -0.1576
 3914TIP3    H133233   1.514   1.665  11.977 -0.6461 -0.4041 -0.3617
 3914TIP3    H233234   1.628   1.659  11.877  1.8646  0.6201  2.3031
 3915TIP3   OH233235   4.703   1.006  14.602 -0.4388 -0.1444  0.0309
 3915TIP3    H133236   4.709   0.921  14.645  1.7579 -0.4519 -0.7369
 3915TIP3    H233237   4.626   1.047  14.641 -1.5148 -2.4311  0.4750
 3916TIP3   OH233238   1.665   6.519   3.330 -0.5736  0.6264 -0.8752
 3916TIP3    H133239   1.673   6.573   3.409  2.5571  1.2260 -1.4827
 3916TIP3    H233240   1.670   6.429   3.363  2.1612  0.8705 -0.3821
 3917TIP3   OH233241   5.843   1.168   3.233  0.2008  0.2531 -0.5291
 3917TIP3    H133242   5.753   1.196   3.220  0.2410  0.2367 -0.8560
 3917TIP3    H233243   5.847   1.138   3.324 -0.1455  0.1660 -0.5440
 3918TIP3   OH233244   3.098   1.749  16.318  0.3112  0.0784 -0.2630
 3918TIP3    H133245   3.045   1.827  16.301  2.6389  1.4517 -1.7625
 3918TIP3    H233246   3.127   1.758  16.409 -0.3481  0.3545 -0.0754
 3919TIP3   OH233247   1.732   0.303  14.474  0.9358 -0.0817  0.2047
 3919TIP3    H133248   1.779   0.289  14.392  1.8479 -1.4662  0.9173
 3919TIP3    H233249   1.776   0.246  14.537 -0.9630 -0.5315  1.2096
 3920TIP3   OH233250   4.071   2.162   5.181 -0.7128 -0.2769 -0.4009
 3920TIP3    H133251   3.995   2.108   5.199 -0.7904 -0.2141 -0.5407
 3920TIP3    H233252   4.141   2.123   5.232 -1.0829  0.2868  0.5661
 3921TIP3   OH233253   2.029   2.893   5.742  0.2509  0.1663  0.4780
 3921TIP3    H133254   1.949   2.945   5.731 -0.5663 -1.0950  0.2170
 3921TIP3    H233255   2.100   2.958   5.745 -0.5084  1.2046 -1.8588
 3922TIP3   OH233256   5.826   4.927   3.435  0.0643 -0.2830 -0.6905
 3922TIP3    H133257   5.795   4.976   3.358  1.3795  0.8309 -0.5455
 3922TIP3    H233258   5.883   4.860   3.399 -0.2347 -0.5048 -0.7565
 3923TIP3   OH233259   1.073   2.881  15.168  0.3433 -0.0301 -0.1576
 3923TIP3    H133260   1.027   2.952  15.213  1.0932 -0.4975  1.4456
 3923TIP3    H233261   1.161   2.915  15.151  1.3224 -1.0941  2.2876
 3924TIP3   OH233262   5.521   5.521  15.541  0.0442  0.1847  0.5515
 3924TIP3    H133263   5.609   5.490  15.562 -0.5142 -0.7204  1.6908
 3924TIP3    H233264   5.480   5.447  15.495 -0.1182  0.6078  0.0098
 3925TIP3   OH233265   2.326   0.574  16.676 -0.0798 -0.2002  0.2983
 3925TIP3    H133266   2.402   0.598  16.622 -0.7765 -0.5927 -0.8883
 3925TIP3    H233267   2.347   0.488  16.711  0.1154 -0.2025  0.1751
 3926TIP3   OH233268   1.047   1.999   4.487 -0.4684 -0.0084 -0.2605
 3926TIP3    H133269   0.994   1.968   4.560  1.6249 -0.8675  0.9918
 3926TIP3    H233270   0.984   2.024   4.420 -2.4342 -0.2740  1.4032
 3927TIP3   OH233271   2.307   2.862  16.343 -0.1152 -0.4773 -0.0920
 3927TIP3    H133272   2.301   2.839  16.250 -2.1481 -1.6624  0.2759
 3927TIP3    H233273   2.389   2.822  16.372  0.4590 -0.2328 -1.3264
 3928TIP3   OH233274   6.542   4.305   1.927  0.7195 -0.0807 -0.3595
 3928TIP3    H133275   6.599   4.253   1.984  0.1829 -1.4195 -1.0003
 3928TIP3    H233276   6.539   4.256   1.845  0.6368  1.2746 -1.2012
 3929TIP3   OH233277   6.008   6.478  16.478 -0.4690 -0.5376 -0.2544
 3929TIP3    H133278   5.939   6.531  16.518 -1.3999 -1.2455 -0.8759
 3929TIP3    H233279   5.984   6.388  16.498  0.1448 -0.8117 -0.7005
 3930TIP3   OH233280   5.697   5.777   5.626  0.0813  0.3868  0.0601
 3930TIP3    H133281   5.720   5.699   5.676 -1.3502 -0.4376 -0.5087
 3930TIP3    H233282   5.763   5.782   5.557 -0.0852 -0.5859 -0.1742
 3931TIP3   OH233283   3.394   6.641  13.222  0.4199 -0.4576 -0.2019
 3931TIP3    H133284   3.380   6.580  13.295  1.0147 -1.6973 -1.0853
 3931TIP3    H233285   3.319   6.628  13.164 -2.0657  3.1554  1.8039
 3932TIP3   OH233286   5.202   2.244   5.611 -0.1979  0.5273  0.2605
 3932TIP3    H133287   5.198   2.269   5.704 -1.3246  0.2780  0.2892
 3932TIP3    H233288   5.154   2.313   5.566 -1.8640 -0.6676  0.1528
 3933TIP3   OH233289   1.376   5.375  16.327 -0.0827 -0.2052  0.2246
 3933TIP3    H133290   1.422   5.308  16.276 -0.1531 -0.4065  0.4260
 3933TIP3    H233291   1.339   5.434  16.261  0.1404 -0.2581  0.0509
 3934TIP3   OH233292   6.342   2.085   1.845  0.6376 -0.0098  0.0405
 3934TIP3    H133293   6.354   2.010   1.786 -0.1828  0.1854 -0.3933
 3934TIP3    H233294   6.414   2.079   1.907  0.0210 -1.7510  0.6438
 3935TIP3   OH233295   4.235   3.227   1.584 -0.1706  0.3030  0.0956
 3935TIP3    H133296   4.182   3.247   1.661  0.0511  1.2606  0.0150
 3935TIP3    H233297   4.227   3.304   1.529 -0.1217 -0.2716 -0.7351
 3936TIP3   OH233298   6.734   6.785  16.050 -0.0666 -0.2575 -0.8415
 3936TIP3    H133299   6.817   6.823  16.022  0.2524  0.5202  1.0211
 3936TIP3    H233300   6.758   6.710  16.104 -0.5437  0.1463 -0.0441
 3937TIP3   OH233301   3.786   3.930   5.300 -0.0841  0.4766 -0.1698
 3937TIP3    H133302   3.791   3.998   5.367  0.9860  0.8492 -0.6075
 3937TIP3    H233303   3.824   3.970   5.222  1.2661 -0.8535 -0.2324
 3938TIP3   OH233304   2.949   1.974  16.200 -0.2357 -0.5736 -0.0254
 3938TIP3    H133305   2.910   2.038  16.259  1.1042  0.2696 -0.0086
 3938TIP3    H233306   2.917   1.996  16.113 -0.8461 -0.7364  0.1562
 3939TIP3   OH233307   6.000   6.648  16.806 -0.0989 -0.1056  0.1507
 3939TIP3    H133308   6.043   6.683  16.884 -0.4103  0.9414 -0.1343
 3939TIP3    H233309   5.992   6.554  16.823  1.1245 -0.1152  0.7618
 3940TIP3   OH233310   5.112   2.784  12.888  0.4988  0.4042  0.3666
 3940TIP3    H133311   5.035   2.774  12.944 -0.2966  0.3227 -0.7021
 3940TIP3    H233312   5.150   2.868  12.914 -0.2848  0.7177  0.5244
 3941TIP3   OH233313   2.265   3.092   5.835  0.0939 -0.3773 -0.3650
 3941TIP3    H133314   2.234   3.143   5.910  1.1452 -0.5789  0.2204
 3941TIP3    H233315   2.261   3.154   5.761 -1.6337 -0.3875 -0.3226
 3942TIP3   OH233316   0.655   1.291   0.999  0.0684  0.3393  0.0155
 3942TIP3    H133317   0.683   1.334   0.919 -0.5312  2.0782  0.6837
 3942TIP3    H233318   0.731   1.294   1.057 -0.5565  2.5281  0.8239
 3943TIP3   OH233319   3.074   6.097   0.927  0.2844 -0.7356 -0.0474
 3943TIP3    H133320   2.991   6.144   0.928  1.5453  1.6349 -1.0761
 3943TIP3    H233321   3.086   6.071   0.836  0.4474 -1.5948  0.2023
 3944TIP3   OH233322   2.305   2.211  12.857  0.4714 -0.0186  0.5627
 3944TIP3    H133323   2.289   2.174  12.770  0.3207  1.7981 -0.2210
 3944TIP3    H233324   2.231   2.182  12.910  0.6491 -1.2780  0.1637
 3945TIP3   OH233325   3.718   5.094   5.710  0.0621  0.0658  0.7007
 3945TIP3    H133326   3.736   5.066   5.799 -0.4062 -0.3196  0.6780
 3945TIP3    H233327   3.787   5.054   5.657  1.3433  1.6562  1.0896
 3946TIP3   OH233328   3.087   6.597  16.778  0.2664  0.2600 -0.2590
 3946TIP3    H133329   3.128   6.636  16.855  0.0169  0.5835 -0.2828
 3946TIP3    H233330   3.076   6.671  16.717  0.9902 -0.0991 -0.8388
 3947TIP3   OH233331   5.826   0.686   2.895 -0.3588  0.6216 -0.4927
 3947TIP3    H133332   5.887   0.755   2.868 -0.2649 -0.4089 -3.1564
 3947TIP3    H233333   5.790   0.652   2.814 -2.1527 -0.9529  0.8696
 3948TIP3   OH233334   4.263   5.655  12.843  0.6464 -0.1187 -0.0721
 3948TIP3    H133335   4.325   5.689  12.779 -0.0355  0.0326 -0.6561
 3948TIP3    H233336   4.250   5.564  12.819  0.2121 -0.0011 -0.2985
 3949TIP3   OH233337   5.321   3.038  12.723 -0.2362 -0.2017 -0.5167
 3949TIP3    H133338   5.339   3.130  12.702  1.0772 -0.3779 -0.2737
 3949TIP3    H233339   5.262   3.042  12.798  1.0025  0.4755  0.4553
 3950TIP3   OH233340   0.518   0.650   3.578  0.1314 -0.3602  0.0388
 3950TIP3    H133341   0.537   0.694   3.495  0.5470 -1.8307 -0.6718
 3950TIP3    H233342   0.490   0.721   3.636 -0.1673  0.7012 -1.3426
 3951TIP3   OH233343   1.655   2.602   2.786 -0.2024  0.0304 -0.4665
 3951TIP3    H133344   1.712   2.640   2.853 -1.0580 -0.0390  0.3045
 3951TIP3    H233345   1.715   2.583   2.713  0.5815  0.9663 -0.0977
 3952TIP3   OH233346   2.773   4.944  11.216  0.1139 -0.0429  0.3735
 3952TIP3    H133347   2.762   5.010  11.284 -0.2659 -0.5749  0.8420
 3952TIP3    H233348   2.697   4.886  11.227  0.1185 -0.2059 -0.4206
 3953TIP3   OH233349   2.066   0.756   0.942 -0.3235  0.0585 -0.3742
 3953TIP3    H133350   2.024   0.841   0.951 -1.5937 -0.4573 -1.0311
 3953TIP3    H233351   2.047   0.729   0.852 -1.5826 -1.7031  0.3443
 3954TIP3   OH233352   3.839   6.795   2.215  0.0704 -0.0903  0.0088
 3954TIP3    H133353   3.836   6.784   2.120 -0.9483 -1.0883  0.1286
 3954TIP3    H233354   3.927   6.769   2.240  0.2505 -0.1002 -0.6342
 3955TIP3   OH233355   5.345   3.723  12.472 -0.6148 -0.0449  0.0431
 3955TIP3    H133356   5.358   3.815  12.495  1.0183  0.1387 -1.4848
 3955TIP3    H233357   5.324   3.724  12.379 -0.7875 -1.2177  0.0580
 3956TIP3   OH233358   4.937   1.770   2.123 -0.8672  0.1257 -0.3141
 3956TIP3    H133359   4.927   1.725   2.206 -1.3704  1.2068  0.2266
 3956TIP3    H233360   4.848   1.794   2.098 -0.6484  0.4385 -0.8052
 3957TIP3   OH233361   1.791   3.232  13.284 -0.4704  0.3516  0.1887
 3957TIP3    H133362   1.766   3.142  13.264  1.1735  0.2808 -1.8330
 3957TIP3    H233363   1.886   3.235  13.274 -0.3742  2.1418  1.0381
 3958TIP3   OH233364   2.492   5.256  14.320  0.0442  0.0090  0.5860
 3958TIP3    H133365   2.515   5.339  14.278  0.3205 -0.8953 -1.1214
 3958TIP3    H233366   2.476   5.280  14.411 -1.5324  2.2025 -0.1845
 3959TIP3   OH233367   6.253   4.784  14.061  0.4877  0.3718  0.6537
 3959TIP3    H133368   6.236   4.693  14.036 -0.5709  0.8041 -0.2869
 3959TIP3    H233369   6.337   4.805  14.020 -0.2873  0.4561 -0.9640
 3960TIP3   OH233370   3.175   2.332  12.527 -0.3378  0.2785 -0.7438
 3960TIP3    H133371   3.140   2.387  12.456 -0.4277  0.6775 -0.3985
 3960TIP3    H233372   3.100   2.281  12.557 -0.1890 -0.2380 -1.2535
 3961TIP3   OH233373   0.828   0.989  13.933 -0.2091 -0.1220  1.0982
 3961TIP3    H133374   0.742   0.949  13.947  0.0485 -1.1141  0.0169
 3961TIP3    H233375   0.839   0.989  13.838  0.8609  0.2552  1.2121
 3962TIP3   OH233376   4.597   3.111  10.916  0.3144  0.3534  0.7472
 3962TIP3    H133377   4.670   3.083  10.972 -0.2349 -3.9818 -0.3444
 3962TIP3    H233378   4.634   3.113  10.828 -0.4754 -0.3121  0.3902
 3963TIP3   OH233379   1.840   4.314   6.706 -0.9582 -0.3368 -0.5153
 3963TIP3    H133380   1.909   4.344   6.647 -0.4138 -1.9514 -0.7194
 3963TIP3    H233381   1.854   4.365   6.786  1.5566 -1.7782  0.0695
 3964TIP3   OH233382   0.338   0.445  11.011 -0.3333 -0.5430  0.0876
 3964TIP3    H133383   0.397   0.379  10.975 -0.3355 -0.4830 -0.0268
 3964TIP3    H233384   0.250   0.415  10.987 -0.3032 -0.2039 -0.4604
 3965TIP3   OH233385   5.771   2.473   2.059  0.1905  0.0629 -0.2752
 3965TIP3    H133386   5.836   2.518   2.005 -0.2220  0.5000 -0.4148
 3965TIP3    H233387   5.808   2.473   2.147 -0.6836  2.5022  0.1538
 3966TIP3   OH233388   6.515   1.683  11.986  0.2502 -0.0952  0.5988
 3966TIP3    H133389   6.482   1.604  12.028  2.0644  0.7521  4.0037
 3966TIP3    H233390   6.442   1.745  11.990 -0.2820 -0.7046  0.5059
 3967TIP3   OH233391   4.124   0.678  13.169 -0.0069 -0.4753 -0.1665
 3967TIP3    H133392   4.182   0.608  13.202  0.1630 -0.4934 -0.5036
 3967TIP3    H233393   4.036   0.642  13.179 -0.0904  0.1496  1.8220
 3968TIP3   OH233394   3.058   3.349   3.907 -0.2076  0.2671  0.2213
 3968TIP3    H133395   3.112   3.428   3.903  0.5542 -0.1514  1.4774
 3968TIP3    H233396   3.023   3.348   3.996  0.7948 -1.4123  0.6495
 3969TIP3   OH233397   1.401   3.303  15.568  0.1645  0.0278 -0.2270
 3969TIP3    H133398   1.382   3.372  15.505 -0.2135  1.1207  1.0300
 3969TIP3    H233399   1.439   3.232  15.516  0.8134  1.2818 -1.5250
 3970TIP3   OH233400   2.942   1.881  14.276 -0.3796  0.2574 -0.5617
 3970TIP3    H133401   2.878   1.938  14.318  0.4093  2.1517 -1.7936
 3970TIP3    H233402   2.905   1.793  14.284 -0.6874  0.5732  3.2198
 3971TIP3   OH233403   0.712   4.417   4.736  0.0915  0.1031  0.3386
 3971TIP3    H133404   0.721   4.438   4.829 -0.3058 -0.5057  0.5202
 3971TIP3    H233405   0.716   4.502   4.691 -0.5528  0.4780  0.9727
 3972TIP3   OH233406   2.267   0.269  10.902 -0.2548  0.1524  0.1669
 3972TIP3    H133407   2.314   0.220  10.834 -0.0604 -1.7709  1.6028
 3972TIP3    H233408   2.310   0.354  10.904  1.0526 -0.4499 -0.7417
 3973TIP3   OH233409   2.620   2.125  11.572 -0.1286 -0.0540 -0.2108
 3973TIP3    H133410   2.638   2.178  11.650  0.9479  1.3273 -1.3316
 3973TIP3    H233411   2.536   2.157  11.540  0.5676  1.1322 -0.9448
 3974TIP3   OH233412   2.450   0.708  15.006  0.1349 -0.1724  0.3466
 3974TIP3    H133413   2.356   0.716  14.986  0.5716  0.9074 -1.4716
 3974TIP3    H233414   2.461   0.756  15.088 -0.8569 -0.1543  0.4816
 3975TIP3   OH233415   1.635   5.419  13.250  0.4081 -0.3422  0.0656
 3975TIP3    H133416   1.718   5.445  13.290 -0.2284 -1.2587  2.0837
 3975TIP3    H233417   1.578   5.495  13.261  0.1453 -0.6889  1.2450
 3976TIP3   OH233418   2.336   1.203   3.965  0.0030  0.2382 -0.3799
 3976TIP3    H133419   2.387   1.126   3.939 -1.6167 -0.7342 -0.7933
 3976TIP3    H233420   2.402   1.272   3.977  1.5954 -1.3895  0.8299
 3977TIP3   OH233421   1.565   1.498   2.309 -0.4861  0.5160 -0.4205
 3977TIP3    H133422   1.577   1.455   2.224  1.9765  0.6898 -0.2316
 3977TIP3    H233423   1.543   1.427   2.369  1.3073 -0.2270 -0.5598
 3978TIP3   OH233424   0.650   1.030  16.850  0.1714 -0.6048 -0.0155
 3978TIP3    H133425   0.669   1.006  16.940 -0.8538 -0.7604  0.1719
 3978TIP3    H233426   0.735   1.056  16.814  0.5801 -0.4665  1.0096
 3979TIP3   OH233427   6.033   2.664  16.534 -0.0124  0.2073  0.6413
 3979TIP3    H133428   6.104   2.716  16.496 -0.5232  0.0812 -0.5341
 3979TIP3    H233429   6.037   2.682  16.628 -0.3676  2.6165  0.2490
 3980TIP3   OH233430   6.699   2.028   3.511 -0.3099 -0.5481  0.3070
 3980TIP3    H133431   6.644   2.105   3.498 -1.3784 -1.5401 -1.4815
 3980TIP3    H233432   6.788   2.060   3.496 -0.4469  0.8458  2.1694
 3981TIP3   OH233433   4.094   0.393  16.239 -0.2113 -0.0018 -0.6621
 3981TIP3    H133434   4.172   0.336  16.236  0.2412  0.5105  0.6069
 3981TIP3    H233435   4.029   0.348  16.185  1.1629 -0.1199 -2.2918
 3982TIP3   OH233436   6.687   4.860   2.154  0.4735  0.3157 -0.0727
 3982TIP3    H133437   6.729   4.775   2.166 -1.4449 -0.7667 -0.5337
 3982TIP3    H233438   6.759   4.921   2.141  1.9887 -0.9133  1.9559
 3983TIP3   OH233439   5.717   3.998   1.719  0.1288 -0.1363 -0.3233
 3983TIP3    H133440   5.810   4.022   1.712 -0.1191  1.6620  1.5657
 3983TIP3    H233441   5.695   4.016   1.810 -2.0636 -0.6715 -0.7003
 3984TIP3   OH233442   2.946   0.728  16.419 -0.3587 -0.1235  0.7765
 3984TIP3    H133443   2.999   0.805  16.441  0.2826 -0.3942  0.1873
 3984TIP3    H233444   2.858   0.764  16.406 -0.1020  0.4886  0.6662
 3985TIP3   OH233445   3.399   3.064  11.021  0.1015  0.4432 -0.0768
 3985TIP3    H133446   3.306   3.053  11.044  0.3745 -1.1852  0.3534
 3985TIP3    H233447   3.407   3.024  10.935  0.8290 -1.5172  0.8585
 3986TIP3   OH233448   0.153   2.709  14.833  0.4691 -0.0958 -0.3352
 3986TIP3    H133449   0.212   2.773  14.792  0.5931  0.2916  0.4174
 3986TIP3    H233450   0.083   2.763  14.870  0.4842 -0.4101  0.1555
 3987TIP3   OH233451   0.259   4.322   0.964  0.1875 -0.6061 -0.0621
 3987TIP3    H133452   0.351   4.339   0.947 -0.1322  2.0927  0.5214
 3987TIP3    H233453   0.259   4.253   1.031  1.6924 -1.5632 -0.9934
 3988TIP3   OH233454   2.333   1.284  10.748 -0.1050 -0.2419  0.2740
 3988TIP3    H133455   2.364   1.195  10.762 -0.1582 -0.2472  0.3650
 3988TIP3    H233456   2.241   1.281  10.775 -0.3946 -0.4051 -0.6908
 3989TIP3   OH233457   4.976   4.776   2.481  0.2618 -0.1867  0.0764
 3989TIP3    H133458   4.981   4.807   2.572  1.9251 -1.8280  0.6069
 3989TIP3    H233459   5.010   4.848   2.429  0.6321  0.2583  0.9109
 3990TIP3   OH233460   1.571   1.721   5.316 -0.1565  0.8184 -0.0548
 3990TIP3    H133461   1.514   1.772   5.374  0.2532  0.5871  0.5591
 3990TIP3    H233462   1.515   1.700   5.241 -1.7910 -1.7062  1.7056
 3991TIP3   OH233463   5.145   1.234  10.262  0.2513 -0.5894  0.5985
 3991TIP3    H133464   5.239   1.241  10.247 -0.2498  3.0897 -2.1129
 3991TIP3    H233465   5.122   1.315  10.308 -2.1582  1.5779 -3.7955
 3992TIP3   OH233466   1.877   0.217  16.517 -0.1704  0.3383  0.3299
 3992TIP3    H133467   1.941   0.189  16.452 -1.8879  1.8132 -2.1942
 3992TIP3    H233468   1.802   0.160  16.503 -0.8034  1.0875  0.5724
 3993TIP3   OH233469   4.009   2.994  10.664  0.9202  0.1642 -0.3813
 3993TIP3    H133470   4.002   2.993  10.568  0.7170  1.2006 -0.3830
 3993TIP3    H233471   3.968   2.912  10.691  0.3504  0.1809 -1.1484
 3994TIP3   OH233472   4.562   2.164  13.819 -0.6337 -0.7330 -0.4127
 3994TIP3    H133473   4.598   2.222  13.885 -1.5754 -2.2948  1.5900
 3994TIP3    H233474   4.638   2.126  13.776  0.0878 -1.3246  1.3084
 3995TIP3   OH233475   1.272   0.763   1.021 -0.1685  0.2741  0.3163
 3995TIP3    H133476   1.280   0.769   1.116  0.0907 -1.0090  0.3931
 3995TIP3    H233477   1.178   0.769   1.005 -0.4580 -1.8208  0.8826
 3996TIP3   OH233478   5.865   4.278  13.604  0.3852 -0.1702  0.9964
 3996TIP3    H133479   5.904   4.352  13.557 -0.4815 -0.2829  0.0563
 3996TIP3    H233480   5.840   4.217  13.534  1.0068 -1.3164  1.7553
 3997TIP3   OH233481   5.778   3.786  15.117  0.0766  0.5575  0.0163
 3997TIP3    H133482   5.782   3.879  15.093 -0.5842  0.0974 -2.0332
 3997TIP3    H233483   5.869   3.756  15.110  0.7393  1.5114  3.0170
 3998TIP3   OH233484   1.565   0.269   0.613  0.3973 -0.6817 -0.3449
 3998TIP3    H133485   1.539   0.285   0.704  0.9880 -0.7959 -0.1562
 3998TIP3    H233486   1.514   0.332   0.562 -0.6604 -1.2441 -0.0322
 3999TIP3   OH233487   0.950   1.044  10.332  0.1173 -1.0779  0.2089
 3999TIP3    H133488   0.863   1.078  10.350 -0.5428 -2.1259 -0.7968
 3999TIP3    H233489   1.004   1.075  10.404 -0.3804  2.0704 -0.6399
 4000TIP3   OH233490   1.726   6.515  14.319 -0.0018  0.1735  0.3254
 4000TIP3    H133491   1.742   6.609  14.310  1.5279 -0.0658  0.2529
 4000TIP3    H233492   1.813   6.477  14.331 -0.3944 -1.4018 -1.2694
 4001TIP3   OH233493   1.869   3.111  15.940  0.5312  0.4194 -0.2443
 4001TIP3    H133494   1.774   3.097  15.942  0.4333  1.0930  0.1980
 4001TIP3    H233495   1.892   3.105  15.847  0.2149 -0.7074 -0.2699
 4002TIP3   OH233496   3.131   5.826  12.709 -0.6729  0.7594  0.2369
 4002TIP3    H133497   3.181   5.779  12.775 -1.5662 -1.3059 -0.4536
 4002TIP3    H233498   3.149   5.918  12.725 -0.6017  0.3168  3.1194
 4003TIP3   OH233499   5.645   6.390   4.375  0.4053 -0.4268  0.3664
 4003TIP3    H133500   5.577   6.327   4.351  0.5267 -0.2228 -0.5364
 4003TIP3    H233501   5.724   6.338   4.385  0.1376 -0.6595  1.3671
 4004TIP3   OH233502   4.967   3.876  13.035 -0.0733 -0.0411 -0.4177
 4004TIP3    H133503   4.891   3.851  12.983 -0.1036  0.3666 -0.5676
 4004TIP3    H233504   4.930   3.926  13.108 -0.4920 -3.6846  2.1576
 4005TIP3   OH233505   3.163   2.480   6.002  0.8137  0.3175 -0.3854
 4005TIP3    H133506   3.226   2.473   5.930  1.0433 -1.4962 -0.0739
 4005TIP3    H233507   3.119   2.395   6.002 -0.8669  1.1486  0.1152
 4006TIP3   OH233508   3.850   0.412  13.898 -0.6967  0.0067  0.1729
 4006TIP3    H133509   3.843   0.316  13.903 -2.7143  0.1438  1.2443
 4006TIP3    H233510   3.939   0.431  13.927 -1.2191 -1.4267  3.0982
 4007TIP3   OH233511   4.097   1.980   1.959  0.2151  0.7451  0.0567
 4007TIP3    H133512   4.079   1.970   2.053  1.7856 -0.8301  0.2508
 4007TIP3    H233513   4.184   2.019   1.956  1.3552 -1.6532 -0.6487
 4008TIP3   OH233514   1.535   1.524  17.102 -0.4856  0.1109 -0.4584
 4008TIP3    H133515   1.544   1.522  17.197 -0.6380  1.2724 -0.4061
 4008TIP3    H233516   1.610   1.473  17.070 -0.6103 -0.5562  0.2824
 4009TIP3   OH233517   2.715   3.379   1.450  0.1672 -0.0356  0.8698
 4009TIP3    H133518   2.725   3.287   1.474  0.0564 -0.4805 -0.7117
 4009TIP3    H233519   2.672   3.378   1.365  2.5362  1.3842 -0.4499
 4010TIP3   OH233520   6.326   0.783   2.396  0.1024 -0.0911  0.7062
 4010TIP3    H133521   6.329   0.795   2.301  1.4365 -1.1092  0.5943
 4010TIP3    H233522   6.241   0.741   2.411  0.4719 -1.2548 -0.2358
 4011TIP3   OH233523   3.422   3.354   4.636 -0.1398 -0.6957  0.7266
 4011TIP3    H133524   3.467   3.271   4.617 -0.8888 -0.8930 -0.2397
 4011TIP3    H233525   3.343   3.328   4.685 -1.5495 -0.8058 -1.4905
 4012TIP3   OH233526   4.919   0.094   0.743  0.1332  0.0342 -0.4999
 4012TIP3    H133527   4.865   0.157   0.790 -0.0816  0.8749 -1.8267
 4012TIP3    H233528   5.005   0.136   0.738  0.2146 -0.1482 -0.6417
 4013TIP3   OH233529   2.870   3.378  14.856 -0.2984  0.0758  0.2708
 4013TIP3    H133530   2.948   3.346  14.809 -0.1151 -0.1493  0.7261
 4013TIP3    H233531   2.875   3.337  14.942 -0.0300  1.3666  0.8930
 4014TIP3   OH233532   0.031   0.951  13.742  0.4202  0.3950 -0.2616
 4014TIP3    H133533  -0.022   1.019  13.699 -0.4089 -0.8808 -1.3210
 4014TIP3    H233534   0.119   0.965  13.707  1.0153  2.8525  1.8909
 4015TIP3   OH233535   3.684   0.511   3.227  0.3535  0.0120 -0.3052
 4015TIP3    H133536   3.760   0.452   3.225  0.7125  0.4232  0.6180
 4015TIP3    H233537   3.721   0.597   3.207 -0.4033 -0.2255 -3.3409
 4016TIP3   OH233538   5.101   5.237  11.034 -0.2005 -0.4881  0.0909
 4016TIP3    H133539   5.171   5.277  11.087  0.1365  0.5241 -1.0710
 4016TIP3    H233540   5.029   5.225  11.096  0.5528 -0.3490  1.0291
 4017TIP3   OH233541   1.382   5.893   0.253  0.0259  0.0953 -0.0905
 4017TIP3    H133542   1.466   5.856   0.226  0.2518  0.2648  0.3619
 4017TIP3    H233543   1.341   5.922   0.172 -0.8710 -2.5454 -0.6911
 4018TIP3   OH233544   1.642   0.869   3.794  0.4417 -0.0442  0.3777
 4018TIP3    H133545   1.726   0.825   3.783  0.5459  0.6251 -2.2963
 4018TIP3    H233546   1.656   0.956   3.756 -0.5461  1.3260  2.9461
 4019TIP3   OH233547   5.544   0.920  12.793 -0.5834  0.3582  0.6505
 4019TIP3    H133548   5.573   0.953  12.708 -1.2950  0.4687  0.4377
 4019TIP3    H233549   5.512   0.831  12.775 -2.0749  0.8894  0.5011
 4020TIP3   OH233550   4.552   3.536   2.508  0.3285  0.7326 -0.5010
 4020TIP3    H133551   4.531   3.465   2.448 -0.5949  1.1441 -0.6716
 4020TIP3    H233552   4.533   3.501   2.595 -1.0076  1.0643 -0.6448
 4021TIP3   OH233553   4.721   3.274  16.625  0.3948 -0.0285 -0.4160
 4021TIP3    H133554   4.718   3.325  16.544 -2.5612 -0.2098 -0.5498
 4021TIP3    H233555   4.639   3.224  16.624  0.8224 -0.9116  2.1499
 4022TIP3   OH233556   4.652   6.302   3.611 -0.7414 -0.2991 -0.1639
 4022TIP3    H133557   4.742   6.319   3.582 -1.0445 -0.8229 -1.5019
 4022TIP3    H233558   4.599   6.366   3.563 -1.0484  0.3317  0.9822
 4023TIP3   OH233559   2.351   2.195  14.218  0.1218 -0.2216 -0.3239
 4023TIP3    H133560   2.292   2.120  14.225  1.1167 -1.2492 -2.1914
 4023TIP3    H233561   2.364   2.224  14.308 -0.8861 -1.8244  0.3714
 4024TIP3   OH233562   3.705   3.620  10.978  0.3951  0.4668  0.0125
 4024TIP3    H133563   3.752   3.625  10.895  0.8835  1.0458  0.3230
 4024TIP3    H233564   3.665   3.706  10.988  1.1697  0.7415  0.8630
 4025TIP3   OH233565   0.773   6.727   0.996  0.1195  0.2857  0.2976
 4025TIP3    H133566   0.716   6.752   0.923  2.1219  1.2380 -1.0243
 4025TIP3    H233567   0.850   6.689   0.954  0.5160 -0.9194  2.0225
 4026TIP3   OH233568   2.210   3.787  15.768  0.7012 -0.5668  0.6631
 4026TIP3    H133569   2.251   3.747  15.691  0.5773  1.1411 -0.3533
 4026TIP3    H233570   2.128   3.739  15.780 -0.5795  0.7514 -1.9416
 4027TIP3   OH233571   2.415   3.675  14.260  0.5137  0.0254  0.3158
 4027TIP3    H133572   2.333   3.720  14.239  0.2484 -0.1407  0.9649
 4027TIP3    H233573   2.424   3.685  14.355  2.8737  2.7923 -0.0695
 4028TIP3   OH233574   5.720   5.170   0.143  0.2175  0.2390  0.0972
 4028TIP3    H133575   5.776   5.175   0.220  0.7080 -1.6719 -0.0872
 4028TIP3    H233576   5.767   5.221   0.076  1.6521 -1.1141  0.0287
 4029TIP3   OH233577   2.054   2.869   2.323 -0.0001  0.1213  0.0743
 4029TIP3    H133578   2.148   2.855   2.329  0.1428  0.8657 -0.3363
 4029TIP3    H233579   2.037   2.886   2.230 -0.0701  2.9811  0.5234
 4030TIP3   OH233580   5.866   1.005   6.535  0.1088 -0.0548 -0.0201
 4030TIP3    H133581   5.850   0.936   6.600  2.1315 -0.3093  0.2878
 4030TIP3    H233582   5.830   0.971   6.454 -0.7981 -0.5469  0.5698
 4031TIP3   OH233583   6.031   3.451   4.047 -0.2357 -0.1683  0.2873
 4031TIP3    H133584   5.939   3.432   4.068 -0.4105  0.0711 -0.2627
 4031TIP3    H233585   6.028   3.509   3.971  0.3448  0.7756  0.9595
 4032TIP3   OH233586   1.938   1.953  14.821  0.2434  0.3566  0.4684
 4032TIP3    H133587   2.018   1.930  14.774  0.5169 -0.5562  1.3521
 4032TIP3    H233588   1.967   2.012  14.891  0.2348 -0.4181  1.1349
 4033TIP3   OH233589   2.623   2.478   1.382  0.2377 -0.1781  0.6105
 4033TIP3    H133590   2.532   2.493   1.408 -0.3476 -0.2254 -1.2917
 4033TIP3    H233591   2.664   2.564   1.386 -0.4824  0.2405 -0.6203
 4034TIP3   OH233592   5.776   3.148   0.024 -0.2206  0.1413  0.4701
 4034TIP3    H133593   5.716   3.215  -0.009 -1.6769 -0.9191  0.8421
 4034TIP3    H233594   5.772   3.078  -0.042  1.6147  0.5404 -0.1361
 4035TIP3   OH233595   2.916   3.876   2.454  0.2227  0.0851 -0.6249
 4035TIP3    H133596   2.960   3.955   2.425  2.4919 -1.1265 -0.6690
 4035TIP3    H233597   2.849   3.860   2.388 -0.2087  1.8703 -0.6634
 4036TIP3   OH233598   3.806   5.513   0.100  0.1914 -0.0194  0.0419
 4036TIP3    H133599   3.731   5.478   0.052  1.7731 -0.8340 -1.9924
 4036TIP3    H233600   3.865   5.546   0.032  1.9669  0.0094  1.5144
 4037TIP3   OH233601   5.884   1.433  13.706  0.1370  0.2760 -0.2512
 4037TIP3    H133602   5.962   1.475  13.741  0.4281 -0.5253  0.1069
 4037TIP3    H233603   5.812   1.492  13.728  0.4758  0.3636  0.6485
 4038TIP3   OH233604   0.573   2.514  17.031  0.7793  0.3233 -0.7151
 4038TIP3    H133605   0.552   2.601  16.996 -0.9118 -0.2703 -1.2748
 4038TIP3    H233606   0.489   2.469  17.035  1.2587 -0.5189  1.7677
 4039TIP3   OH233607   1.112   2.159  15.537 -0.5466 -0.5783  0.7882
 4039TIP3    H133608   1.070   2.232  15.583  1.2083  1.6420 -0.8435
 4039TIP3    H233609   1.041   2.115  15.491 -1.6686  0.1846  1.7335
 4040TIP3   OH233610   6.299   6.079   2.675 -0.1461 -0.3228  0.9702
 4040TIP3    H133611   6.267   6.023   2.744  1.2400 -0.2509  1.7146
 4040TIP3    H233612   6.223   6.095   2.618 -1.1494 -0.8710  2.1308
 4041TIP3   OH233613   4.612   6.349   1.616  0.5309 -0.1823 -0.0745
 4041TIP3    H133614   4.699   6.348   1.655  0.4576  2.5449  0.4166
 4041TIP3    H233615   4.627   6.370   1.523  0.4412 -0.5940 -0.1819
 4042TIP3   OH233616   4.284   4.289   2.215  0.0343  0.4012  0.4319
 4042TIP3    H133617   4.309   4.359   2.274 -0.6332  0.2755  0.8734
 4042TIP3    H233618   4.352   4.222   2.227  1.6737  1.6554 -1.2906
 4043TIP3   OH233619   2.191   3.169   5.194 -0.2677  0.2846  0.5085
 4043TIP3    H133620   2.112   3.202   5.150  0.0822  0.1215 -0.2485
 4043TIP3    H233621   2.262   3.184   5.132  0.1533 -0.4386  0.7970
 4044TIP3   OH233622   0.991   5.812   1.478  0.5403  0.0709  0.2498
 4044TIP3    H133623   1.018   5.745   1.416  0.4240  0.6722 -0.4603
 4044TIP3    H233624   1.059   5.880   1.470 -0.8026  1.3131 -1.0885
 4045TIP3   OH233625   0.763   3.293   1.029  0.1607  0.4733  0.0653
 4045TIP3    H133626   0.750   3.318   0.938 -0.8403  1.6832  0.5108
 4045TIP3    H233627   0.674   3.277   1.062  0.5611 -0.6121  0.6572
 4046TIP3   OH233628   3.084   3.000  12.275 -0.9146  0.6258 -0.1311
 4046TIP3    H133629   3.137   3.070  12.313 -0.1779  0.5563 -0.9985
 4046TIP3    H233630   3.124   2.919  12.306  1.1660  0.4916 -2.8070
 4047TIP3   OH233631   4.170   6.812  15.842 -0.6403 -0.2586  0.7250
 4047TIP3    H133632   4.142   6.806  15.751  1.8927 -0.1279 -0.1399
 4047TIP3    H233633   4.118   6.745  15.888 -0.8043 -1.4678 -1.1237
 4048TIP3   OH233634   3.314   4.999  14.322 -0.8689  0.1081 -0.1331
 4048TIP3    H133635   3.393   5.006  14.375 -1.0279 -3.2715  0.7665
 4048TIP3    H233636   3.294   5.089  14.297  2.1458  1.2722  1.1994
 4049TIP3   OH233637   5.282   4.103  15.472  0.1027 -0.1172  0.3215
 4049TIP3    H133638   5.260   4.010  15.482  0.6799 -0.2560  0.3743
 4049TIP3    H233639   5.304   4.132  15.560 -0.3988  0.1575  0.3559
 4050TIP3   OH233640   6.378   5.543   2.271  0.4179 -0.5272  0.1151
 4050TIP3    H133641   6.439   5.516   2.202  0.6643 -1.4603  0.6754
 4050TIP3    H233642   6.419   5.620   2.309  0.7406 -0.5443 -0.1831
 4051TIP3   OH233643   3.905   1.512  13.694  0.4605  0.7128 -0.3281
 4051TIP3    H133644   3.853   1.490  13.617 -1.4551  0.7077  0.9080
 4051TIP3    H233645   3.842   1.542  13.759  1.8427 -0.4248  1.6796
 4052TIP3   OH233646   1.596   6.383  13.105  0.0490  1.0531 -0.1265
 4052TIP3    H133647   1.561   6.329  13.175 -0.7974  2.0429  0.2457
 4052TIP3    H233648   1.641   6.322  13.046 -0.4190  0.0432  0.5540
 4053TIP3   OH233649   0.400   5.928  11.345 -0.6257 -0.0359  0.2111
 4053TIP3    H133650   0.461   5.904  11.415 -0.2836  0.4003  0.0644
 4053TIP3    H233651   0.453   5.930  11.266 -0.8314  0.3496  0.0810
 4054TIP3   OH233652   3.399   5.777   4.622 -0.0477  0.4382  0.5590
 4054TIP3    H133653   3.481   5.814   4.591  0.0163 -0.8717 -0.9652
 4054TIP3    H233654   3.425   5.712   4.687  0.3445 -1.4595 -1.3957
 4055TIP3   OH233655   0.957   4.033   0.785 -0.1107  0.8087  0.1192
 4055TIP3    H133656   1.045   4.035   0.748  1.1877  0.5955  2.9514
 4055TIP3    H233657   0.953   3.951   0.834 -1.5092  1.2983  0.8793
 4056TIP3   OH233658   0.379   2.756  16.236 -0.0798 -0.5891  0.2811
 4056TIP3    H133659   0.429   2.742  16.316  0.6571 -0.3601 -0.1329
 4056TIP3    H233660   0.413   2.692  16.174 -1.3190 -1.4192  0.4393
 4057TIP3   OH233661   1.586   4.382  15.379 -0.0162  0.1446 -0.6464
 4057TIP3    H133662   1.552   4.418  15.461 -0.3005  0.3281 -0.8394
 4057TIP3    H233663   1.587   4.287  15.393  0.1686  0.1921 -0.3450
 4058TIP3   OH233664   3.643   5.898   4.075 -0.3562  0.2380 -0.3430
 4058TIP3    H133665   3.648   5.990   4.049 -0.4308 -0.2371 -2.1465
 4058TIP3    H233666   3.582   5.898   4.149 -0.5298  1.6093 -0.4588
 4059TIP3   OH233667   0.440   0.466  15.074  0.1007 -0.1203  0.3703
 4059TIP3    H133668   0.440   0.439  15.166  0.0373 -3.7500 -0.5283
 4059TIP3    H233669   0.530   0.452  15.044 -0.1922 -0.3896 -0.4248
 4060TIP3   OH233670   1.163   0.153  14.569  0.6845 -0.3279  0.8465
 4060TIP3    H133671   1.234   0.103  14.608  0.1761 -0.0536  2.1736
 4060TIP3    H233672   1.108   0.179  14.643 -0.1834  0.4264 -0.0302
 4061TIP3   OH233673   1.583   2.755   1.414 -0.0274  0.1283 -0.2653
 4061TIP3    H133674   1.580   2.690   1.484 -0.4589 -1.0236 -1.3118
 4061TIP3    H233675   1.673   2.751   1.381 -0.1739 -0.2968 -0.6317
 4062TIP3   OH233676   5.997   4.427  14.318 -0.0974 -0.0747 -0.1124
 4062TIP3    H133677   6.034   4.509  14.350  0.3508  0.3975 -1.7344
 4062TIP3    H233678   5.930   4.403  14.383 -0.3368  1.6443  0.3190
 4063TIP3   OH233679   5.650   2.816  12.338 -0.4441  0.7996 -0.2119
 4063TIP3    H133680   5.623   2.777  12.421 -1.4681  0.4854 -0.6763
 4063TIP3    H233681   5.585   2.883  12.320 -0.3111  0.7761 -0.8197
 4064TIP3   OH233682   3.057   1.306   3.074 -0.2235  0.2761 -0.1135
 4064TIP3    H133683   2.972   1.296   3.030 -0.1687  0.5966 -0.2892
 4064TIP3    H233684   3.047   1.254   3.154  0.1521 -1.4758 -1.1388
 4065TIP3   OH233685   1.244   2.220  13.524 -0.3337 -0.3107 -0.0709
 4065TIP3    H133686   1.155   2.185  13.534  0.1205 -0.9487  2.3962
 4065TIP3    H233687   1.271   2.243  13.613  1.8124  0.2983 -0.8173
 4066TIP3   OH233688   1.495   3.813   1.317  0.3257  0.0882 -0.3833
 4066TIP3    H133689   1.428   3.777   1.375  1.1200  0.6677  0.9600
 4066TIP3    H233690   1.510   3.901   1.352  0.1708  0.8046 -2.0660
 4067TIP3   OH233691   4.044   4.618   3.919 -0.1839 -0.0450 -0.3993
 4067TIP3    H133692   4.083   4.634   3.833 -0.6401 -0.4989 -0.6946
 4067TIP3    H233693   4.098   4.548   3.957 -0.5141 -0.4530 -0.6780
 4068TIP3   OH233694   2.562   5.658  15.812  0.0702  0.2584  0.0999
 4068TIP3    H133695   2.502   5.604  15.863 -1.2257  1.4304 -0.1406
 4068TIP3    H233696   2.632   5.680  15.873  0.4997 -1.4484  0.2734
 4069TIP3   OH233697   2.923   5.595  14.859 -0.5102 -0.6062 -0.2298
 4069TIP3    H133698   2.988   5.586  14.789  1.8052  0.1642  1.6614
 4069TIP3    H233699   2.902   5.505  14.885 -0.3362 -0.8666 -0.9668
 4070TIP3   OH233700   6.513   5.072  12.042  0.5008  0.2020  0.0786
 4070TIP3    H133701   6.424   5.064  12.009  0.0794 -1.4126  1.4386
 4070TIP3    H233702   6.553   4.987  12.023  1.6228  0.7591 -0.1347
 4071TIP3   OH233703   0.227   6.438  13.870  0.0295  0.6823 -0.3584
 4071TIP3    H133704   0.287   6.367  13.892 -0.2166  0.4315 -0.4909
 4071TIP3    H233705   0.277   6.497  13.815  0.0206  0.2473 -0.8350
 4072TIP3   OH233706   6.157   3.850  14.153  0.0461 -0.4844 -0.2539
 4072TIP3    H133707   6.231   3.883  14.103  1.3030  1.6091  2.7293
 4072TIP3    H233708   6.088   3.916  14.140 -0.6403 -1.3848 -1.3826
 4073TIP3   OH233709   0.116   2.451  15.979 -0.0540 -0.3003 -0.3035
 4073TIP3    H133710   0.101   2.360  15.953  1.0913 -0.6576  0.2142
 4073TIP3    H233711   0.074   2.503  15.910 -0.2922 -1.2158 -0.8691
 4074TIP3   OH233712   6.490   5.147  11.460  0.1459  0.2305  0.1493
 4074TIP3    H133713   6.486   5.242  11.449  0.2589  0.1158 -0.9312
 4074TIP3    H233714   6.576   5.122  11.426 -1.2070 -0.6583 -3.0025
 4075TIP3   OH233715   6.799   4.590   3.992 -0.0653 -0.8069 -0.5663
 4075TIP3    H133716   6.705   4.594   4.009  0.2108  4.3948  1.5222
 4075TIP3    H233717   6.807   4.609   3.899 -0.9760 -2.7151 -1.0929
 4076TIP3   OH233718   5.892   1.258   0.189 -0.0286  0.4262 -0.6436
 4076TIP3    H133719   5.878   1.257   0.094  0.0652  0.6698 -0.6593
 4076TIP3    H233720   5.811   1.222   0.225 -0.6414  1.6558 -0.7402
 4077TIP3   OH233721   2.353   2.313  13.970 -0.3186  0.2015 -0.1850
 4077TIP3    H133722   2.279   2.374  13.976  0.3519  0.9698  0.4206
 4077TIP3    H233723   2.373   2.291  14.061  1.5298  1.6472 -0.1959
 4078TIP3   OH233724   4.876   0.983   1.341  0.0018 -0.2608  0.6671
 4078TIP3    H133725   4.842   0.942   1.420 -1.3414 -1.2397 -0.3816
 4078TIP3    H233726   4.843   1.073   1.345 -1.6502 -0.8262  0.3281
 4079TIP3   OH233727   0.663   1.680   2.239 -0.0940 -0.3451  0.1280
 4079TIP3    H133728   0.724   1.643   2.175  0.5066 -0.1540  0.5865
 4079TIP3    H233729   0.718   1.726   2.302 -0.7824  0.7393 -0.0370
 4080TIP3   OH233730   6.146   5.231  16.994  0.0613 -0.5448  0.4239
 4080TIP3    H133731   6.215   5.203  17.054 -1.9094 -3.2229  1.6110
 4080TIP3    H233732   6.142   5.163  16.928 -0.7729  0.1096 -0.2226
 4081TIP3   OH233733   1.075   4.321  17.094  0.0012  0.3222 -0.4003
 4081TIP3    H133734   1.106   4.398  17.047  1.5149  0.9289  1.4493
 4081TIP3    H233735   1.072   4.251  17.028  0.1278  1.5726 -1.7700
 4082TIP3   OH233736   5.916   1.093   2.022 -0.4381  0.3902 -0.3567
 4082TIP3    H133737   5.970   1.079   2.099  0.4338  0.1180 -1.0068
 4082TIP3    H233738   5.868   1.174   2.041  0.5337  0.8863  0.0466
 4083TIP3   OH233739   5.000   1.455   5.439 -0.2011 -0.0382 -0.0712
 4083TIP3    H133740   5.054   1.442   5.361 -0.6823  0.2672 -0.4546
 4083TIP3    H233741   5.024   1.542   5.471  0.5555 -0.4609  0.5747
 4084TIP3   OH233742   1.759   3.020   1.163  0.2221 -0.3035  0.1219
 4084TIP3    H133743   1.740   3.104   1.121 -0.8034 -1.3463 -1.6130
 4084TIP3    H233744   1.674   2.990   1.196  0.3202 -1.2113 -0.4016
 4085TIP3   OH233745   1.550   4.930  16.975  0.0489  0.5823  0.5244
 4085TIP3    H133746   1.491   4.894  16.909  1.3527 -1.8244  0.5917
 4085TIP3    H233747   1.625   4.963  16.926  0.2544  0.3556  0.6833
 4086TIP3   OH233748   2.600   6.133   1.942 -0.5217 -0.3130  0.2452
 4086TIP3    H133749   2.681   6.185   1.942 -0.1114 -0.9178  1.0929
 4086TIP3    H233750   2.537   6.187   1.990  0.1730 -0.9345  1.9662
 4087TIP3   OH233751   6.327   2.271   4.731  0.2032 -0.1911 -0.0931
 4087TIP3    H133752   6.275   2.192   4.715  1.1547 -0.5889 -1.3484
 4087TIP3    H233753   6.326   2.281   4.826 -1.0113 -0.9705 -0.0052
 4088TIP3   OH233754   0.746   6.395   1.834 -0.2423  0.1472 -0.4977
 4088TIP3    H133755   0.782   6.370   1.749 -1.9112 -0.9639 -0.9113
 4088TIP3    H233756   0.731   6.313   1.880 -0.0417  0.7040  0.6108
 4089TIP3   OH233757   6.509   4.382   4.806 -0.6255  0.4143 -0.0857
 4089TIP3    H133758   6.567   4.338   4.868  0.5169  2.2122  0.2068
 4089TIP3    H233759   6.501   4.321   4.733  2.9694  0.6742 -0.8522
 4090TIP3   OH233760   4.748   0.356  14.819  0.0597  0.2451  0.9435
 4090TIP3    H133761   4.757   0.282  14.760  0.6390  0.6356  0.5322
 4090TIP3    H233762   4.766   0.320  14.906 -2.1989 -0.6359  1.0974
 4091TIP3   OH233763   4.863   1.946   1.865 -0.2965 -0.2993  0.2009
 4091TIP3    H133764   4.828   1.996   1.939 -0.6364  0.3396 -0.3865
 4091TIP3    H233765   4.786   1.914   1.818 -0.0934 -0.1227 -0.2632
 4092TIP3   OH233766   4.615   2.544   0.763 -0.4772  0.4727 -0.0549
 4092TIP3    H133767   4.701   2.510   0.789 -0.6508 -0.7016 -0.9380
 4092TIP3    H233768   4.612   2.632   0.801  0.9261  0.3658  0.3766
 4093TIP3   OH233769   6.526   6.750   5.528  0.0332  0.0539  0.1042
 4093TIP3    H133770   6.502   6.781   5.616 -2.4326  2.1570 -1.1712
 4093TIP3    H233771   6.455   6.780   5.472  1.6791 -0.9348 -2.7102
 4094TIP3   OH233772   6.022   3.098   1.143  0.3396  0.1365  0.3349
 4094TIP3    H133773   5.968   3.155   1.198 -0.4452 -0.8902  0.6674
 4094TIP3    H233774   6.079   3.052   1.205 -1.9464 -2.5532  0.6475
 4095TIP3   OH233775   3.904   1.586  15.642 -0.4443 -0.0158 -0.2614
 4095TIP3    H133776   3.924   1.543  15.725 -1.8783 -1.2777 -0.5364
 4095TIP3    H233777   3.959   1.665  15.642  0.0807 -0.3434  1.5629
 4096TIP3   OH233778   0.776   4.788  14.895  0.6648  0.2629  0.0443
 4096TIP3    H133779   0.742   4.699  14.890 -2.3257  1.1816  1.3736
 4096TIP3    H233780   0.871   4.778  14.896  0.4468 -2.7983 -0.9964
 4097TIP3   OH233781   5.540   2.798   4.019  0.3484  0.3296 -0.2186
 4097TIP3    H133782   5.549   2.706   3.995  1.9233  0.7590 -1.4729
 4097TIP3    H233783   5.482   2.798   4.095 -2.0953 -1.4328 -1.9279
 4098TIP3   OH233784   5.558   1.446   3.590  0.2476  0.6558 -0.0094
 4098TIP3    H133785   5.620   1.472   3.659 -2.1710 -0.2767  2.7447
 4098TIP3    H233786   5.521   1.528   3.559  1.9410  1.1418 -0.8326
 4099TIP3   OH233787   6.348   4.102   1.711  0.4553  0.4690  0.1791
 4099TIP3    H133788   6.331   4.187   1.752  0.3118  0.4984  0.0547
 4099TIP3    H233789   6.389   4.124   1.628 -0.7900  0.4579 -0.4585
 4100TIP3   OH233790   0.726   2.242  14.533 -0.6502 -0.5799  0.3165
 4100TIP3    H133791   0.777   2.164  14.511 -3.4296 -2.5518  0.3921
 4100TIP3    H233792   0.672   2.215  14.607 -1.1260  1.7022  0.8604
 4101TIP3   OH233793   3.499   5.027  12.890  0.2416  0.1307 -0.3029
 4101TIP3    H133794   3.503   4.935  12.916  0.9184 -0.4455 -2.2227
 4101TIP3    H233795   3.584   5.062  12.917 -0.1904  0.3538  0.8449
 4102TIP3   OH233796   0.240   5.205   5.682  0.2245  0.1014 -0.1461
 4102TIP3    H133797   0.330   5.176   5.672  0.2068 -0.8533  1.9072
 4102TIP3    H233798   0.192   5.162   5.611  1.4119  1.0125 -1.5617
 4103TIP3   OH233799   1.334   2.349   2.609 -0.7594  0.3423  0.6936
 4103TIP3    H133800   1.379   2.427   2.643 -0.6706  0.4906  0.2502
 4103TIP3    H233801   1.307   2.301   2.686 -2.5251  1.7731  1.0272
 4104TIP3   OH233802   2.146   4.875  13.263 -0.2290 -0.4599  0.1057
 4104TIP3    H133803   2.203   4.823  13.206 -0.4488 -0.5010 -0.0804
 4104TIP3    H233804   2.125   4.952  13.211 -0.2885 -0.4119  0.2008
 4105TIP3   OH233805   5.829   4.961   0.476 -0.2167 -0.3485 -0.6693
 4105TIP3    H133806   5.888   4.898   0.435 -0.6040 -1.7426  0.8016
 4105TIP3    H233807   5.741   4.925   0.461 -0.5180  0.3501 -0.6303
 4106TIP3   OH233808   2.277   0.422   1.911 -0.0361 -0.1638  0.3444
 4106TIP3    H133809   2.321   0.507   1.919 -1.0238  0.3323  0.8583
 4106TIP3    H233810   2.343   0.358   1.936  0.7065  0.4575  0.0345
 4107TIP3   OH233811   3.692   1.606  15.011 -0.4933 -0.3060 -0.4163
 4107TIP3    H133812   3.644   1.652  15.080 -0.5442 -1.4279  0.3267
 4107TIP3    H233813   3.626   1.587  14.945 -0.4440  0.7802 -0.7975
 4108TIP3   OH233814   0.570   2.519  13.394 -0.1238  0.1837 -0.4750
 4108TIP3    H133815   0.608   2.555  13.475 -0.3443  0.8285 -0.6534
 4108TIP3    H233816   0.478   2.507  13.415  0.2142 -1.6987  0.0676
 4109TIP3   OH233817   2.013   0.668  11.930  0.4467  0.0697  0.2526
 4109TIP3    H133818   2.034   0.728  12.002  4.7562  0.2491 -0.9205
 4109TIP3    H233819   1.996   0.726  11.855 -2.6763 -0.1614  0.6383
 4110TIP3   OH233820   5.498   4.144  14.097  0.3617  0.3799  0.2251
 4110TIP3    H133821   5.438   4.218  14.104 -1.6703 -1.1272 -0.3462
 4110TIP3    H233822   5.479   4.107  14.011  0.5425 -1.4355  0.9398
 4111TIP3   OH233823   5.083   5.869   0.535 -0.2134 -0.2852 -0.0761
 4111TIP3    H133824   5.073   5.854   0.629 -2.4107  0.4682 -0.1364
 4111TIP3    H233825   5.078   5.965   0.525  1.4196 -0.2504 -0.8456
 4112TIP3   OH233826   5.228   0.854   5.288 -0.2142  0.2289  0.0437
 4112TIP3    H133827   5.174   0.841   5.210 -0.0973 -1.2721  0.1753
 4112TIP3    H233828   5.314   0.879   5.253 -0.7528  1.8838 -0.1924
 4113TIP3   OH233829   0.504   0.617  13.489 -0.8654 -0.3673  0.7893
 4113TIP3    H133830   0.456   0.585  13.413 -0.6412 -1.0974  0.9522
 4113TIP3    H233831   0.553   0.542  13.521 -1.4343 -0.2528  2.0243
 4114TIP3   OH233832   4.609   6.705   0.380 -0.0954  0.3484 -0.7457
 4114TIP3    H133833   4.621   6.630   0.321 -0.4482  0.6695 -1.2349
 4114TIP3    H233834   4.514   6.715   0.386 -0.1353 -0.7086  1.2076
 4115TIP3   OH233835   0.644   1.861  12.465 -0.2174 -0.8512 -0.1792
 4115TIP3    H133836   0.662   1.887  12.375 -1.1788  0.4896 -0.0189
 4115TIP3    H233837   0.703   1.787  12.481  2.6723  1.1451 -0.7166
 4116TIP3   OH233838   3.407   5.839  13.663  0.2980  0.0976 -0.3085
 4116TIP3    H133839   3.316   5.814  13.650 -0.1197 -0.0631  2.3409
 4116TIP3    H233840   3.452   5.757  13.681  0.4652  0.3850  0.6870
 4117TIP3   OH233841   5.000   6.058   4.617  0.3663 -0.2736 -0.3219
 4117TIP3    H133842   4.933   6.116   4.581 -0.0111 -0.1778  0.4996
 4117TIP3    H233843   5.061   6.044   4.545 -0.6330 -0.5062 -1.1480
 4118TIP3   OH233844   5.904   3.852   3.561 -0.1461  0.3084 -0.7029
 4118TIP3    H133845   5.878   3.883   3.648  0.8335 -2.6564  0.7901
 4118TIP3    H233846   5.978   3.908   3.537  0.5250  0.2232  1.0655
 4119TIP3   OH233847   4.815   3.069  15.319 -0.0264  0.1249  0.0155
 4119TIP3    H133848   4.764   3.150  15.331 -1.5891 -0.8346  0.1103
 4119TIP3    H233849   4.846   3.074  15.229 -0.0819  0.8385  0.0250
 4120TIP3   OH233850   3.965   4.261   0.339 -0.5032  0.1836 -0.0417
 4120TIP3    H133851   3.971   4.195   0.271 -1.2622 -0.8456  0.8604
 4120TIP3    H233852   3.873   4.262   0.364 -0.1293  0.0596  1.4271
 4121TIP3   OH233853   3.715   1.070  10.408 -0.1317 -0.3434 -0.7342
 4121TIP3    H133854   3.738   1.054  10.500  0.2242  0.5153 -0.6643
 4121TIP3    H233855   3.691   1.163  10.405 -0.4495 -0.4428 -1.4479
 4122TIP3   OH233856   0.006   6.281   6.733 -0.0045 -0.2305 -0.3314
 4122TIP3    H133857   0.083   6.226   6.728 -0.3121 -0.7196  0.1329
 4122TIP3    H233858   0.029   6.361   6.685  0.5009 -0.6943 -0.8610
 4123TIP3   OH233859   4.280   5.004   0.465 -0.6500 -0.2858  0.1760
 4123TIP3    H133860   4.284   4.911   0.445  1.4585 -0.9443  2.9679
 4123TIP3    H233861   4.353   5.042   0.417 -1.6912  0.0332 -1.2020
 4124TIP3   OH233862   1.559   4.602  13.584 -0.6022  0.2216  0.3740
 4124TIP3    H133863   1.480   4.636  13.626 -0.6425 -0.2702  0.7122
 4124TIP3    H233864   1.527   4.551  13.510 -0.7304 -1.4482  1.5304
 4125TIP3   OH233865   2.530   1.872   4.829 -0.1463  0.2803  0.0283
 4125TIP3    H133866   2.563   1.923   4.903 -0.8361  0.6901  0.0609
 4125TIP3    H233867   2.597   1.882   4.761 -1.1358  2.8814 -0.6747
 4126TIP3   OH233868   6.160   2.090  16.582  0.0344  0.1336  0.6770
 4126TIP3    H133869   6.225   2.034  16.541 -0.2126  0.4315 -0.1317
 4126TIP3    H233870   6.193   2.179  16.570 -0.9351  0.3565 -0.5333
 4127TIP3   OH233871   1.284   0.546   0.162  0.0620 -0.5021  0.4860
 4127TIP3    H133872   1.222   0.510   0.226  0.5983  0.9078  1.8819
 4127TIP3    H233873   1.228   0.593   0.100 -0.4379 -1.4383  0.2096
 4128TIP3   OH233874   1.473   2.038   3.481 -0.5401  0.2184  0.2587
 4128TIP3    H133875   1.481   2.020   3.575  0.2535 -1.6495 -0.1276
 4128TIP3    H233876   1.545   1.990   3.441 -2.0787 -0.7365 -1.5046
 4129TIP3   OH233877   5.862   2.076   2.209  0.2254 -0.2889  0.4263
 4129TIP3    H133878   5.821   1.991   2.224 -1.2403  0.6524  2.1475
 4129TIP3    H233879   5.858   2.089   2.114  0.0145 -1.8903  0.1888
 4130TIP3   OH233880   2.920   1.966  15.020 -0.0335 -0.2806  0.3373
 4130TIP3    H133881   2.912   1.878  14.983  2.7387  0.0305 -1.2794
 4130TIP3    H233882   2.970   1.954  15.100  1.4454 -0.1089 -0.5270
 4131TIP3   OH233883   2.424   1.537  12.132  0.0204  0.4056 -0.5228
 4131TIP3    H133884   2.366   1.605  12.099  0.5306  1.3384  0.4326
 4131TIP3    H233885   2.511   1.576  12.129  0.3061 -0.1621  0.1373
 4132TIP3   OH233886   3.474   2.335   6.119  0.5983  0.2206  0.3634
 4132TIP3    H133887   3.517   2.420   6.119 -1.0935  1.2207 -2.5245
 4132TIP3    H233888   3.523   2.283   6.183  2.1328  3.0974  1.6907
 4133TIP3   OH233889   3.394   5.066  15.441 -0.1328  0.0338 -0.0838
 4133TIP3    H133890   3.449   5.119  15.382 -0.7700  0.4152 -0.3496
 4133TIP3    H233891   3.449   4.993  15.466  0.9492  1.0790  0.6804
 4134TIP3   OH233892   3.013   4.484   5.765  0.0823  0.4715 -0.3437
 4134TIP3    H133893   3.085   4.469   5.703 -0.8471 -0.2642 -1.2735
 4134TIP3    H233894   2.935   4.493   5.710 -0.9015 -0.9608  0.7347
 4135TIP3   OH233895   2.403   1.270  15.850 -0.5888 -0.3878 -0.1712
 4135TIP3    H133896   2.492   1.243  15.828  0.3736  1.2010  1.5266
 4135TIP3    H233897   2.347   1.203  15.809  1.2003 -0.2529 -3.1915
 4136TIP3   OH233898   1.264   3.066  12.696  0.0624  0.3919 -0.3892
 4136TIP3    H133899   1.306   3.035  12.777 -2.3573 -0.7316  0.5175
 4136TIP3    H233900   1.327   3.044  12.627  1.2729 -0.5539  0.9549
 4137TIP3   OH233901   2.506   0.759  14.725  0.7478 -0.0134 -0.2032
 4137TIP3    H133902   2.518   0.852  14.744  0.6507 -0.1393  0.5209
 4137TIP3    H233903   2.480   0.721  14.809  1.9651 -0.8984 -0.2008
 4138TIP3   OH233904   6.061   1.846   5.195 -0.1394  0.3989  0.1395
 4138TIP3    H133905   6.080   1.882   5.282 -0.1323  0.6578  0.0332
 4138TIP3    H233906   5.978   1.800   5.205 -0.4217  0.9021  0.1541
 4139TIP3   OH233907   1.744   3.681   1.763 -0.1506 -0.2868 -0.1084
 4139TIP3    H133908   1.810   3.682   1.833 -0.1246  1.4789 -0.1347
 4139TIP3    H233909   1.787   3.723   1.689 -0.5763 -1.1170 -0.8504
 4140TIP3   OH233910   4.487   6.288  13.812 -0.4518 -0.6177  0.0788
 4140TIP3    H133911   4.477   6.383  13.823  0.2313 -0.5746  0.4075
 4140TIP3    H233912   4.493   6.254  13.901 -3.2278 -1.3001  0.0807
 4141TIP3   OH233913   3.564   5.799   1.086  0.0481  0.1218 -0.2954
 4141TIP3    H133914   3.592   5.865   1.023  0.9598 -0.3701 -0.4127
 4141TIP3    H233915   3.583   5.838   1.171  0.1869  0.1944 -0.3589
 4142TIP3   OH233916   2.948   4.467  17.081 -0.3336 -0.6073 -0.1305
 4142TIP3    H133917   2.929   4.491  16.990 -0.0186  2.7877  0.5706
 4142TIP3    H233918   2.965   4.550  17.125  0.0462 -2.1672  2.9600
 4143TIP3   OH233919   4.295   4.725   1.489  0.6469  0.4918  0.6385
 4143TIP3    H133920   4.260   4.740   1.401  2.8693  0.6658 -0.2831
 4143TIP3    H233921   4.219   4.699   1.541 -0.7606  0.5592 -1.2791
 4144TIP3   OH233922   1.183   5.836  15.328 -0.5689  0.4543 -0.4492
 4144TIP3    H133923   1.156   5.816  15.417 -0.6941  0.3724 -0.5032
 4144TIP3    H233924   1.101   5.836  15.278 -0.6418  1.6210 -0.3623
 4145TIP3   OH233925   1.870   1.802   1.400 -0.0074 -0.3530  0.2071
 4145TIP3    H133926   1.789   1.772   1.359 -0.3849 -0.7006  1.1875
 4145TIP3    H233927   1.930   1.728   1.392  0.6171  0.2926 -1.5305
 4146TIP3   OH233928   1.013   5.910  15.896 -0.4100  0.1551  0.0515
 4146TIP3    H133929   0.979   5.830  15.935 -1.1548  1.0501  1.3044
 4146TIP3    H233930   1.106   5.892  15.882  0.2479  0.2178  3.5596
 4147TIP3   OH233931   6.352   4.308   0.157  0.0606 -0.3131 -0.5256
 4147TIP3    H133932   6.425   4.283   0.100  0.5485 -0.0936 -0.0126
 4147TIP3    H233933   6.353   4.241   0.227 -1.6659 -1.6486 -1.7052
 4148TIP3   OH233934   1.628   5.569  13.838  0.2055  0.2516 -0.3841
 4148TIP3    H133935   1.638   5.503  13.770 -0.4589 -1.5021  1.1264
 4148TIP3    H233936   1.536   5.594  13.835  0.4277  1.0831 -0.8722
 4149TIP3   OH233937   6.693   5.792   3.022  0.1442  0.4888  0.3039
 4149TIP3    H133938   6.612   5.758   3.059  0.7322 -0.0500  1.1151
 4149TIP3    H233939   6.669   5.818   2.933 -0.4370 -1.7333 -0.2635
 4150TIP3   OH233940   2.398   1.981  16.077 -0.5663 -0.2712  0.4658
 4150TIP3    H133941   2.392   2.034  15.998 -1.1266 -0.6211  0.2671
 4150TIP3    H233942   2.312   1.989  16.119 -1.1789 -2.1617 -0.3216
 4151TIP3   OH233943   2.082   3.930  15.149 -0.1765 -0.2981  0.1280
 4151TIP3    H133944   2.112   3.965  15.233 -1.9308 -0.3089  0.8065
 4151TIP3    H233945   2.106   3.838  15.150  1.2171  0.0445 -0.0891
 4152TIP3   OH233946   2.857   6.828   5.937  0.6325 -0.3056 -0.2573
 4152TIP3    H133947   2.944   6.797   5.960  0.0539 -2.1448 -0.4318
 4152TIP3    H233948   2.797   6.770   5.983 -0.5308  0.9208 -0.1349
 4153TIP3   OH233949   0.420   2.240  15.400 -0.3875 -0.1545 -0.3401
 4153TIP3    H133950   0.383   2.286  15.325 -0.9963 -1.2205 -0.7046
 4153TIP3    H233951   0.468   2.166  15.362  0.7629  0.2766  0.2266
 4154TIP3   OH233952   6.782   0.543   3.472  0.1703  0.6150  0.9789
 4154TIP3    H133953   6.831   0.544   3.390 -2.0252  0.2102 -0.4229
 4154TIP3    H233954   6.813   0.620   3.520  2.7850 -0.1205  0.6173
 4155TIP3   OH233955   4.954   0.003   2.939 -0.8055  0.0631  0.7251
 4155TIP3    H133956   4.907   0.086   2.931 -2.4169 -0.9658 -1.2591
 4155TIP3    H233957   4.899  -0.061   2.895  0.8431 -1.9247  1.3536
 4156TIP3   OH233958   3.892   5.096   6.213  0.3510  0.3844 -0.6486
 4156TIP3    H133959   3.850   5.015   6.242 -0.2375  0.9252  0.0567
 4156TIP3    H233960   3.976   5.098   6.260 -0.5141  1.1598  0.9447
 4157TIP3   OH233961   0.842   2.027  13.770 -0.2549 -0.0983  0.4584
 4157TIP3    H133962   0.750   2.035  13.747 -0.7947 -0.6386  2.2162
 4157TIP3    H233963   0.844   2.042  13.865  1.8444  2.6231  0.1071
 4158TIP3   OH233964   5.982   3.823  11.683 -0.1704  0.4816 -0.2253
 4158TIP3    H133965   6.049   3.849  11.745 -0.4158  0.5233  0.0231
 4158TIP3    H233966   6.000   3.877  11.605 -0.4865  1.1818  0.1762
 4159TIP3   OH233967   4.193   3.135  14.220  0.2696  0.6312  0.8220
 4159TIP3    H133968   4.240   3.215  14.244  2.2588  0.1022 -0.9975
 4159TIP3    H233969   4.242   3.065  14.261 -1.2136  0.2459  2.0442
 4160TIP3   OH233970   4.988   3.439   1.158 -0.5553 -0.4077  0.1001
 4160TIP3    H133971   5.021   3.525   1.129 -1.0270 -0.0172  0.6984
 4160TIP3    H233972   5.048   3.376   1.119  1.6843  0.3148  2.1296
 4161TIP3   OH233973   0.783   2.108  15.096  0.5247 -0.1467 -0.2114
 4161TIP3    H133974   0.704   2.162  15.100 -0.1061 -0.9446 -1.2867
 4161TIP3    H233975   0.855   2.170  15.094 -0.1202  0.6144 -0.1396
 4162TIP3   OH233976   4.638   3.371   0.350  0.1705  0.1182  0.0028
 4162TIP3    H133977   4.594   3.295   0.388 -0.4144  0.6539  0.4348
 4162TIP3    H233978   4.570   3.415   0.299  0.2406  0.8469  0.5136
 4163TIP3   OH233979   2.635   0.193  14.241  0.0491 -0.0416  0.1363
 4163TIP3    H133980   2.652   0.206  14.148 -0.6136  1.3018  0.1840
 4163TIP3    H233981   2.615   0.280  14.275 -1.4919 -0.7428  1.1607
 4164TIP3   OH233982   1.400   3.057   1.913 -0.7041  0.1036 -0.5431
 4164TIP3    H133983   1.431   2.995   1.846 -1.2681 -0.8178  0.0278
 4164TIP3    H233984   1.470   3.059   1.978  0.2070  1.6032 -1.4917
 4165TIP3   OH233985   6.409   3.253   2.679 -0.3052 -1.0098 -0.4702
 4165TIP3    H133986   6.414   3.288   2.590 -3.0281 -1.4853 -0.8991
 4165TIP3    H233987   6.317   3.265   2.704  0.1459 -1.9290  1.8478
 4166TIP3   OH233988   0.498   1.359  11.753  0.1061 -1.2055 -0.0112
 4166TIP3    H133989   0.454   1.410  11.822  0.8815 -1.1307  0.4427
 4166TIP3    H233990   0.507   1.421  11.680 -1.2387 -1.4570 -0.4036
 4167TIP3   OH233991   3.057   3.523  15.889 -0.0220  0.2175 -0.3856
 4167TIP3    H133992   3.009   3.459  15.836 -2.4422 -0.2379  2.1349
 4167TIP3    H233993   3.004   3.534  15.968  2.7864  1.6824  1.4839
 4168TIP3   OH233994   4.405   2.103  12.534 -0.1879  0.4626  0.0942
 4168TIP3    H133995   4.313   2.124  12.516  0.0630  1.3563 -0.1744
 4168TIP3    H233996   4.411   2.008  12.519 -1.2664  0.2186  0.9809
 4169TIP3   OH233997   6.365   4.938   3.621  0.2194  0.1569 -0.3602
 4169TIP3    H133998   6.368   4.854   3.575 -0.1439  0.5803 -1.1760
 4169TIP3    H233999   6.364   5.003   3.552  1.8193  0.8957  0.2733
 4170TIP3   OH234000   6.768   6.837  11.971 -0.8641 -0.3303 -0.4406
 4170TIP3    H134001   6.859   6.831  12.001 -0.4146 -1.2819 -1.9067
 4170TIP3    H234002   6.775   6.873  11.883 -2.0522  1.0613 -0.0084
 4171TIP3   OH234003   0.087   1.611  14.742  0.1884 -0.4914 -0.4204
 4171TIP3    H134004   0.128   1.665  14.674  1.0201 -0.0704  0.4049
 4171TIP3    H234005   0.138   1.627  14.821 -0.8251 -0.8990  0.3488
 4172TIP3   OH234006   0.707   3.389   3.515 -0.5717  0.2415  0.6215
 4172TIP3    H134007   0.802   3.391   3.524 -0.1705 -0.8416 -2.3149
 4172TIP3    H234008   0.676   3.341   3.592  1.4768 -1.2084  0.6098
 4173TIP3   OH234009   2.741   6.024   0.271 -0.2190  0.0822  0.0470
 4173TIP3    H134010   2.779   5.971   0.201 -3.1986 -0.9265 -0.9913
 4173TIP3    H234011   2.736   5.964   0.346  0.2894  0.2305  0.1985
 4174TIP3   OH234012   6.374   5.404   2.715  0.1669 -0.4302  0.3187
 4174TIP3    H134013   6.452   5.399   2.770 -1.1046  1.3851  2.4770
 4174TIP3    H234014   6.398   5.357   2.636  3.1604 -0.6453  1.2025
 4175TIP3   OH234015   3.152   2.578   2.123 -0.1477  0.4324  0.2079
 4175TIP3    H134016   3.217   2.643   2.100  0.3007  0.5451  1.7102
 4175TIP3    H234017   3.116   2.549   2.039  2.9011 -0.7661 -0.7952
 4176TIP3   OH234018   5.429   1.336  11.770  0.3547 -0.0282  0.0381
 4176TIP3    H134019   5.436   1.421  11.727 -1.5740  0.4364  0.5326
 4176TIP3    H234020   5.456   1.352  11.860  2.4980 -0.5710 -0.4420
 4177TIP3   OH234021   4.457   0.610  12.516 -0.1090  0.0551  0.0271
 4177TIP3    H134022   4.537   0.558  12.512 -0.7289 -0.9792  0.6097
 4177TIP3    H234023   4.461   0.656  12.600  0.0438  0.2834 -0.1053
 4178TIP3   OH234024   1.648   1.304   4.143  0.7409 -1.1433  0.7324
 4178TIP3    H134025   1.742   1.290   4.132  1.0182 -0.1387  1.6332
 4178TIP3    H234026   1.608   1.222   4.113  2.0059 -2.2999  2.0513
 4179TIP3   OH234027   5.231   2.654   2.963  1.1369 -0.1524  0.3464
 4179TIP3    H134028   5.210   2.580   3.020 -1.8948 -0.5975 -1.1374
 4179TIP3    H234029   5.200   2.731   3.011 -1.9508 -0.5760 -0.7346
 4180TIP3   OH234030   3.332   2.789   1.493  0.4263 -1.1079  0.1525
 4180TIP3    H134031   3.341   2.740   1.575  2.1427 -1.8404 -0.4394
 4180TIP3    H234032   3.280   2.731   1.437  1.5968 -1.8541 -0.1979
 4181TIP3   OH234033   0.816   4.547   0.776 -0.1187  0.0624  0.4227
 4181TIP3    H134034   0.852   4.558   0.864  1.1521  0.8041 -0.1610
 4181TIP3    H234035   0.728   4.585   0.781 -0.1208 -0.0598  1.4080
 4182TIP3   OH234036   0.442   0.490  12.051 -0.1172  0.1343 -0.2338
 4182TIP3    H134037   0.441   0.508  11.957  0.1948 -1.1873 -0.5199
 4182TIP3    H234038   0.350   0.485  12.076 -0.2333 -0.9458 -0.7964
 4183TIP3   OH234039   2.078   4.049   0.377 -0.2852 -0.0365 -0.3079
 4183TIP3    H134040   2.037   4.043   0.463  1.7904  0.4463  0.7846
 4183TIP3    H234041   2.050   4.134   0.343 -0.3930  0.1646  0.2760
 4184TIP3   OH234042   3.738   2.259  10.564 -0.2595  0.5225 -1.0671
 4184TIP3    H134043   3.708   2.236  10.477 -0.0386 -0.4575 -0.9009
 4184TIP3    H234044   3.825   2.219  10.571  0.0289  1.1924 -0.6505
 4185TIP3   OH234045   1.419   5.328  15.391  0.0414  0.5804  0.2889
 4185TIP3    H134046   1.470   5.284  15.323  0.0562 -0.4723  0.9510
 4185TIP3    H234047   1.336   5.351  15.348 -0.0818 -0.3719 -0.0055
 4186TIP3   OH234048   0.667   2.912  11.726 -0.5045 -0.0136 -0.1185
 4186TIP3    H134049   0.612   2.988  11.706 -1.3025 -0.7043 -0.5957
 4186TIP3    H234050   0.634   2.881  11.810 -1.5464 -1.0261 -0.8712
 4187TIP3   OH234051   5.212   3.342  13.356  0.0860 -0.4742 -0.3694
 4187TIP3    H134052   5.173   3.269  13.404  0.2018 -0.9932 -1.0615
 4187TIP3    H234053   5.246   3.400  13.424 -0.7321 -0.6552  0.2105
 4188TIP3   OH234054   2.975   2.253  12.092 -0.0936  0.6755  0.0237
 4188TIP3    H134055   3.025   2.314  12.038  1.8615 -0.3328  0.5857
 4188TIP3    H234056   2.935   2.193  12.029 -1.0275  1.7756 -0.4638
 4189TIP3   OH234057   4.223   4.493  14.843 -0.2273  0.1331 -0.3038
 4189TIP3    H134058   4.263   4.412  14.811 -0.4160 -0.3343  0.6044
 4189TIP3    H234059   4.181   4.531  14.766  0.0371 -0.5300 -0.7864
 4190TIP3   OH234060   4.856   4.412   1.210 -0.4519 -0.0732 -0.3812
 4190TIP3    H134061   4.848   4.393   1.117 -0.0456 -1.3496 -0.1764
 4190TIP3    H234062   4.872   4.506   1.214  0.8550 -0.2030 -1.6866
 4191TIP3   OH234063   6.851   6.775  14.990 -0.0405  0.6415 -0.0097
 4191TIP3    H134064   6.759   6.777  14.966  0.5388  1.8455 -2.5448
 4191TIP3    H234065   6.887   6.699  14.945  0.0442 -0.4347  1.8148
 4192TIP3   OH234066   6.400   0.042   4.341 -0.2696  0.3568 -0.5594
 4192TIP3    H134067   6.396  -0.050   4.313  0.8466  0.1929 -0.2232
 4192TIP3    H234068   6.350   0.043   4.422 -0.5938  0.1216 -0.7510
 4193TIP3   OH234069   0.967   6.609   0.832  0.2670  0.3346  0.6790
 4193TIP3    H134070   0.962   6.521   0.871 -3.9741  0.4738  0.9129
 4193TIP3    H234071   0.987   6.593   0.740 -0.3583 -0.8936  0.7309
 4194TIP3   OH234072   2.267   6.080  14.700 -0.4168  0.2296  0.5989
 4194TIP3    H134073   2.262   6.049  14.610 -0.5857  1.5385  0.1400
 4194TIP3    H234074   2.195   6.036  14.745 -0.7000  0.0228 -0.0497
 4195TIP3   OH234075   4.791   6.657  12.111  0.0048 -0.8069 -0.1100
 4195TIP3    H134076   4.760   6.574  12.147  0.0895 -2.3998 -3.3001
 4195TIP3    H234077   4.714   6.712  12.105 -0.4592 -1.4162  0.1890
 4196TIP3   OH234078   0.444   2.027  14.929  0.4068  0.0088  0.3872
 4196TIP3    H134079   0.406   2.093  14.987  0.0460  0.0289  0.1343
 4196TIP3    H234080   0.463   1.953  14.986 -3.7709 -1.6331  0.0043
 4197TIP3   OH234081   6.266   1.777  15.779 -0.5577  0.5219  0.1277
 4197TIP3    H134082   6.354   1.816  15.778  0.1240 -0.9221  0.8315
 4197TIP3    H234083   6.256   1.737  15.693  0.0062 -0.4220  0.4953
 4198TIP3   OH234084   5.542   3.728  14.551 -0.1839 -0.2406 -0.2498
 4198TIP3    H134085   5.596   3.704  14.476  0.0844  0.8310 -0.4143
 4198TIP3    H234086   5.483   3.654  14.563 -0.4557 -0.2792 -1.7144
 4199TIP3   OH234087   1.101   4.055  16.584  0.6985  0.0436 -0.4466
 4199TIP3    H134088   1.071   4.143  16.561  1.3354  0.3403 -0.1806
 4199TIP3    H234089   1.196   4.058  16.568  0.6815 -0.6732 -0.6886
 4200TIP3   OH234090   2.650   2.508  16.869 -0.1870 -0.2354 -0.1825
 4200TIP3    H134091   2.662   2.502  16.774 -0.3312 -1.1565 -0.1497
 4200TIP3    H234092   2.580   2.446  16.888  1.5859 -2.0686  0.8333
 4201TIP3   OH234093   6.850   2.609  15.787 -0.0499  0.0531 -0.4134
 4201TIP3    H134094   6.860   2.681  15.725  0.1726  0.4081  0.0263
 4201TIP3    H234095   6.760   2.617  15.818 -0.6095 -0.9538 -1.6914
 4202TIP3   OH234096   2.888   2.193   3.194 -0.5080  0.4783  0.7199
 4202TIP3    H134097   2.934   2.147   3.265 -1.5836 -0.3226  0.9346
 4202TIP3    H234098   2.873   2.281   3.229  1.6372  1.0866  0.2825
 4203TIP3   OH234099   3.860   3.932  15.178 -0.1305  0.0307 -0.3815
 4203TIP3    H134100   3.883   3.952  15.268 -0.5344 -1.3182  0.0430
 4203TIP3    H234101   3.905   3.999  15.126  1.6799 -0.3170  0.6616
 4204TIP3   OH234102   3.498   2.556   0.580 -0.1109  0.1497  0.7155
 4204TIP3    H134103   3.499   2.472   0.625 -1.6044  0.5376  1.5246
 4204TIP3    H234104   3.581   2.558   0.532 -0.1332 -1.8632  0.5011
 4205TIP3   OH234105   0.808   3.990  14.533  0.3189  0.3076  0.2596
 4205TIP3    H134106   0.721   4.003  14.496 -0.9888 -3.7121  1.3427
 4205TIP3    H234107   0.865   3.981  14.457 -0.9561 -0.7009 -0.6372
 4206TIP3   OH234108   1.885   0.188  11.864  0.2258 -0.2222 -0.2133
 4206TIP3    H134109   1.873   0.141  11.782 -0.2177 -0.2491 -0.1369
 4206TIP3    H234110   1.871   0.280  11.842 -1.1817 -0.3415  0.0630
 4207TIP3   OH234111   1.391   1.179   4.512  0.2041 -0.3999  0.0597
 4207TIP3    H134112   1.310   1.139   4.479  0.5808 -1.5813  0.5354
 4207TIP3    H234113   1.453   1.107   4.515  1.5896  0.6752 -1.2393
 4208TIP3   OH234114   5.224   6.729  15.017 -0.0980 -0.1178 -0.2306
 4208TIP3    H134115   5.293   6.789  14.989 -0.3394 -0.0623 -0.7191
 4208TIP3    H234116   5.194   6.689  14.935 -0.4021 -0.4021  0.0213
 4209TIP3   OH234117   0.375   1.947   1.831 -0.0823  0.0611  0.0685
 4209TIP3    H134118   0.356   2.011   1.900 -0.3411  1.4775 -1.2734
 4209TIP3    H234119   0.426   1.879   1.875 -0.7908  0.5923  1.7987
 4210TIP3   OH234120   2.035   5.348   4.686 -0.3202 -0.0927 -0.7475
 4210TIP3    H134121   2.000   5.264   4.655 -2.5434  0.4832 -0.0399
 4210TIP3    H234122   2.095   5.376   4.618 -0.1662 -1.8656 -1.3957
 4211TIP3   OH234123   2.938   2.641   3.909  0.3648  0.4281  0.1110
 4211TIP3    H134124   2.914   2.559   3.953 -0.1606 -1.1324 -2.8521
 4211TIP3    H234125   3.031   2.631   3.889  0.0098 -0.1092 -1.4204
 4212TIP3   OH234126   5.803   5.657   3.193  0.4895  0.1395 -0.1700
 4212TIP3    H134127   5.779   5.743   3.161  0.3272  0.3645  0.5331
 4212TIP3    H234128   5.745   5.597   3.146  0.7077  0.3948 -0.7715
 4213TIP3   OH234129   2.469   2.286   5.110 -0.3645  0.3042 -0.0685
 4213TIP3    H134130   2.402   2.343   5.147  0.9353  1.9237 -0.1116
 4213TIP3    H234131   2.422   2.233   5.046 -2.4453 -1.6776  2.8069
 4214TIP3   OH234132   1.004   1.774   3.671 -0.0700 -0.4030  0.0506
 4214TIP3    H134133   0.959   1.726   3.741 -0.1494  0.3194  0.5088
 4214TIP3    H234134   0.935   1.826   3.630  0.3710  0.9695  0.9739
 4215TIP3   OH234135   6.358   5.628   0.332 -0.4563  0.3958  0.0179
 4215TIP3    H134136   6.306   5.703   0.302 -0.9026  0.1799  0.2421
 4215TIP3    H234137   6.323   5.553   0.283  0.1263  0.3593 -0.3587
 4216TIP3   OH234138   3.319   5.800  13.187 -0.5188  0.4556  0.2825
 4216TIP3    H134139   3.241   5.852  13.206  0.2803  1.6452  0.4039
 4216TIP3    H234140   3.374   5.810  13.264  0.5283  1.1124 -0.5359
 4217TIP3   OH234141   4.545   2.299   3.172  0.0112 -0.1260  0.2275
 4217TIP3    H134142   4.491   2.352   3.113 -0.1419 -1.6916 -1.1088
 4217TIP3    H234143   4.592   2.363   3.225 -0.6379  1.3336 -0.8927
 4218TIP3   OH234144   3.667   2.732   1.518  0.0489  0.2297 -0.3502
 4218TIP3    H134145   3.665   2.779   1.601  0.5953 -0.4219  0.0433
 4218TIP3    H234146   3.684   2.800   1.452 -0.0226  0.6962  0.1088
 4219TIP3   OH234147   2.662   5.684  15.562 -0.6139  0.1540  0.0317
 4219TIP3    H134148   2.631   5.694  15.652 -1.8483 -0.5166 -0.2999
 4219TIP3    H234149   2.695   5.595  15.558 -1.5047 -0.1713 -0.4338
 4220TIP3   OH234150   5.288   1.976   0.313  0.2017  0.3951  0.2634
 4220TIP3    H134151   5.272   1.908   0.378 -0.7529 -0.0767 -0.4444
 4220TIP3    H234152   5.382   1.973   0.297  1.0756  2.5506  3.7959
 4221TIP3   OH234153   3.220   5.607  11.369 -0.0393 -0.1907  0.3755
 4221TIP3    H134154   3.277   5.684  11.367 -0.3281  0.0740  1.4322
 4221TIP3    H234155   3.164   5.618  11.292  1.3802 -0.5224 -0.7487
 4222TIP3   OH234156   3.145   6.489   4.847  0.1256 -0.4507 -0.2214
 4222TIP3    H134157   3.135   6.558   4.913  0.0445 -0.7259  0.0575
 4222TIP3    H234158   3.159   6.536   4.765  0.1058 -0.1024 -0.0273
 4223TIP3   OH234159   3.473   2.862  14.312  0.5966  0.5338 -0.1831
 4223TIP3    H134160   3.496   2.772  14.286  1.7152  0.0990  2.0584
 4223TIP3    H234161   3.404   2.887  14.251 -0.0977 -2.0347 -0.5917
 4224TIP3   OH234162   6.086   6.204  11.895 -0.4264 -0.2070  0.3278
 4224TIP3    H134163   6.067   6.245  11.979 -0.0637 -1.1094  0.8694
 4224TIP3    H234164   6.180   6.217  11.884 -0.4668 -0.1287  0.0830
 4225TIP3   OH234165   3.560   3.696  12.199 -0.0497 -0.5167  0.1271
 4225TIP3    H134166   3.601   3.782  12.206  0.0024 -0.6043  1.0679
 4225TIP3    H234167   3.468   3.714  12.181 -0.0643 -0.2534  0.4498
 4226TIP3   OH234168   6.146   3.015  15.873  0.1354  0.2083  0.5058
 4226TIP3    H134169   6.221   2.999  15.930 -1.0753 -0.9348  1.8526
 4226TIP3    H234170   6.152   2.948  15.805  1.4077  1.3814 -0.6152
 4227TIP3   OH234171   1.168   0.342   0.690 -0.2920 -0.1291 -0.0156
 4227TIP3    H134172   1.076   0.317   0.683 -0.3526  0.0646  0.1062
 4227TIP3    H234173   1.186   0.390   0.609 -0.0588 -0.9350 -0.4567
 4228TIP3   OH234174   6.273   1.877  16.041 -0.0134  0.2453 -0.3180
 4228TIP3    H134175   6.363   1.849  16.061  0.0627  0.8863  0.2471
 4228TIP3    H234176   6.265   1.863  15.946  1.3785  2.1099 -0.7727
 4229TIP3   OH234177   3.637   4.817  12.006  0.2540 -0.0229  0.2896
 4229TIP3    H134178   3.623   4.888  11.945  0.1952 -0.9361 -0.7922
 4229TIP3    H234179   3.717   4.774  11.975 -1.3210 -2.2586 -0.9552
 4230TIP3   OH234180   3.079   6.127   4.751 -0.0752 -0.1143 -0.3712
 4230TIP3    H134181   3.166   6.097   4.725  0.6138  1.2417  0.2537
 4230TIP3    H234182   3.089   6.153   4.843 -1.6851 -1.9323  0.3843
 4231TIP3   OH234183   5.184   6.826  10.924  0.1811  0.2059  0.7515
 4231TIP3    H134184   5.149   6.738  10.936 -0.7182  0.3217 -0.7759
 4231TIP3    H234185   5.268   6.812  10.880  0.6882  0.0723  1.7270
 4232TIP3   OH234186   5.918   5.180   0.322  0.1345 -0.2123 -0.0598
 4232TIP3    H134187   5.980   5.239   0.365  0.8018  0.1563 -1.4718
 4232TIP3    H234188   5.877   5.132   0.394 -1.2720  2.7273  1.2712
 4233TIP3   OH234189   6.442   6.187  17.029 -0.5446 -0.7905  0.5818
 4233TIP3    H134190   6.532   6.182  16.997 -0.8913  0.0754 -0.5999
 4233TIP3    H234191   6.393   6.124  16.976 -1.1041  0.5723 -0.5822
 4234TIP3   OH234192   5.569   2.402   5.445 -0.1827  0.0059  0.2124
 4234TIP3    H134193   5.565   2.471   5.512  2.6752 -0.2355  0.7579
 4234TIP3    H234194   5.663   2.392   5.427 -0.7774 -0.6080 -3.1794
 4235TIP3   OH234195   2.492   3.001  16.132 -0.4104  0.1597  0.1403
 4235TIP3    H134196   2.561   3.067  16.135 -1.3654  1.1591  1.3326
 4235TIP3    H234197   2.438   3.019  16.209 -1.7430 -0.8698 -0.5017
 4236TIP3   OH234198   1.029   3.458  10.853 -0.1272  0.0695 -0.1291
 4236TIP3    H134199   1.110   3.424  10.815 -0.6086  0.5339 -1.6263
 4236TIP3    H234200   0.959   3.411  10.808 -0.7192  0.3388  0.4828
 4237TIP3   OH234201   2.598   2.142   3.166 -0.0746 -0.2103  0.1962
 4237TIP3    H134202   2.593   2.213   3.102  1.4952 -2.5701 -2.8309
 4237TIP3    H234203   2.692   2.125   3.175 -0.3941 -3.4133 -1.1628
 4238TIP3   OH234204   1.945   1.327  15.332  0.5584  0.0747 -0.4550
 4238TIP3    H134205   1.903   1.261  15.276  1.5517 -0.9857  0.0187
 4238TIP3    H234206   2.034   1.295  15.343  0.5233  0.5176  1.3461
 4239TIP3   OH234207   4.230   2.999  15.089 -0.1360 -0.0096 -0.5235
 4239TIP3    H134208   4.203   2.913  15.120 -0.3610  0.0822 -0.4564
 4239TIP3    H234209   4.159   3.057  15.117  0.6994  0.4556  0.7320
 4240TIP3   OH234210   0.118   0.466  16.338 -0.2517 -0.2076 -0.1561
 4240TIP3    H134211   0.208   0.442  16.356  0.4178  1.4889 -1.0414
 4240TIP3    H234212   0.107   0.448  16.244 -0.9710 -0.7775  0.0260
 4241TIP3   OH234213   4.861   5.723   2.230 -0.2297 -0.0433  0.3121
 4241TIP3    H134214   4.932   5.732   2.294  0.8293  0.6069 -0.9037
 4241TIP3    H234215   4.798   5.790   2.254 -0.2962 -0.4133  1.2205
 4242TIP3   OH234216   4.631   6.718  16.237  0.8858 -0.2494 -0.6677
 4242TIP3    H134217   4.611   6.635  16.194 -1.3782 -0.5788  0.8627
 4242TIP3    H234218   4.573   6.781  16.193 -1.8439 -0.6812  1.9938
 4243TIP3   OH234219   6.706   1.704  15.774 -0.1694  0.3277 -0.5653
 4243TIP3    H134220   6.789   1.661  15.754  0.1576  0.6541  0.0570
 4243TIP3    H234221   6.652   1.689  15.696  0.2549 -0.4128 -0.7276
 4244TIP3   OH234222   2.860   2.030  11.437  0.1047 -0.3748  0.0718
 4244TIP3    H134223   2.776   2.065  11.467  0.5832  1.9255 -1.0739
 4244TIP3    H234224   2.849   2.020  11.342  1.0596 -0.2910 -0.0526
 4245TIP3   OH234225   4.009   5.024   2.998 -0.0501  0.6808  0.1314
 4245TIP3    H134226   3.968   5.000   2.915  0.7725 -1.6704  0.3391
 4245TIP3    H234227   3.935   5.041   3.057 -0.6456  1.7584 -0.8806
 4246TIP3   OH234228   6.110   1.577  13.811 -0.7850 -0.3218  0.2708
 4246TIP3    H134229   6.152   1.629  13.878 -2.0931  0.1566  0.7588
 4246TIP3    H234230   6.154   1.601  13.729 -0.0230  0.0184  0.7761
 4247TIP3   OH234231   3.955   3.407   2.020  0.2305  0.2535 -0.7874
 4247TIP3    H134232   3.903   3.397   2.100 -1.2639  3.2340 -1.2657
 4247TIP3    H234233   4.022   3.472   2.044  2.5039 -1.9112 -0.8360
 4248TIP3   OH234234   2.256   0.269  16.699 -0.3724  0.0410  0.4008
 4248TIP3    H134235   2.269   0.212  16.623  0.9961 -0.5461  1.0442
 4248TIP3    H234236   2.201   0.217  16.758 -2.6626  1.0444 -0.7213
 4249TIP3   OH234237   6.229   4.563  13.007 -0.4902  0.1452  0.3332
 4249TIP3    H134238   6.203   4.484  12.961  0.4470  0.7491 -1.3305
 4249TIP3    H234239   6.201   4.635  12.949  1.4535  0.9044  0.2582
 4250TIP3   OH234240   3.621   1.442  10.686  0.4773  0.8110  0.0518
 4250TIP3    H134241   3.643   1.350  10.703  0.3448  0.8706  0.5701
 4250TIP3    H234242   3.701   1.490  10.707  1.2828  0.6328 -2.3261
 4251TIP3   OH234243   3.278   4.774   2.375 -0.4990  0.0570 -0.2775
 4251TIP3    H134244   3.303   4.849   2.429 -0.2159  1.1949 -1.9122
 4251TIP3    H234245   3.199   4.802   2.330 -0.5477 -0.7337 -0.7086
 4252TIP3   OH234246   2.243   4.106   2.861  0.7060 -0.8721 -0.4222
 4252TIP3    H134247   2.294   4.026   2.874  1.8267  0.2300  2.9339
 4252TIP3    H234248   2.309   4.175   2.850 -0.1829 -0.0020 -0.4261
 4253TIP3   OH234249   5.633   1.742   3.232 -0.0699 -0.4689  0.0597
 4253TIP3    H134250   5.684   1.664   3.212 -0.2203 -0.2600 -1.2834
 4253TIP3    H234251   5.564   1.712   3.291 -0.4076 -1.4782 -0.8118
 4254TIP3   OH234252   4.603   2.705  16.698  0.1059  0.6009 -0.0210
 4254TIP3    H134253   4.541   2.711  16.771 -0.5509  2.8215 -0.6696
 4254TIP3    H234254   4.661   2.780  16.709  0.2959  0.7010 -1.5075
 4255TIP3   OH234255   2.008   1.385   0.838  0.7977 -0.1513  0.5113
 4255TIP3    H134256   2.015   1.420   0.749  1.2822 -1.1845  0.1311
 4255TIP3    H234257   2.038   1.295   0.831 -1.1894 -0.9257  1.3177
 4256TIP3   OH234258   3.145   2.644   5.714  0.0114  0.3944  0.0459
 4256TIP3    H134259   3.193   2.685   5.786  0.9539  2.2231 -1.5505
 4256TIP3    H234260   3.209   2.586   5.672 -0.2607  0.0474  0.1023
 4257TIP3   OH234261   4.878   2.100  16.235 -0.1117  0.6327 -0.0309
 4257TIP3    H134262   4.802   2.052  16.203 -0.0266 -0.8363  1.8079
 4257TIP3    H234263   4.950   2.070  16.180 -0.3724 -0.1210  0.0222
 4258TIP3   OH234264   4.071   2.792   1.173  0.3576 -0.2619  0.2269
 4258TIP3    H134265   4.112   2.864   1.221  0.7934 -0.5318  0.2677
 4258TIP3    H234266   4.109   2.713   1.212  0.3060 -0.4988 -0.1959
 4259TIP3   OH234267   5.617   1.421  16.596 -0.0950  0.1120 -0.2545
 4259TIP3    H134268   5.702   1.410  16.640 -2.0446 -0.1090  3.9511
 4259TIP3    H234269   5.587   1.332  16.579 -0.9270  0.0032  1.5740
 4260TIP3   OH234270   2.624   5.947   4.274  0.0124  0.4859 -0.2170
 4260TIP3    H134271   2.639   6.019   4.212  0.5740 -0.0859 -0.7684
 4260TIP3    H234272   2.609   5.990   4.358  0.1523  1.2514 -0.5749
 4261TIP3   OH234273   1.269   5.996   0.857  0.4171 -0.0811  0.1497
 4261TIP3    H134274   1.218   5.991   0.938  0.1307  1.0508  0.0440
 4261TIP3    H234275   1.279   5.904   0.830 -1.4150 -0.3488  0.2653
 4262TIP3   OH234276   4.711   4.289   0.275 -0.4621 -0.3738 -0.7017
 4262TIP3    H134277   4.671   4.325   0.354  0.6687 -1.5337  0.4578
 4262TIP3    H234278   4.756   4.363   0.235  2.4680 -0.4858  2.0297
 4263TIP3   OH234279   5.076   3.624  14.618 -0.0965  0.1527 -0.1738
 4263TIP3    H134280   5.011   3.689  14.591  0.6494  0.2798 -1.7828
 4263TIP3    H234281   5.125   3.605  14.538 -1.2187 -3.5269 -0.1475
 4264TIP3   OH234282   0.890   0.841  16.338 -0.7343 -0.2128 -0.3765
 4264TIP3    H134283   0.929   0.926  16.357  0.1464 -0.5989 -0.4286
 4264TIP3    H234284   0.961   0.778  16.352 -0.8735 -0.7804 -2.0445
 4265TIP3   OH234285   4.567   2.750  14.239 -0.5143  0.5151 -0.1724
 4265TIP3    H134286   4.628   2.692  14.284  0.2940  0.0810 -1.7595
 4265TIP3    H234287   4.621   2.824  14.210 -1.4221  1.8265  1.3168
 4266TIP3   OH234288   0.644   5.252  15.773 -0.5521  0.0112  0.1291
 4266TIP3    H134289   0.678   5.336  15.745 -0.6875  0.5660  1.5281
 4266TIP3    H234290   0.660   5.193  15.700 -1.5048  1.5075 -1.3445
 4267TIP3   OH234291   2.628   1.429  12.834  0.0019 -0.5532 -0.1595
 4267TIP3    H134292   2.557   1.395  12.889 -0.7205 -1.0204 -1.3529
 4267TIP3    H234293   2.599   1.516  12.808 -0.4279 -0.9591 -1.1079
 4268TIP3   OH234294   3.843   1.243   2.141 -0.1512  0.3151  0.3701
 4268TIP3    H134295   3.847   1.168   2.081 -2.4388  0.5456 -0.1512
 4268TIP3    H234296   3.872   1.208   2.226  1.9464 -0.3079 -0.5427
 4269TIP3   OH234297   4.226   6.471   3.055 -0.2642 -0.2811  0.2471
 4269TIP3    H134298   4.226   6.521   3.137 -2.4187  0.3794 -0.1078
 4269TIP3    H234299   4.138   6.434   3.049 -0.5758  0.6780 -2.3413
 4270TIP3   OH234300   0.629   0.830  16.432  0.4555 -1.0716 -0.3070
 4270TIP3    H134301   0.632   0.926  16.429  0.9815 -1.0286  0.8936
 4270TIP3    H234302   0.714   0.803  16.395  0.1939 -1.0987 -0.9082
 4271TIP3   OH234303   2.231   5.244   4.903  0.4427 -0.4933  0.0777
 4271TIP3    H134304   2.274   5.228   4.819  1.9776  0.1054  0.7297
 4271TIP3    H234305   2.179   5.323   4.888  3.8352  2.0961  0.6844
 4272TIP3   OH234306   1.459   0.211   4.022  0.1221 -0.1124  0.0603
 4272TIP3    H134307   1.409   0.277   3.974  1.2948  1.6139  1.1044
 4272TIP3    H234308   1.480   0.144   3.957 -2.6312 -0.4247 -0.6408
 4273TIP3   OH234309   2.557   2.915   4.286  0.1779  0.0537  0.3314
 4273TIP3    H134310   2.647   2.899   4.256  0.2370  1.1138 -0.1110
 4273TIP3    H234311   2.549   3.011   4.286 -0.8817 -0.0288  0.5812
 4274TIP3   OH234312   0.482   0.750  16.805 -0.1020 -0.8912  0.1472
 4274TIP3    H134313   0.518   0.835  16.781 -1.3393 -0.7448 -1.3588
 4274TIP3    H234314   0.470   0.704  16.722 -2.2198 -1.3705  0.6415
 4275TIP3   OH234315   0.153   6.181   0.888  0.4776  0.3146  0.1031
 4275TIP3    H134316   0.077   6.226   0.852  0.0497  0.6469  1.3754
 4275TIP3    H234317   0.227   6.237   0.866 -0.2353  2.8390  3.3805
 4276TIP3   OH234318   0.017   5.528   3.617  0.4055 -0.5158 -0.4458
 4276TIP3    H134319  -0.024   5.447   3.586  1.3315 -0.7407 -1.1377
 4276TIP3    H234320   0.043   5.509   3.707 -0.4409 -0.5770 -0.2077
 4277TIP3   OH234321   6.496   0.056   1.304 -0.0102 -0.0331  0.0296
 4277TIP3    H134322   6.426   0.030   1.365  1.9222 -3.7672  0.9399
 4277TIP3    H234323   6.483   0.001   1.227  2.0314 -1.0536  0.3464
 4278TIP3   OH234324   2.031   3.460   4.715 -0.0386  0.4806  0.0230
 4278TIP3    H134325   2.061   3.461   4.624 -0.2567  1.4622 -0.0498
 4278TIP3    H234326   2.107   3.428   4.765  0.1734  0.2028 -0.4700
 4279TIP3   OH234327   5.761   3.551  12.914 -0.1440 -0.1936 -0.2186
 4279TIP3    H134328   5.850   3.520  12.931  0.0022  0.5373  0.3801
 4279TIP3    H234329   5.705   3.476  12.937  0.3630 -1.1577 -1.9225
 4280TIP3   OH234330   0.306   5.908  13.630  0.3703 -0.0921  0.2093
 4280TIP3    H134331   0.228   5.885  13.578 -1.2845  2.6741  1.2394
 4280TIP3    H234332   0.370   5.936  13.565 -0.6217  0.5301 -0.5327
 4281TIP3   OH234333   4.168   3.526   2.642  0.1842  0.1247  0.0077
 4281TIP3    H134334   4.186   3.495   2.553  0.1064 -2.4433  0.7964
 4281TIP3    H234335   4.073   3.537   2.644  0.2767  1.1228 -0.4727
 4282TIP3   OH234336   2.224   1.580  14.797 -0.0816 -0.1027 -0.0433
 4282TIP3    H134337   2.278   1.626  14.733  0.6297 -0.3359  0.3661
 4282TIP3    H234338   2.240   1.627  14.879 -0.5859 -0.1133  0.0608
 4283TIP3   OH234339   1.505   3.240   5.416 -0.2060 -0.4038 -0.2186
 4283TIP3    H134340   1.583   3.255   5.363  0.3733  2.0493  1.1392
 4283TIP3    H234341   1.539   3.232   5.506 -1.4942  1.0192  0.4302
 4284TIP3   OH234342   0.715   1.871   5.474 -0.0272 -0.2150  0.2468
 4284TIP3    H134343   0.649   1.808   5.505  1.2598 -0.2622  3.2801
 4284TIP3    H234344   0.678   1.957   5.494  0.5266 -0.2254  1.3953
 4285TIP3   OH234345   1.475   3.241   3.168 -0.7329 -0.9862  0.1349
 4285TIP3    H134346   1.387   3.277   3.158 -0.3885 -0.5098 -1.4320
 4285TIP3    H234347   1.466   3.173   3.235 -2.5940 -1.9958 -1.0605
 4286TIP3   OH234348   6.489   6.245  15.235 -0.2575  0.3051  0.0891
 4286TIP3    H134349   6.483   6.308  15.307  1.1147  0.4708  0.0717
 4286TIP3    H234350   6.578   6.253  15.203 -0.6820 -0.1760 -1.2760
 4287TIP3   OH234351   1.195   3.222  15.878 -0.3284  0.2771 -0.2541
 4287TIP3    H134352   1.132   3.278  15.832 -1.4290 -0.3870  0.4022
 4287TIP3    H234353   1.218   3.155  15.814  0.9306  1.3864 -1.0177
 4288TIP3   OH234354   5.434   6.178   2.611  0.7756 -0.3222 -0.0168
 4288TIP3    H134355   5.395   6.220   2.687  0.1606 -1.0666  0.0871
 4288TIP3    H234356   5.373   6.196   2.539  0.3859 -1.2204  0.0785
 4289TIP3   OH234357   6.162   6.729   2.952  1.1652  0.3986 -0.0539
 4289TIP3    H134358   6.132   6.766   3.035  1.0599  1.1105 -0.4000
 4289TIP3    H234359   6.203   6.802   2.907 -2.0713  1.0981 -2.2420
 4290TIP3   OH234360   5.569   1.114   1.844 -0.2537 -0.0841  0.1958
 4290TIP3    H134361   5.595   1.030   1.881 -2.2315 -0.5412  0.6798
 4290TIP3    H234362   5.515   1.155   1.913 -1.2660  0.5205 -0.9187
 4291TIP3   OH234363   5.780   6.789  11.859 -0.3345 -0.7314 -0.0866
 4291TIP3    H134364   5.859   6.842  11.848  0.2276 -1.5706 -0.2305
 4291TIP3    H234365   5.719   6.845  11.906  0.4682 -0.1784  0.3133
 4292TIP3   OH234366   3.205   3.857  16.251  0.2364  0.2998 -0.5233
 4292TIP3    H134367   3.207   3.797  16.176 -0.2090  0.1443 -0.4169
 4292TIP3    H234368   3.137   3.920  16.228 -0.5892 -0.3116  0.1691
 4293TIP3   OH234369   6.807   0.236  14.743  0.3377  0.2981  0.1347
 4293TIP3    H134370   6.868   0.263  14.674  0.1971 -0.2379 -0.2010
 4293TIP3    H234371   6.863   0.205  14.814  0.4675 -1.1709 -0.5668
 4294TIP3   OH234372   1.726   2.643  15.256 -0.4760  0.1625 -0.1773
 4294TIP3    H134373   1.709   2.555  15.222  0.5371  0.3319 -1.2170
 4294TIP3    H234374   1.654   2.660  15.316  0.0234 -1.9038  1.1140
 4295TIP3   OH234375   1.012   3.200   4.496  0.4727  0.4511  0.4614
 4295TIP3    H134376   0.931   3.225   4.540 -0.7799 -0.8961 -0.9430
 4295TIP3    H234377   0.997   3.222   4.404  1.6876  0.1197  0.1650
 4296TIP3   OH234378   2.592   5.629   0.067  0.2032 -0.4513 -0.2494
 4296TIP3    H134379   2.519   5.679   0.031  0.5357 -0.6798 -1.2985
 4296TIP3    H234380   2.621   5.680   0.143  0.3614  0.8318 -1.1270
 4297TIP3   OH234381   3.478   1.930   1.135  0.1606  0.2663 -0.3006
 4297TIP3    H134382   3.506   1.931   1.226 -1.3989  1.3849  0.2021
 4297TIP3    H234383   3.554   1.961   1.086  2.0469 -3.0816  0.2220
 4298TIP3   OH234384   4.502   4.493  15.383  0.1002 -0.2464 -0.7465
 4298TIP3    H134385   4.567   4.522  15.320  0.3648 -2.7844 -1.7415
 4298TIP3    H234386   4.430   4.556  15.374  1.7733  1.8114 -0.5742
 4299TIP3   OH234387   0.361   3.719   1.801  0.2716  0.1468  0.0362
 4299TIP3    H134388   0.318   3.636   1.779  0.4840 -0.0636  0.4093
 4299TIP3    H234389   0.454   3.698   1.808  0.2178  0.2126  1.0768
 4300TIP3   OH234390   3.448   1.378   2.565 -0.2036 -0.3658  0.6047
 4300TIP3    H134391   3.495   1.457   2.591  0.6054 -0.3349 -0.8557
 4300TIP3    H234392   3.504   1.336   2.499 -1.7581 -0.8211 -0.5057
 4301TIP3   OH234393   5.058   2.501  15.287  0.1880 -0.2578  0.3994
 4301TIP3    H134394   5.084   2.420  15.244  0.6328 -0.0648  0.2981
 4301TIP3    H234395   5.128   2.563  15.266 -0.1041  0.1286  0.5465
 4302TIP3   OH234396   4.671   3.946   1.652 -0.1189  0.9189 -0.2096
 4302TIP3    H134397   4.629   3.861   1.667 -0.1781  1.1713  1.1690
 4302TIP3    H234398   4.764   3.924   1.641 -0.2751  0.5839 -0.9298
 4303TIP3   OH234399   3.202   2.478   5.462 -0.6991  0.1269 -0.5386
 4303TIP3    H134400   3.264   2.408   5.482 -1.8716 -0.4837  1.1817
 4303TIP3    H234401   3.132   2.434   5.412 -0.8905  0.3064 -0.4301
 4304TIP3   OH234402   3.877   6.301   1.590 -0.4182  0.2778  0.1322
 4304TIP3    H134403   3.916   6.341   1.513  0.8072 -1.0920 -0.0001
 4304TIP3    H234404   3.814   6.366   1.622 -0.5054  1.1173 -1.6434
 4305TIP3   OH234405   4.636   5.585   6.205  0.5291 -0.1782  0.4189
 4305TIP3    H134406   4.589   5.547   6.279  0.1085 -2.5217 -0.9529
 4305TIP3    H234407   4.575   5.649   6.168 -0.2590 -0.7941  0.6284
 4306TIP3   OH234408   3.800   0.517   5.528 -0.1619  0.5945 -0.0312
 4306TIP3    H134409   3.821   0.427   5.503  1.0441  0.7713  0.3204
 4306TIP3    H234410   3.862   0.538   5.597 -1.7367  1.0202  1.3272
 4307TIP3   OH234411   2.723   2.582  15.950  0.5349 -0.1377 -0.2602
 4307TIP3    H134412   2.681   2.634  16.019  0.0336 -0.9336  0.0404
 4307TIP3    H234413   2.720   2.492  15.982  1.1480 -0.3983 -0.9030
 4308TIP3   OH234414   6.743   2.352  12.148  0.2148  0.3766  0.3922
 4308TIP3    H134415   6.679   2.390  12.208  1.6384  2.6424  0.6043
 4308TIP3    H234416   6.702   2.360  12.062 -0.3209  0.6058  0.6633
 4309TIP3   OH234417   0.262   3.216   1.166 -0.0009  0.0554 -0.0121
 4309TIP3    H134418   0.224   3.192   1.251 -1.8131 -0.1718 -0.8283
 4309TIP3    H234419   0.355   3.227   1.183  0.0210 -1.9938  1.6018
 4310TIP3   OH234420   3.138   0.504  12.194 -0.1930 -0.1314 -0.4021
 4310TIP3    H134421   3.065   0.489  12.254 -1.4674  1.1565 -1.5417
 4310TIP3    H234422   3.182   0.582  12.229 -1.0699  0.7541 -1.1952
 4311TIP3   OH234423   0.771   0.448  13.761 -0.3058  0.4583 -0.7289
 4311TIP3    H134424   0.741   0.369  13.715 -1.8679  0.4446  0.2528
 4311TIP3    H234425   0.867   0.442  13.758 -0.3846 -0.9500 -1.5384
 4312TIP3   OH234426   6.665   0.950   0.674 -0.0898 -0.1704 -0.4057
 4312TIP3    H134427   6.601   0.985   0.736  1.4825 -0.7067  1.6279
 4312TIP3    H234428   6.619   0.947   0.591 -1.7638  2.2346  0.3368
 4313TIP3   OH234429   0.524   1.858   4.557 -0.1363  0.2543 -0.2567
 4313TIP3    H134430   0.512   1.873   4.650  1.8401 -0.7330  0.2132
 4313TIP3    H234431   0.435   1.856   4.521 -0.9866 -0.3627  1.7678
 4314TIP3   OH234432   6.281   4.655   1.691 -0.2269 -0.0030 -0.3468
 4314TIP3    H134433   6.256   4.615   1.608 -1.7069  0.9930 -0.4288
 4314TIP3    H234434   6.225   4.733   1.698 -1.8471 -1.2561  2.6430
 4315TIP3   OH234435   0.726   4.346  16.416  0.2608  0.6247  0.3563
 4315TIP3    H134436   0.653   4.351  16.355  0.0802  0.6711  0.5753
 4315TIP3    H234437   0.739   4.252  16.430  0.3956  0.6095  0.1380
 4316TIP3   OH234438   4.045   1.042  16.416  0.2761  0.4490  0.4990
 4316TIP3    H134439   3.966   1.050  16.362  1.7963  2.0127 -1.6539
 4316TIP3    H234440   4.054   1.126  16.460  1.1879  0.6045  0.0404
 4317TIP3   OH234441   2.256   0.728   1.166  0.0337  0.6827  0.0217
 4317TIP3    H134442   2.303   0.800   1.210 -2.0462  1.3707  1.2591
 4317TIP3    H234443   2.197   0.772   1.105  0.7664 -0.1594 -1.3421
 4318TIP3   OH234444   2.492   0.962   2.334 -0.0988 -0.4768 -0.0354
 4318TIP3    H134445   2.537   0.970   2.250  1.8753  0.1795  1.0054
 4318TIP3    H234446   2.537   0.889   2.378 -0.6641 -0.3901  0.7030
 4319TIP3   OH234447   4.407   4.458   3.709  0.5472  0.5308  0.3999
 4319TIP3    H134448   4.350   4.458   3.787 -0.4316 -1.5775 -0.2291
 4319TIP3    H234449   4.416   4.365   3.687 -1.3520  1.0834 -3.5027
 4320TIP3   OH234450   4.045   5.346   0.225 -0.1633 -0.3618 -0.1377
 4320TIP3    H134451   4.122   5.324   0.278 -0.7592  1.6995  1.7424
 4320TIP3    H234452   4.055   5.440   0.208 -1.7254 -0.2991 -0.8199
 4321TIP3   OH234453   0.008   6.816  13.577  0.4079 -0.3938 -0.1656
 4321TIP3    H134454  -0.055   6.744  13.586  0.4068 -0.4135 -0.3259
 4321TIP3    H234455   0.090   6.781  13.610  1.1028 -1.3926 -2.6797
 4322TIP3   OH234456   3.524   6.249   1.636  0.1099 -0.4772 -0.2559
 4322TIP3    H134457   3.571   6.333   1.635  0.8484 -0.8568  0.8178
 4322TIP3    H234458   3.495   6.240   1.727 -0.4547 -1.1250 -0.4989
 4323TIP3   OH234459   3.442   4.723   4.510  0.1384 -0.0186  0.5526
 4323TIP3    H134460   3.480   4.671   4.581 -1.4979 -2.6910 -0.3702
 4323TIP3    H234461   3.514   4.777   4.478  1.8047 -1.2687  2.0104
 4324TIP3   OH234462   5.184   4.793  15.090  0.1142 -0.3969  0.6115
 4324TIP3    H134463   5.183   4.698  15.102 -0.4137 -0.6783 -1.3092
 4324TIP3    H234464   5.102   4.813  15.046  1.3415  0.5433 -1.4218
 4325TIP3   OH234465   4.643   3.768  14.976 -0.3404 -0.0021 -0.4022
 4325TIP3    H134466   4.575   3.730  15.031 -0.9451  0.9870 -0.4324
 4325TIP3    H234467   4.600   3.842  14.932  1.2485  1.9621  1.1425
 4326TIP3   OH234468   1.214   1.050  12.323 -0.5738 -0.0670 -0.1783
 4326TIP3    H134469   1.236   1.133  12.281  0.9799  0.0935  0.8665
 4326TIP3    H234470   1.127   1.028  12.289 -0.2830  1.1025 -1.7933
 4327TIP3   OH234471   2.124   6.649  15.839 -0.1395  0.1361  0.2800
 4327TIP3    H134472   2.042   6.616  15.875  0.0446  1.3070  1.8766
 4327TIP3    H234473   2.097   6.714  15.774 -0.5452  1.4559  1.7012
 4328TIP3   OH234474   0.696   6.757  16.137  0.9562  0.4044  0.0064
 4328TIP3    H134475   0.711   6.851  16.138  1.1042  0.3854 -0.3503
 4328TIP3    H234476   0.775   6.720  16.098 -0.0723  0.3283 -2.1693
 4329TIP3   OH234477   3.443   1.864   2.134 -0.1146 -0.3386  0.1202
 4329TIP3    H134478   3.384   1.789   2.126 -0.4291 -0.0981  0.1270
 4329TIP3    H234479   3.405   1.930   2.075 -0.6987  0.3454  1.2178
 4330TIP3   OH234480   5.785   3.893  10.258 -0.2238 -0.5305 -0.4831
 4330TIP3    H134481   5.732   3.821  10.225  2.2647 -1.7340 -2.1509
 4330TIP3    H234482   5.871   3.854  10.275  0.6078  1.6093  0.6608
 4331TIP3   OH234483   5.177   4.743  14.034 -0.2692 -0.9536  0.0909
 4331TIP3    H134484   5.245   4.772  14.096  0.9672 -2.3780 -0.5420
 4331TIP3    H234485   5.186   4.803  13.960  0.2303 -1.0753  0.0509
 4332TIP3   OH234486   3.244   4.713  17.094 -0.1398  0.1677 -0.5023
 4332TIP3    H134487   3.258   4.763  17.174  0.7783 -1.2855  0.2894
 4332TIP3    H234488   3.235   4.779  17.025  0.6596  1.4106  0.5555
 4333TIP3   OH234489   4.562   6.726   1.388 -0.1337 -0.5958 -0.0929
 4333TIP3    H134490   4.649   6.687   1.384 -0.4758 -1.3074 -1.9856
 4333TIP3    H234491   4.572   6.803   1.445  2.1972  0.4424 -1.7260
 4334TIP3   OH234492   5.906   5.649  14.921 -0.4651 -0.4759  0.4184
 4334TIP3    H134493   5.844   5.714  14.954 -0.5300 -0.2639 -0.1194
 4334TIP3    H234494   5.939   5.606  15.000 -0.1184  0.4761  0.8090
 4335TIP3   OH234495   4.597   0.352  11.159 -0.5639 -0.4992  0.0079
 4335TIP3    H134496   4.621   0.377  11.070  1.2563  0.8622  0.8191
 4335TIP3    H234497   4.505   0.375  11.167 -0.4710  0.3517 -1.1996
 4336TIP3   OH234498   5.602   6.153   6.300 -0.5351 -0.2936 -0.1304
 4336TIP3    H134499   5.657   6.084   6.338  0.9142  0.7025 -0.3582
 4336TIP3    H234500   5.525   6.155   6.356  1.4927  1.1005  2.8665
 4337TIP3   OH234501   0.027   3.244   6.042 -0.6699  0.1132 -0.6803
 4337TIP3    H134502   0.069   3.215   6.123  1.4788  1.8316 -1.0776
 4337TIP3    H234503   0.013   3.338   6.054 -1.7961  0.1086 -1.7147
 4338TIP3   OH234504   5.518   4.621   0.706 -0.4623 -0.0231  0.0282
 4338TIP3    H134505   5.467   4.586   0.779 -0.7550  0.2584 -0.0419
 4338TIP3    H234506   5.607   4.631   0.741 -0.0221 -2.1025 -0.3184
 4339TIP3   OH234507   5.757   5.302   5.078  0.0399 -0.4970 -0.4369
 4339TIP3    H134508   5.802   5.326   4.997 -1.0184  0.1214 -0.8720
 4339TIP3    H234509   5.823   5.312   5.146  0.5894  0.2813 -1.0571
 4340TIP3   OH234510   2.285   2.611  13.166 -0.4813 -0.2478  0.0253
 4340TIP3    H134511   2.264   2.642  13.254  2.3021 -0.1944  0.7852
 4340TIP3    H234512   2.288   2.516  13.174 -0.6431 -0.2641 -0.1134
 4341TIP3   OH234513   5.648   2.512   2.981  0.0898 -0.6030  0.2621
 4341TIP3    H134514   5.622   2.586   2.926  2.0478  0.8075  1.1077
 4341TIP3    H234515   5.567   2.482   3.021 -0.7944  0.9394 -0.2895
 4342TIP3   OH234516   2.567   5.659  13.332  0.0262 -0.0680 -0.0095
 4342TIP3    H134517   2.588   5.710  13.410 -0.4194 -0.3867  0.3282
 4342TIP3    H234518   2.578   5.568  13.359 -0.8934 -0.2141 -0.0686
 4343TIP3   OH234519   2.219   2.838   3.213 -0.2319  0.3121  0.2359
 4343TIP3    H134520   2.257   2.760   3.254 -1.5409 -1.1481 -1.1643
 4343TIP3    H234521   2.130   2.843   3.248 -0.4171  0.7197 -0.2788
 4344TIP3   OH234522   0.883   1.261   3.108  0.0741  0.0113  0.0828
 4344TIP3    H134523   0.810   1.268   3.047  1.3743  2.5910 -1.3235
 4344TIP3    H234524   0.926   1.346   3.105  2.3583 -0.9549  1.8950
 4345TIP3   OH234525   0.137   5.135  14.043  0.4334  0.4594 -0.4530
 4345TIP3    H134526   0.177   5.048  14.045  1.2325  0.8266  0.0152
 4345TIP3    H234527   0.192   5.188  14.101 -0.8168  0.9475  0.3352
 4346TIP3   OH234528   6.410   3.887   1.560  0.0108 -0.4602 -0.3234
 4346TIP3    H134529   6.387   3.940   1.636  0.9275 -1.4003  0.6407
 4346TIP3    H234530   6.377   3.937   1.485 -1.5364  0.1553  0.7122
 4347TIP3   OH234531   2.726   6.016  17.076  0.4600  0.8098 -0.5574
 4347TIP3    H134532   2.677   5.953  17.128  2.6654 -0.5513  0.0106
 4347TIP3    H234533   2.683   6.015  16.990 -0.9290  0.2666  0.1198
 4348TIP3   OH234534   6.177   5.961   2.890  0.6086 -0.1469 -0.3662
 4348TIP3    H134535   6.178   5.881   2.941 -1.1478 -0.3198 -0.5334
 4348TIP3    H234536   6.109   5.947   2.824  0.1328  1.5362 -0.2849
 4349TIP3   OH234537   2.186   3.467   6.071  0.2209  0.2665  1.0195
 4349TIP3    H134538   2.218   3.487   6.160  0.5020 -1.5798  1.3716
 4349TIP3    H234539   2.177   3.372   6.070 -1.0397  0.3741 -0.5335
 4350TIP3   OH234540   1.354   4.284   3.128  0.0865  0.4455  0.4366
 4350TIP3    H134541   1.329   4.375   3.142 -3.0057 -0.6145  2.7386
 4350TIP3    H234542   1.385   4.254   3.213 -1.7647 -1.3982  0.5168
 4351TIP3   OH234543   5.826   0.522  14.748  0.0086  0.1726 -0.6967
 4351TIP3    H134544   5.909   0.477  14.732 -0.0841  0.2920 -1.5441
 4351TIP3    H234545   5.843   0.613  14.723  0.3555  0.7842  1.4892
 4352TIP3   OH234546   5.092   4.658   0.154  0.2574 -0.2060 -0.1947
 4352TIP3    H134547   5.096   4.632   0.062  1.5986 -0.7158 -0.0234
 4352TIP3    H234548   5.111   4.578   0.203  0.1871  0.1875  0.4974
 4353TIP3   OH234549   3.186   4.233   4.626 -0.7908 -0.4475 -0.3246
 4353TIP3    H134550   3.222   4.145   4.612  1.9284  0.4481  0.3832
 4353TIP3    H234551   3.221   4.285   4.553 -0.8736  0.4098  0.2310
 4354TIP3   OH234552   2.363   5.124  11.344 -0.0683 -0.5957  0.0561
 4354TIP3    H134553   2.318   5.200  11.307 -0.0112 -1.4244 -1.7819
 4354TIP3    H234554   2.301   5.052  11.333 -0.3302 -0.7913  2.2449
 4355TIP3   OH234555   3.360   5.955   1.787 -0.0253 -0.1143  0.3092
 4355TIP3    H134556   3.334   5.989   1.872 -0.4754  0.7217 -0.1398
 4355TIP3    H234557   3.454   5.940   1.795 -0.0436  0.0709  0.9188
 4356TIP3   OH234558   5.132   1.074   5.404 -0.0633  0.5021 -0.2735
 4356TIP3    H134559   5.158   0.987   5.375 -2.2156  0.4171 -2.2361
 4356TIP3    H234560   5.163   1.133   5.334 -0.3794  1.0351  0.0237
 4357TIP3   OH234561   1.459   4.575  11.912  0.4364 -0.1369 -0.3121
 4357TIP3    H134562   1.532   4.535  11.864 -1.3488 -1.2944 -2.2376
 4357TIP3    H234563   1.386   4.514  11.899 -0.9965  1.1919  1.1622
 4358TIP3   OH234564   5.301   0.892  11.723  0.8275 -0.1681  0.3319
 4358TIP3    H134565   5.367   0.866  11.786  1.3776  1.8764  0.6501
 4358TIP3    H234566   5.336   0.970  11.681 -2.6767  3.1770  2.8928
 4359TIP3   OH234567   0.877   2.368   2.944 -0.1529  0.7924 -0.0194
 4359TIP3    H134568   0.854   2.445   2.997  0.9798  1.9986 -1.1987
 4359TIP3    H234569   0.860   2.294   3.001 -1.7295  1.8901  1.0050
 4360TIP3   OH234570   6.494   1.906  12.524 -0.4991  0.0200  0.2470
 4360TIP3    H134571   6.525   1.878  12.610 -0.5609 -0.8611 -0.0039
 4360TIP3    H234572   6.400   1.921  12.536 -0.6416 -0.7464  0.1970
 4361TIP3   OH234573   2.988   0.094   2.006  0.4405  0.3882 -0.0048
 4361TIP3    H134574   3.059   0.144   1.967 -0.3123  1.4553 -0.0618
 4361TIP3    H234575   3.017   0.077   2.096  0.7543  0.8607 -0.0106
 4362TIP3   OH234576   0.880   5.936  11.079 -0.1341 -0.4189  0.0001
 4362TIP3    H134577   0.840   5.991  11.147 -2.8229 -1.3580 -0.6789
 4362TIP3    H234578   0.849   5.974  10.996  0.8420 -0.9238 -0.6156
 4363TIP3   OH234579   5.253   5.312   5.242  0.3623 -0.2690  0.4040
 4363TIP3    H134580   5.210   5.296   5.158  1.0290  0.6134 -0.1234
 4363TIP3    H234581   5.190   5.363   5.292  1.2783  2.4138 -0.9513
 4364TIP3   OH234582   2.263   4.344  13.022  0.1388  0.3170  0.0808
 4364TIP3    H134583   2.325   4.321  13.091  0.0098  0.3127  0.1949
 4364TIP3    H234584   2.319   4.373  12.949  0.2502  1.2578  0.5264
 4365TIP3   OH234585   1.919   5.895  12.227  0.8011 -0.2977 -0.5819
 4365TIP3    H134586   1.963   5.845  12.159  0.0629 -1.5186 -0.1830
 4365TIP3    H234587   1.967   5.877  12.307  1.5305  0.9619 -0.6998
 4366TIP3   OH234588   0.386   2.464   3.416  0.2800  0.0086  0.2516
 4366TIP3    H134589   0.320   2.531   3.398  0.8124  0.8408  1.2924
 4366TIP3    H234590   0.380   2.449   3.510 -1.5754 -3.3086 -0.2273
 4367TIP3   OH234591   1.462   3.546   4.461 -0.3503 -0.0959 -0.5687
 4367TIP3    H134592   1.420   3.461   4.446  2.4457 -1.9350  1.1288
 4367TIP3    H234593   1.410   3.587   4.531 -0.1613 -1.7109  0.5632
 4368TIP3   OH234594   4.330   0.526  10.422  0.3003 -0.3060 -0.0651
 4368TIP3    H134595   4.251   0.551  10.472  0.3858  0.9393 -0.5119
 4368TIP3    H234596   4.316   0.434  10.400 -0.5821 -0.3725  0.6870
 4369TIP3   OH234597   2.272   6.477  14.489 -0.0666 -0.1929 -0.6987
 4369TIP3    H134598   2.321   6.396  14.477 -0.3678 -0.4690 -0.1119
 4369TIP3    H234599   2.263   6.486  14.584  0.3045  0.7363 -0.7424
 4370TIP3   OH234600   0.165   3.220   2.973  0.2569  0.6437  0.1625
 4370TIP3    H134601   0.184   3.224   2.879 -1.4523  0.1201 -0.2413
 4370TIP3    H234602   0.189   3.131   2.999 -3.0200 -0.6444 -0.7447
 4371TIP3   OH234603   0.835   2.464  10.763  0.4713 -0.3275 -0.0664
 4371TIP3    H134604   0.891   2.440  10.837 -0.4141 -0.6773  0.5026
 4371TIP3    H234605   0.751   2.425  10.783  0.2930 -0.6725 -1.4175
 4372TIP3   OH234606   4.387   2.294  16.645  0.7399 -0.2097 -0.6254
 4372TIP3    H134607   4.458   2.236  16.617  0.4599 -0.7370 -0.2641
 4372TIP3    H234608   4.431   2.376  16.669  1.0289  0.0929 -2.1215
 4373TIP3   OH234609   4.136   5.672  14.007  0.3668  0.2853  0.1896
 4373TIP3    H134610   4.143   5.767  14.016  0.7565  0.3319 -0.5113
 4373TIP3    H234611   4.226   5.642  14.000  0.2282 -0.0945  0.0258
 4374TIP3   OH234612   4.444   0.797   0.251 -0.1425 -0.3564 -0.2583
 4374TIP3    H134613   4.527   0.749   0.261  0.4430  0.5220 -0.7298
 4374TIP3    H234614   4.388   0.737   0.201  0.4579 -0.6956 -0.5451
 4375TIP3   OH234615   4.612   2.898   1.286  0.5691  0.1007  0.3910
 4375TIP3    H134616   4.677   2.831   1.303 -0.2216 -1.4213 -2.0713
 4375TIP3    H234617   4.658   2.981   1.299  2.0677 -0.8985  1.7479
 4376TIP3   OH234618   5.741   3.950  15.818  0.3716  0.1890  0.6064
 4376TIP3    H134619   5.716   3.995  15.738 -0.6838 -0.8156  0.3515
 4376TIP3    H234620   5.659   3.941  15.867  0.3001 -2.4893  0.1045
 4377TIP3   OH234621   6.289   3.293   4.511  0.3762 -0.3735  0.0370
 4377TIP3    H134622   6.250   3.232   4.574 -1.5586  1.2729  0.5411
 4377TIP3    H234623   6.281   3.249   4.426 -0.0805 -1.2203  0.5046
 4378TIP3   OH234624   5.191   2.712  16.212 -0.0996  0.1913 -0.2516
 4378TIP3    H134625   5.121   2.646  16.207  1.3216 -1.2890 -1.8034
 4378TIP3    H234626   5.163   2.771  16.283 -1.6258 -1.8402  0.9570
 4379TIP3   OH234627   0.011   0.125   0.463  0.5751  0.3567  0.3367
 4379TIP3    H134628  -0.048   0.063   0.420 -0.4655  0.7740  1.1380
 4379TIP3    H234629   0.099   0.096   0.437  0.0812 -0.9738  0.0703
 4380TIP3   OH234630   1.566   4.565   4.256  0.1605 -0.0135 -0.0769
 4380TIP3    H134631   1.507   4.490   4.258  0.5854 -0.4307 -1.7304
 4380TIP3    H234632   1.646   4.533   4.298 -0.5506  0.3773  1.6468
 4381TIP3   OH234633   4.161   6.566  14.103 -0.5661 -0.3482 -0.0945
 4381TIP3    H134634   4.196   6.552  14.015  2.1561 -2.1493  1.1517
 4381TIP3    H234635   4.119   6.483  14.125 -2.1414  0.4329  0.0022
 4382TIP3   OH234636   2.724   1.990  14.452 -0.0028  0.1270 -0.4210
 4382TIP3    H134637   2.696   1.899  14.458 -0.4294  0.2545 -0.4494
 4382TIP3    H234638   2.778   2.004  14.530  0.6217 -0.3378 -0.7667
 4383TIP3   OH234639   1.076   4.144   6.021  0.1847 -0.8560 -0.0573
 4383TIP3    H134640   1.050   4.217   5.964 -2.2223 -2.5216 -1.3086
 4383TIP3    H234641   1.033   4.162   6.104 -0.4832 -0.8591 -0.3909
 4384TIP3   OH234642   5.373   6.346  14.126 -0.0090 -0.4826 -0.1720
 4384TIP3    H134643   5.337   6.432  14.145 -0.8925 -1.3024  2.2666
 4384TIP3    H234644   5.412   6.354  14.039 -1.0316  2.0411 -0.4599
 4385TIP3   OH234645   1.489   0.938   2.351  0.1593  0.3052 -0.2748
 4385TIP3    H134646   1.441   0.910   2.429 -1.2870 -0.8965 -1.5340
 4385TIP3    H234647   1.486   0.863   2.292  2.3788  0.7037 -1.0134
 4386TIP3   OH234648   6.438   5.700  12.375 -0.0717  0.1085 -0.0308
 4386TIP3    H134649   6.516   5.673  12.424 -0.3095  0.2223  0.4152
 4386TIP3    H234650   6.414   5.784  12.414  0.1165  0.5224 -0.7795
 4387TIP3   OH234651   2.035   5.443   1.596 -0.7391  0.0580 -0.6415
 4387TIP3    H134652   2.010   5.471   1.684 -2.0949  0.7166 -1.2111
 4387TIP3    H234653   2.104   5.378   1.610 -0.4353  0.6708  0.8723
 4388TIP3   OH234654   2.342   5.902  13.584 -0.1644  0.1662  0.0989
 4388TIP3    H134655   2.427   5.858  13.597 -0.0554  0.4565  0.3829
 4388TIP3    H234656   2.287   5.869  13.655  0.4220  1.7307  1.3288
 4389TIP3   OH234657   4.937   0.100   4.473 -0.1184 -0.5383  0.2809
 4389TIP3    H134658   5.012   0.041   4.479 -1.7506 -2.8255 -0.4161
 4389TIP3    H234659   4.932   0.141   4.559  1.6231 -0.7083  0.4952
 4390TIP3   OH234660   1.907   2.151  11.325  0.1448  0.4754 -0.1273
 4390TIP3    H134661   1.955   2.176  11.246  0.5976  3.2698  0.9102
 4390TIP3    H234662   1.843   2.087  11.295  0.9106  0.7558 -2.5831
 4391TIP3   OH234663   6.409   6.832  13.592 -0.2020 -0.5923 -0.4398
 4391TIP3    H134664   6.470   6.774  13.638 -0.2220  0.0822  0.4772
 4391TIP3    H234665   6.327   6.784  13.590 -0.3704 -0.4058  0.8115
 4392TIP3   OH234666   3.988   1.716   0.613 -0.0183  0.7257  0.7737
 4392TIP3    H134667   4.077   1.749   0.626  0.7168 -0.4090 -1.0930
 4392TIP3    H234668   3.958   1.758   0.532 -1.0152  0.7143  1.1183
 4393TIP3   OH234669   5.946   0.700   0.363 -0.5195 -0.4195 -0.3891
 4393TIP3    H134670   5.952   0.789   0.329  0.2846 -0.5923 -0.7194
 4393TIP3    H234671   5.930   0.711   0.457 -0.9171  0.0649 -0.5131
 4394TIP3   OH234672   1.384   0.973  16.655  0.3656  0.1668 -0.5506
 4394TIP3    H134673   1.398   1.050  16.599  0.2139  0.1919 -0.5573
 4394TIP3    H234674   1.429   0.994  16.737 -1.8321  1.4101  0.4346
 4395TIP3   OH234675   5.145   4.827   6.794  0.5672 -0.7966  0.0964
 4395TIP3    H134676   5.188   4.742   6.783  2.2674  0.0182  0.1348
 4395TIP3    H234677   5.054   4.811   6.766  0.6981 -2.7296  0.5838
 4396TIP3   OH234678   0.522   5.791  12.153  0.2184  0.1909 -0.2213
 4396TIP3    H134679   0.474   5.772  12.234 -0.2340 -0.5309 -0.6437
 4396TIP3    H234680   0.560   5.878  12.167  2.5680 -1.0624  1.8955
 4397TIP3   OH234681   4.258   2.080  12.022 -0.1161  0.3816 -0.4240
 4397TIP3    H134682   4.200   2.015  12.062  1.0369 -0.6726 -0.4290
 4397TIP3    H234683   4.288   2.134  12.095  0.7421 -0.5517 -0.0725
 4398TIP3   OH234684   0.627   1.321  15.456  0.4995 -0.2298  0.5525
 4398TIP3    H134685   0.698   1.278  15.408  0.1846 -0.1425 -0.0102
 4398TIP3    H234686   0.556   1.256  15.459  0.4965 -0.2145  0.8534
 4399TIP3   OH234687   0.198   4.852  14.066 -0.5664  0.2789  0.2591
 4399TIP3    H134688   0.197   4.760  14.036 -1.4150 -0.0834  1.3514
 4399TIP3    H234689   0.289   4.868  14.090 -0.2520 -0.0222 -0.6619
 4400TIP3   OH234690   1.469   2.576   4.092  0.1712  0.0546  0.8252
 4400TIP3    H134691   1.465   2.481   4.103 -1.6052  0.2641  2.5252
 4400TIP3    H234692   1.551   2.602   4.133  0.0807 -0.6294  1.4635
 4401TIP3   OH234693   3.889   6.264   4.525 -0.6021 -0.2772 -0.6337
 4401TIP3    H134694   3.909   6.265   4.431 -0.2671  0.3142 -0.5579
 4401TIP3    H234695   3.793   6.255   4.529 -0.5473 -1.1362 -1.0168
 4402TIP3   OH234696   4.980   6.557  16.622 -0.2462  0.1932 -0.1318
 4402TIP3    H134697   4.898   6.572  16.669  0.4482  0.3435  1.0713
 4402TIP3    H234698   5.040   6.623  16.657  0.4648 -0.0615 -0.8297
 4403TIP3   OH234699   3.675   6.165  16.740  0.3147 -0.3715  0.6297
 4403TIP3    H134700   3.611   6.235  16.741  1.6003  0.8685 -0.2199
 4403TIP3    H234701   3.669   6.125  16.826  1.5027  2.6357  2.2469
 4404TIP3   OH234702   5.015   4.670   0.899  0.4893 -0.8259 -0.3160
 4404TIP3    H134703   5.067   4.743   0.865 -1.5527  1.9450  2.0439
 4404TIP3    H234704   5.063   4.642   0.977 -0.8284  1.0241  1.2538
 4405TIP3   OH234705   4.435   1.165  11.490 -0.2343 -0.1070 -0.8568
 4405TIP3    H134706   4.402   1.087  11.446 -0.1311  0.6669 -2.3563
 4405TIP3    H234707   4.469   1.133  11.574 -2.8530 -1.2185 -0.1444
 4406TIP3   OH234708   0.134   0.883   4.328 -0.0874  0.1099 -0.2822
 4406TIP3    H134709   0.151   0.790   4.316  1.4641  0.2295  0.6941
 4406TIP3    H234710   0.050   0.898   4.285 -0.4151 -1.7473 -0.3708
 4407TIP3   OH234711   1.396   1.008  15.910 -0.2058  0.0181 -0.5256
 4407TIP3    H134712   1.337   0.938  15.937 -0.2365  0.5771  0.9983
 4407TIP3    H234713   1.470   0.964  15.869 -0.5966 -0.8494 -0.3113
 4408TIP3   OH234714   3.373   1.924  16.052 -0.4576  0.6526 -0.6316
 4408TIP3    H134715   3.411   1.959  15.971  1.8744 -0.9186 -0.3141
 4408TIP3    H234716   3.390   1.992  16.117  1.2981  0.2887 -0.6606
 4409TIP3   OH234717   1.720   5.949  10.276 -0.0759 -0.1683  0.1849
 4409TIP3    H134718   1.691   5.971  10.365  0.8299 -2.0381  0.9962
 4409TIP3    H234719   1.638   5.941  10.227 -0.6126  0.5553  0.9174
 4410TIP3   OH234720   5.379   3.045   1.377 -0.5789  0.1406  0.3539
 4410TIP3    H134721   5.424   3.038   1.462 -1.2133  1.0302  0.7788
 4410TIP3    H234722   5.450   3.039   1.313  0.0355  0.4702  0.9792
 4411TIP3   OH234723   3.013   4.958  13.433 -0.0322  0.4154 -0.0420
 4411TIP3    H134724   2.969   4.876  13.408 -1.6878  0.3663  2.5912
 4411TIP3    H234725   2.941   5.020  13.445  0.9328  1.3584  1.0248
 4412TIP3   OH234726   5.036   5.424   3.033 -0.3921 -0.7616  0.0753
 4412TIP3    H134727   5.122   5.463   3.042 -0.7708  0.1849 -0.2137
 4412TIP3    H234728   4.995   5.473   2.961 -0.9018 -1.6749 -0.2769
 4413TIP3   OH234729   3.005   0.390   1.446 -0.1677  0.1132  0.6404
 4413TIP3    H134730   3.073   0.342   1.492  0.2211 -0.6306 -0.6479
 4413TIP3    H234731   3.051   0.463   1.405 -0.2534 -0.0063  0.3251
 4414TIP3   OH234732   1.832   3.227   3.675  0.3405  0.7645  0.1109
 4414TIP3    H134733   1.856   3.147   3.723 -1.7029  0.8540  1.4241
 4414TIP3    H234734   1.897   3.291   3.702  0.4126  0.2556  1.2034
 4415TIP3   OH234735   6.098   4.355  10.420 -0.3540 -0.3751 -0.1726
 4415TIP3    H134736   6.080   4.267  10.388 -0.7499 -0.2368 -0.3457
 4415TIP3    H234737   6.088   4.411  10.343  0.7882 -0.2754 -0.2624
 4416TIP3   OH234738   0.999   3.173   4.210 -0.3532  0.0451 -0.9129
 4416TIP3    H134739   0.921   3.159   4.157 -1.1163  0.2405  0.1265
 4416TIP3    H234740   1.018   3.266   4.202 -0.3393  0.0342 -1.0092
 4417TIP3   OH234741   3.918   2.598   3.078  0.1088 -0.1713  0.0855
 4417TIP3    H134742   3.880   2.636   2.999  1.6395 -1.5379 -1.3860
 4417TIP3    H234743   3.848   2.603   3.143 -1.9296 -0.8278 -1.9315
 4418TIP3   OH234744   1.159   1.319   4.547  0.3009  1.1771 -0.2204
 4418TIP3    H134745   1.153   1.381   4.475 -1.1899  0.1134 -1.0800
 4418TIP3    H234746   1.253   1.306   4.560  0.6415  3.4676 -0.0969
 4419TIP3   OH234747   0.086   2.398   4.041 -0.5933  0.5209 -0.1887
 4419TIP3    H134748   0.025   2.343   4.090  0.4652  0.7776  1.4862
 4419TIP3    H234749   0.172   2.362   4.060 -0.0006  1.8146 -0.3057
 4420TIP3   OH234750   3.450   3.496   3.997  0.5725 -0.1540 -0.1181
 4420TIP3    H134751   3.387   3.454   4.057  0.9638  1.8416  1.8258
 4420TIP3    H234752   3.533   3.495   4.045  1.1197  0.7435 -1.0117
 4421TIP3   OH234753   6.613   6.844  16.282  0.2400 -0.2002 -0.1036
 4421TIP3    H134754   6.687   6.904  16.269 -1.0914  1.2705 -1.2211
 4421TIP3    H234755   6.605   6.798  16.198  0.1717 -0.6984  0.1733
 4422TIP3   OH234756   5.367   5.222   2.109  0.2282  0.4024  0.0679
 4422TIP3    H134757   5.408   5.305   2.131  0.8064 -0.0307  0.6482
 4422TIP3    H234758   5.276   5.244   2.090 -0.0456  0.9348  1.8870
 4423TIP3   OH234759   6.589   5.700   2.375  0.2536 -0.0004  0.6242
 4423TIP3    H134760   6.633   5.723   2.293 -1.7166  1.8483  0.0037
 4423TIP3    H234761   6.661   5.688   2.437  1.7505 -0.3063 -1.0560
 4424TIP3   OH234762   5.578   0.882   0.724  0.3191  0.2170 -0.3492
 4424TIP3    H134763   5.541   0.970   0.725 -0.3614 -0.0508 -0.8844
 4424TIP3    H234764   5.536   0.837   0.797 -0.1176  0.0453 -0.6924
 4425TIP3   OH234765   1.613   4.013  10.951  0.5879  0.8592 -0.1172
 4425TIP3    H134766   1.563   4.012  10.869  0.1158 -0.3769  0.1727
 4425TIP3    H234767   1.674   3.940  10.943 -1.5423 -1.3062  1.8597
 4426TIP3   OH234768   4.730   5.839  12.905 -0.3233 -0.0478 -0.0261
 4426TIP3    H134769   4.769   5.824  12.992 -0.4861  0.8054  0.2038
 4426TIP3    H234770   4.723   5.752  12.867 -1.0591 -0.5391  1.1691
 4427TIP3   OH234771   4.551   6.824  14.741  0.6155  0.5176 -0.1192
 4427TIP3    H134772   4.575   6.839  14.833  2.5785 -1.7439 -0.1562
 4427TIP3    H234773   4.608   6.883  14.692  1.7464 -0.4019  0.0474
 4428TIP3   OH234774   0.965   3.394  15.429 -0.5064  0.3439  0.4894
 4428TIP3    H134775   1.004   3.430  15.508 -1.1497 -0.3583  1.1390
 4428TIP3    H234776   0.879   3.436  15.423 -0.5175  0.2898  0.2378
 4429TIP3   OH234777   5.177   2.737  15.528  0.3150  0.3525 -0.3593
 4429TIP3    H134778   5.106   2.773  15.475  0.0203  1.1901  0.5655
 4429TIP3    H234779   5.239   2.701  15.464 -2.0556 -2.7346 -1.1766
 4430TIP3   OH234780   1.992   5.590  16.833  0.1265 -0.2792  0.3588
 4430TIP3    H134781   2.008   5.516  16.774 -0.6584 -0.9742  0.9908
 4430TIP3    H234782   1.912   5.630  16.799 -1.8991 -2.2871  2.4112
 4431TIP3   OH234783   5.634   2.039  14.418 -0.6151  0.2538  0.6565
 4431TIP3    H134784   5.630   2.037  14.322 -1.9911  1.3447  0.6497
 4431TIP3    H234785   5.675   1.956  14.442  2.8346  1.3306 -0.9701
 4432TIP3   OH234786   1.880   5.789   1.569  0.0568 -0.4264  0.1738
 4432TIP3    H134787   1.950   5.726   1.553  0.7189  0.4197 -0.3793
 4432TIP3    H234788   1.816   5.742   1.622  0.1276 -1.8348 -0.9266
 4433TIP3   OH234789   3.296   0.266  15.954  0.6290  0.0572  0.2293
 4433TIP3    H134790   3.260   0.273  16.042  0.0912  1.9089 -0.0943
 4433TIP3    H234791   3.343   0.349  15.941  0.8496 -0.2640 -1.1655
 4434TIP3   OH234792   3.984   6.763  11.592 -0.3022 -0.3213  0.3787
 4434TIP3    H134793   3.910   6.716  11.553 -0.0487 -1.5944  1.3678
 4434TIP3    H234794   4.001   6.836  11.532 -2.0385 -0.2848 -0.1138
 4435TIP3   OH234795   5.178   2.986  11.036  0.2158  0.0396  0.4226
 4435TIP3    H134796   5.257   2.937  11.058 -0.4966 -1.5858 -0.4514
 4435TIP3    H234797   5.204   3.041  10.962  1.5104  2.4563  2.5328
 4436TIP3   OH234798   0.803   3.645  13.808 -0.6102  0.0120  0.1272
 4436TIP3    H134799   0.892   3.611  13.796 -0.8102 -0.6792  0.6151
 4436TIP3    H234800   0.786   3.693  13.727  0.7458  1.3868  0.6077
 4437TIP3   OH234801   0.797   4.202   0.605  0.0689 -0.3747  0.0445
 4437TIP3    H134802   0.837   4.119   0.632  0.9696 -0.0038 -0.1144
 4437TIP3    H234803   0.726   4.176   0.546 -0.4941 -1.0858  1.0155
 4438TIP3   OH234804   4.649   1.832   5.204  0.2083 -0.3749 -0.3849
 4438TIP3    H134805   4.710   1.788   5.263 -0.2317 -0.6535 -0.1311
 4438TIP3    H234806   4.689   1.917   5.187 -0.2633  0.2344  1.3463
 4439TIP3   OH234807   1.424   5.259   1.909  0.2587 -0.0756 -0.4537
 4439TIP3    H134808   1.402   5.175   1.950  1.8416 -0.1787  0.2610
 4439TIP3    H234809   1.506   5.242   1.862  0.9961  1.2307  0.3050
 4440TIP3   OH234810   1.887   1.841  15.482  0.4576 -0.0122  0.2353
 4440TIP3    H134811   1.948   1.915  15.477 -1.0567  1.1987 -2.2591
 4440TIP3    H234812   1.935   1.767  15.444  0.7979  0.6062 -0.5641
 4441TIP3   OH234813   4.677   5.243  11.594 -0.5784  0.1007 -0.0526
 4441TIP3    H134814   4.634   5.235  11.509  0.4965 -2.3259 -0.4564
 4441TIP3    H234815   4.623   5.189  11.653 -1.7220  2.3151  1.0585
 4442TIP3   OH234816   5.443   3.589  16.672  0.3518  0.1652  0.5284
 4442TIP3    H134817   5.407   3.659  16.725  0.9106  0.7488  0.1485
 4442TIP3    H234818   5.537   3.608  16.667  0.4141 -0.2566 -0.0923
 4443TIP3   OH234819   3.042   1.828   2.301 -0.3282 -0.0442  0.1892
 4443TIP3    H134820   2.993   1.877   2.236  0.4782 -0.8933 -1.1239
 4443TIP3    H234821   3.013   1.737   2.290 -0.6636 -0.1207  1.4934
 4444TIP3   OH234822   6.365   4.323  16.142 -0.1775 -0.5672 -0.2863
 4444TIP3    H134823   6.446   4.292  16.100  0.3372 -0.8508  0.8566
 4444TIP3    H234824   6.335   4.248  16.193  0.0826  0.2175  1.0764
 4445TIP3   OH234825   5.755   3.313   3.194  0.1787 -0.0584 -0.1172
 4445TIP3    H134826   5.845   3.345   3.207  0.6404 -1.1328 -0.5104
 4445TIP3    H234827   5.750   3.292   3.101 -0.2919 -0.5492  0.0143
 4446TIP3   OH234828   0.480   6.554   4.213 -0.6160  0.0104 -0.4136
 4446TIP3    H134829   0.567   6.591   4.230 -1.1064  0.9605  0.1021
 4446TIP3    H234830   0.498   6.466   4.179  0.6365  1.0352 -2.6419
 4447TIP3   OH234831   2.169   5.591   3.414 -0.2615  0.5769 -0.5968
 4447TIP3    H134832   2.153   5.608   3.506  1.0852  1.7991 -0.5614
 4447TIP3    H234833   2.112   5.652   3.367 -1.8984 -0.9035 -0.6459
 4448TIP3   OH234834   4.544   4.576   3.948  0.1088  0.3555 -0.0575
 4448TIP3    H134835   4.625   4.526   3.962  0.7074  1.4461  0.5549
 4448TIP3    H234836   4.574   4.657   3.906 -0.5911  0.9652  0.5804
 4449TIP3   OH234837   3.007   4.376  15.939  0.2000 -0.0319 -0.1634
 4449TIP3    H134838   3.092   4.342  15.965  0.2514 -1.0556 -1.5456
 4449TIP3    H234839   2.946   4.344  16.006  0.5326 -1.4192 -0.4905
 4450TIP3   OH234840   0.705   4.122  12.021 -1.0299  0.1079 -0.2467
 4450TIP3    H134841   0.633   4.062  12.043  0.4326 -1.6988 -0.1727
 4450TIP3    H234842   0.722   4.169  12.103  0.4609 -2.3574  0.9973
 4451TIP3   OH234843   6.372   3.320  16.878  0.0504 -0.0903  0.1163
 4451TIP3    H134844   6.456   3.306  16.834  0.4406 -1.2545  1.1709
 4451TIP3    H234845   6.377   3.411  16.910  0.7892 -0.0547 -0.0764
 4452TIP3   OH234846   3.076   1.621   4.081 -0.0028  0.4313 -0.0569
 4452TIP3    H134847   3.060   1.554   4.014 -1.9339  0.8307 -0.0443
 4452TIP3    H234848   3.079   1.703   4.032  0.3779  0.5381  0.1456
 4453TIP3   OH234849   6.148   3.968  15.430 -0.0679 -0.2497  0.5025
 4453TIP3    H134850   6.064   3.924  15.439 -1.2693  1.9934  0.9238
 4453TIP3    H234851   6.134   4.056  15.467  1.8557  0.9005 -1.2542
 4454TIP3   OH234852   3.644   0.153  11.367  0.5603 -0.2983  0.4655
 4454TIP3    H134853   3.590   0.159  11.289  2.0361  1.9403 -0.4585
 4454TIP3    H234854   3.582   0.160  11.440 -0.5405  0.6448 -0.5280
 4455TIP3   OH234855   4.257   3.653  15.869 -0.1420  0.2538 -0.6306
 4455TIP3    H134856   4.328   3.685  15.814 -0.3956  1.8068 -0.0986
 4455TIP3    H234857   4.233   3.728  15.923 -0.9476 -0.7849  0.4982
 4456TIP3   OH234858   4.169   4.679  16.160  0.6431  0.3773  0.1669
 4456TIP3    H134859   4.151   4.750  16.221  1.7700 -0.8601  2.0758
 4456TIP3    H234860   4.094   4.620  16.169  0.1210  0.8962 -0.7561
 4457TIP3   OH234861   4.289   5.235  12.924  0.7463  0.2782  0.1887
 4457TIP3    H134862   4.356   5.284  12.876  1.5782 -0.0736  0.9604
 4457TIP3    H234863   4.251   5.177  12.858  0.6407  1.0435 -0.4415
 4458TIP3   OH234864   3.118   2.913  15.540 -0.0204  0.0770 -0.3183
 4458TIP3    H134865   3.211   2.897  15.522 -0.3858 -1.2692 -1.2226
 4458TIP3    H234866   3.085   2.953  15.460 -0.1652  0.8477  0.1203
 4459TIP3   OH234867   2.136   5.258   3.668  0.3657  0.0999 -0.3251
 4459TIP3    H134868   2.149   5.228   3.578  0.1044 -0.6333 -0.1246
 4459TIP3    H234869   2.048   5.297   3.667 -0.2091 -1.1150 -0.0970
 4460TIP3   OH234870   1.211   2.854   4.969  0.1739 -0.5724 -0.2480
 4460TIP3    H134871   1.284   2.830   4.911 -0.2198 -0.5454 -0.7556
 4460TIP3    H234872   1.136   2.806   4.934  0.1394 -1.3350  0.8316
 4461TIP3   OH234873   1.200   6.406  11.470  0.3149  0.0022 -0.4236
 4461TIP3    H134874   1.254   6.464  11.524  1.2071 -1.6216  0.4990
 4461TIP3    H234875   1.259   6.372  11.403  0.2659 -1.1012  0.0601
 4462TIP3   OH234876   6.449   5.114  13.663  0.5033  0.1005  0.7944
 4462TIP3    H134877   6.537   5.143  13.684  0.5470  0.3956  0.2476
 4462TIP3    H234878   6.426   5.164  13.584  0.3132 -0.8546  0.2275
 4463TIP3   OH234879   1.246   4.628  16.408  0.6559  0.1546  0.0861
 4463TIP3    H134880   1.219   4.668  16.491 -1.0834 -0.4354 -0.1541
 4463TIP3    H234881   1.330   4.588  16.428  1.0415  1.3976  1.1217
 4464TIP3   OH234882   2.170   0.958  16.810  0.1726  0.1967  0.0881
 4464TIP3    H134883   2.112   0.908  16.753 -0.1854 -0.6690  1.1875
 4464TIP3    H234884   2.161   1.049  16.780  0.1694 -0.2605 -1.3636
 4465TIP3   OH234885   4.532   0.311   0.161  0.2435 -0.3743  0.4080
 4465TIP3    H134886   4.511   0.304   0.068  1.2302  1.6219 -0.0118
 4465TIP3    H234887   4.628   0.310   0.164  0.2531  1.1101  1.2283
 4466TIP3   OH234888   5.746   2.938   2.419 -0.6280  0.1154 -0.0513
 4466TIP3    H134889   5.655   2.911   2.405  0.0006 -2.7832  0.7563
 4466TIP3    H234890   5.785   2.932   2.332 -0.6675 -1.0886 -0.0036
 4467TIP3   OH234891   5.734   2.366  13.478  0.5008 -0.1914 -0.5732
 4467TIP3    H134892   5.738   2.283  13.525  3.2297 -0.0745 -0.4622
 4467TIP3    H234893   5.670   2.351  13.408 -3.2996 -0.5358  2.6386
 4468TIP3   OH234894   2.105   6.687  12.036 -0.1912 -0.7491 -0.1886
 4468TIP3    H134895   2.183   6.714  11.988 -0.8651 -0.4521 -1.1405
 4468TIP3    H234896   2.074   6.768  12.078  1.1260 -1.2469  1.8800
 4469TIP3   OH234897   1.692   0.007   1.656 -0.1108 -0.8538  0.1140
 4469TIP3    H134898   1.673  -0.027   1.569 -3.2418  0.5474  0.1264
 4469TIP3    H234899   1.724   0.096   1.640 -0.1636 -0.7863  0.3872
 4470TIP3   OH234900   5.090   2.300   2.397 -0.4428 -0.0350  0.1155
 4470TIP3    H134901   5.040   2.334   2.472  0.4849  0.0912  0.6869
 4470TIP3    H234902   5.176   2.278   2.433 -0.0761 -0.2469 -0.8583
 4471TIP3   OH234903   2.005   6.511   0.372 -0.6786 -0.2422 -0.0838
 4471TIP3    H134904   2.014   6.605   0.388  0.1346 -0.4953  1.0708
 4471TIP3    H234905   2.090   6.474   0.397 -1.0436 -1.3070 -0.3721
 4472TIP3   OH234906   2.374   5.483   6.406  0.2964  0.3654 -0.6330
 4472TIP3    H134907   2.459   5.525   6.399  0.3937  1.4234  3.9633
 4472TIP3    H234908   2.312   5.549   6.374  0.8675  1.8955  1.2639
 4473TIP3   OH234909   3.125   5.580   5.201  0.3105 -0.0387  0.3618
 4473TIP3    H134910   3.188   5.522   5.244  0.2916  0.4149  1.0078
 4473TIP3    H234911   3.052   5.522   5.178  0.0150 -0.1813  1.5627
 4474TIP3   OH234912   2.655   1.421  14.541  0.0029  0.3348  0.2857
 4474TIP3    H134913   2.712   1.358  14.586 -0.2159 -0.1414 -0.1026
 4474TIP3    H234914   2.712   1.496  14.523  0.6806 -0.3830 -0.6460
 4475TIP3   OH234915   1.116   0.350  12.418 -0.3747  0.3985  0.2858
 4475TIP3    H134916   1.040   0.394  12.381 -0.0936  1.4716  0.9321
 4475TIP3    H234917   1.096   0.342  12.511  0.0774  0.2102  0.3697
 4476TIP3   OH234918   0.798   0.585   3.571  0.5769  0.5630  0.5728
 4476TIP3    H134919   0.803   0.680   3.569 -0.0884  0.6000  0.4860
 4476TIP3    H234920   0.704   0.566   3.579  0.7875 -0.0595  1.8629
 4477TIP3   OH234921   0.760   5.258  11.101  0.1645 -0.1505 -0.0883
 4477TIP3    H134922   0.809   5.208  11.036 -0.9704 -1.1588 -0.1958
 4477TIP3    H234923   0.691   5.301  11.051  1.1145  1.5936 -0.0042
 4478TIP3   OH234924   4.542   5.551   2.417  0.3580 -0.1068  0.0135
 4478TIP3    H134925   4.481   5.497   2.468 -0.4417 -0.3706 -1.1904
 4478TIP3    H234926   4.507   5.640   2.425  0.8055  0.0123  0.7339
 4479TIP3   OH234927   4.235   4.536   5.346 -0.1202  0.1242  0.3783
 4479TIP3    H134928   4.280   4.620   5.353 -1.1674  0.6607  0.7366
 4479TIP3    H234929   4.142   4.559   5.336 -0.4574 -0.9961  0.8489
 4480TIP3   OH234930   0.931   1.717   0.838 -0.4862  0.2239 -0.4711
 4480TIP3    H134931   1.024   1.709   0.816 -0.6637 -0.3890 -1.0493
 4480TIP3    H234932   0.929   1.719   0.933  0.0601 -0.8390 -0.4173
 4481TIP3   OH234933   0.483   0.901  11.375 -0.0589 -0.2910 -0.1839
 4481TIP3    H134934   0.465   0.963  11.304 -0.2540  0.1992  0.2891
 4481TIP3    H234935   0.578   0.891  11.375 -0.1916 -2.8195 -2.6425
 4482TIP3   OH234936   4.314   5.651   3.705 -0.3447  0.6441 -0.6320
 4482TIP3    H134937   4.309   5.746   3.718 -0.8463  0.5076  0.2823
 4482TIP3    H234938   4.277   5.614   3.785  1.8940 -0.3563  0.0190
 4483TIP3   OH234939   6.762   0.020   1.459 -0.3161 -0.9855  0.4343
 4483TIP3    H134940   6.672   0.050   1.452 -0.0445  0.0405  1.0631
 4483TIP3    H234941   6.757  -0.061   1.509 -0.7834 -0.1649  1.7790
 4484TIP3   OH234942   0.132   3.335   5.168  0.2190 -0.6545  0.3990
 4484TIP3    H134943   0.176   3.354   5.084  1.8710  0.7480  1.5035
 4484TIP3    H234944   0.201   3.295   5.222  0.5932  2.4778  2.5242
 4485TIP3   OH234945   5.728   4.787  15.511  0.4292  0.4462 -0.0828
 4485TIP3    H134946   5.808   4.803  15.562  0.9071  0.0042 -0.6896
 4485TIP3    H234947   5.747   4.824  15.425  0.5009 -0.8930 -0.6548
 4486TIP3   OH234948   1.309   4.000   4.010 -0.6985  0.4200  0.5749
 4486TIP3    H134949   1.312   4.075   3.950 -0.4509  0.7345  0.9788
 4486TIP3    H234950   1.287   3.925   3.954 -0.0184  0.6301  0.0143
 4487TIP3   OH234951   3.065   5.451   2.903  0.4770 -0.4528  0.3306
 4487TIP3    H134952   3.038   5.488   2.986 -0.7647 -1.9755  0.6537
 4487TIP3    H234953   2.996   5.476   2.842  0.9241 -0.1029 -0.0382
 4488TIP3   OH234954   2.119   1.358   4.724 -0.0889 -0.2312 -0.5728
 4488TIP3    H134955   2.170   1.345   4.644 -0.6172 -2.8789 -0.5714
 4488TIP3    H234956   2.030   1.375   4.693 -0.3629 -1.6021 -0.5773
 4489TIP3   OH234957   6.738   6.099   2.200  0.6534 -0.1015 -0.4085
 4489TIP3    H134958   6.680   6.144   2.261  0.4845 -3.2300  1.9722
 4489TIP3    H234959   6.824   6.137   2.215  0.3195  0.2665  0.6046
 4490TIP3   OH234960   1.501   5.339  12.469  0.2036 -0.1395  0.4109
 4490TIP3    H134961   1.501   5.331  12.564  0.7475 -1.2181  0.3317
 4490TIP3    H234962   1.420   5.297  12.441  0.4726 -0.6115  0.3405
 4491TIP3   OH234963   2.342   2.043  13.126  0.1493  0.1314 -0.0673
 4491TIP3    H134964   2.349   2.006  13.214  0.4112 -0.3944 -0.3067
 4491TIP3    H234965   2.431   2.046  13.093 -0.1377 -2.1160 -1.2885
 4492TIP3   OH234966   4.017   4.807   0.333 -0.7210 -0.1337  0.5506
 4492TIP3    H134967   3.935   4.770   0.299 -0.1437 -0.2557 -0.7250
 4492TIP3    H234968   4.076   4.732   0.341  0.3875  0.3960 -1.8380
 4493TIP3   OH234969   3.618   3.149   4.599 -0.0202 -0.3405  0.1748
 4493TIP3    H134970   3.625   3.103   4.683 -0.0267 -1.5834 -0.4895
 4493TIP3    H234971   3.705   3.142   4.560  0.5887  1.9859  0.9123
 4494TIP3   OH234972   1.672   2.262   4.963 -0.3278  0.0175  0.1862
 4494TIP3    H134973   1.692   2.170   4.977 -0.0084  0.0854  0.1728
 4494TIP3    H234974   1.727   2.288   4.889 -2.6676 -0.5897 -1.9046
 4495TIP3   OH234975   5.164   6.526   1.882  0.3601  0.4726  0.4212
 4495TIP3    H134976   5.070   6.537   1.896  0.4662  0.3956  1.2398
 4495TIP3    H234977   5.186   6.589   1.814 -0.4070  0.0275 -0.2468
 4496TIP3   OH234978   0.791   4.474  13.900 -0.2062  0.2220  0.5171
 4496TIP3    H134979   0.769   4.561  13.867 -2.1575 -0.5613 -0.4572
 4496TIP3    H234980   0.741   4.466  13.981  0.5309  0.2502  0.9826
 4497TIP3   OH234981   0.062   5.350   4.174  0.3103 -0.0378  0.1398
 4497TIP3    H134982   0.086   5.279   4.115 -0.0878 -0.7695  0.8305
 4497TIP3    H234983   0.104   5.428   4.138 -0.7520 -0.2601 -1.6779
 4498TIP3   OH234984   1.215   5.658   0.740 -0.3424 -0.0092  0.1319
 4498TIP3    H134985   1.296   5.693   0.704  0.7792 -0.8564  1.7089
 4498TIP3    H234986   1.146   5.706   0.695  0.9326 -0.5964 -2.6887
 4499TIP3   OH234987   1.569   6.818   1.387  0.0989 -0.1780 -0.2813
 4499TIP3    H134988   1.556   6.754   1.316 -0.3399  0.0369 -0.3957
 4499TIP3    H234989   1.620   6.888   1.347 -1.1506  0.5139 -0.7332
 4500TIP3   OH234990   6.498   2.326  11.686 -0.1169 -0.6728  0.4797
 4500TIP3    H134991   6.421   2.282  11.649 -1.1292  0.7012  0.8685
 4500TIP3    H234992   6.506   2.291  11.774 -0.0910 -1.0472  0.3315
 4501TIP3   OH234993   5.433   6.346  15.747 -0.4581 -0.0318  0.2543
 4501TIP3    H134994   5.341   6.335  15.772 -0.1071 -0.3405  1.4818
 4501TIP3    H234995   5.480   6.347  15.830  0.7639 -0.9360 -0.3938
 4502TIP3   OH234996   0.640   4.883   4.926  0.1474 -0.4869  0.4330
 4502TIP3    H134997   0.688   4.905   4.846 -1.1017 -0.6434 -0.3770
 4502TIP3    H234998   0.697   4.820   4.970  1.9353  1.2998  0.8474
 4503TIP3   OH234999   2.180   2.610   3.583 -0.1971 -0.9857  0.0780
 4503TIP3    H135000   2.142   2.523   3.588  0.3791 -1.5493 -3.3491
 4503TIP3    H235001   2.107   2.667   3.559 -0.0182 -1.0810 -0.7245
 4504TIP3   OH235002   5.181   0.117  15.703  0.3789  0.4752 -0.4387
 4504TIP3    H135003   5.159   0.035  15.660  0.9155  0.2611 -0.3007
 4504TIP3    H235004   5.272   0.134  15.680 -0.1201  1.7609 -1.6519
 4505TIP3   OH235005   0.205   0.662  11.997 -0.5490  0.3677 -0.1970
 4505TIP3    H135006   0.251   0.743  11.975  2.0790 -0.6987  0.8958
 4505TIP3    H235007   0.190   0.620  11.912  0.8997  0.6177 -0.6091
 4506TIP3   OH235008   6.590   3.813  13.662 -0.3707 -0.2452 -0.0035
 4506TIP3    H135009   6.601   3.762  13.742 -1.1464 -0.0280  0.2549
 4506TIP3    H235010   6.542   3.754  13.603  0.3404 -0.4619 -0.3708
 4507TIP3   OH235011   5.609   0.439  16.767  0.0138  0.0215 -0.0694
 4507TIP3    H135012   5.612   0.408  16.677  1.5867  0.3106 -0.1429
 4507TIP3    H235013   5.664   0.378  16.815  0.5267  0.8130  0.3768
 4508TIP3   OH235014   5.268   3.186   1.724 -0.0935  0.2002  0.1229
 4508TIP3    H135015   5.305   3.129   1.791 -0.1578 -0.2120 -0.1900
 4508TIP3    H235016   5.175   3.192   1.747  0.1381  1.2089  0.8891
 4509TIP3   OH235017   4.592   1.074  16.242 -0.0630 -0.6372  0.4640
 4509TIP3    H135018   4.619   0.988  16.274 -0.8153 -0.6522  1.0914
 4509TIP3    H235019   4.536   1.109  16.311  0.1159  0.2996  0.1532
 4510TIP3   OH235020   4.426   0.173   4.485 -0.4857  0.1122 -0.1545
 4510TIP3    H135021   4.362   0.208   4.423  0.8596  2.5055 -0.3339
 4510TIP3    H235022   4.505   0.159   4.432 -0.1154 -0.4196  0.5203
 4511TIP3   OH235023   6.842   0.830  17.087  0.1679  0.2758 -0.3662
 4511TIP3    H135024   6.750   0.805  17.082  0.3036 -0.1351 -0.8288
 4511TIP3    H235025   6.865   0.853  16.997  1.3612 -2.6357 -0.8971
 4512TIP3   OH235026   2.854   3.511   5.105  0.1385 -0.1415  0.4656
 4512TIP3    H135027   2.900   3.513   5.189  1.5408 -0.7073 -0.2739
 4512TIP3    H235028   2.899   3.445   5.054 -0.9292 -0.0581 -0.6334
 4513TIP3   OH235029   1.382   6.075   3.625 -0.3446 -0.2908  0.4124
 4513TIP3    H135030   1.404   6.112   3.540  0.5263  1.2239  1.2407
 4513TIP3    H235031   1.388   6.149   3.686  0.4175 -1.5841  2.0064
 4514TIP3   OH235032   6.521   6.279  16.356  0.0155 -0.7381 -0.1064
 4514TIP3    H135033   6.543   6.367  16.328  2.3406 -1.1620  0.2489
 4514TIP3    H235034   6.446   6.290  16.414 -0.4544  0.8536 -0.9574
 4515TIP3   OH235035   4.720   5.439  17.008 -0.1939 -0.2247 -0.2148
 4515TIP3    H135036   4.707   5.475  17.096  1.0192 -2.6319  1.0469
 4515TIP3    H235037   4.812   5.458  16.989  0.1811 -1.6880  0.0491
 4516TIP3   OH235038   5.438   4.562   1.568 -0.1601 -0.6624  0.4139
 4516TIP3    H135039   5.397   4.576   1.653 -0.6635 -0.1896  0.1068
 4516TIP3    H235040   5.492   4.484   1.579  1.7698  0.7953  1.8672
 4517TIP3   OH235041   1.658   5.601  12.640 -0.3573 -0.0273 -0.1391
 4517TIP3    H135042   1.662   5.617  12.546  0.0271 -0.5405 -0.2131
 4517TIP3    H235043   1.575   5.640  12.667 -0.0612  0.9143 -0.5333
 4518TIP3   OH235044   2.239   0.300  16.168 -0.7857  0.9298 -0.1328
 4518TIP3    H135045   2.163   0.356  16.184 -0.9188  0.3571  1.3093
 4518TIP3    H235046   2.299   0.356  16.118 -1.4830  1.9130  0.1038
 4519TIP3   OH235047   1.523   3.138  13.421 -0.1885 -0.0111 -0.2232
 4519TIP3    H135048   1.471   3.062  13.450 -1.1520  1.5543  2.4918
 4519TIP3    H235049   1.613   3.105  13.419 -0.8195 -1.9387 -2.0015
 4520TIP3   OH235050   4.994   3.701  12.588 -0.4750 -0.2039 -0.6222
 4520TIP3    H135051   5.076   3.651  12.585  0.4165  1.0163  1.3272
 4520TIP3    H235052   5.008   3.775  12.528 -0.1576 -0.0264 -0.3323
 4521TIP3   OH235053   5.711   0.958   1.603  0.3788 -0.3636 -0.8224
 4521TIP3    H135054   5.732   0.956   1.696 -0.5437 -1.7906 -0.6129
 4521TIP3    H235055   5.675   1.045   1.588 -1.0074 -0.6763  0.5150
 4522TIP3   OH235056   1.904   2.043  15.150 -0.0660  0.7421  0.2958
 4522TIP3    H135057   1.912   1.949  15.135 -1.5456  0.7443 -0.6544
 4522TIP3    H235058   1.811   2.058  15.166  0.0155  2.1485 -0.3507
 4523TIP3   OH235059   6.819   4.252  10.810 -0.3600  0.3478  0.6089
 4523TIP3    H135060   6.788   4.204  10.887 -0.0656  0.4286  0.7791
 4523TIP3    H235061   6.900   4.294  10.839 -0.1287  0.1952  0.1870
 4524TIP3   OH235062   1.583   0.901   2.800 -0.1113 -0.9116 -0.0299
 4524TIP3    H135063   1.501   0.950   2.803  0.2217 -0.4068  1.2742
 4524TIP3    H235064   1.581   0.844   2.876  0.8674 -0.6946  0.1736
 4525TIP3   OH235065   5.097   1.125   3.303  0.2319 -0.3945  0.1563
 4525TIP3    H135066   5.142   1.149   3.384 -1.7265  0.8877  0.9296
 4525TIP3    H235067   5.006   1.110   3.330 -0.4148 -0.1791 -1.7735
 4526TIP3   OH235068   2.576   4.130  11.113  0.6353  0.2071 -0.1084
 4526TIP3    H135069   2.553   4.077  11.037 -0.7722 -0.9724  1.0608
 4526TIP3    H235070   2.523   4.209  11.105  2.2091  1.1833 -1.4921
 4527TIP3   OH235071   1.854   3.774  14.529  0.6263  0.0641  0.1017
 4527TIP3    H135072   1.872   3.719  14.605 -1.3748 -1.5301 -0.4957
 4527TIP3    H235073   1.759   3.781  14.526  0.5986 -0.4808 -2.5975
 4528TIP3   OH235074   5.550   3.552   3.299  0.2380  0.0301  0.2769
 4528TIP3    H135075   5.611   3.626   3.295  1.5297 -0.9758  0.6308
 4528TIP3    H235076   5.603   3.476   3.277 -0.9422 -0.8753  0.4528
 4529TIP3   OH235077   3.415   4.399   2.885  0.3684  0.2330 -0.1263
 4529TIP3    H135078   3.467   4.420   2.808  1.4009 -0.7755  0.2652
 4529TIP3    H235079   3.404   4.304   2.883  0.7131  0.1422  1.1306
 4530TIP3   OH235080   2.768   3.193  12.698  0.4583 -0.7789  0.4012
 4530TIP3    H135081   2.819   3.229  12.625 -1.2441  0.3773 -0.2842
 4530TIP3    H235082   2.803   3.237  12.775  0.3686  0.1709 -0.0825
 4531TIP3   OH235083   3.467   2.097   2.864  1.2382 -0.0988 -0.0453
 4531TIP3    H135084   3.410   2.173   2.875  0.9428 -0.2637 -0.4138
 4531TIP3    H235085   3.463   2.077   2.771 -0.1427 -1.6882  0.2994
 4532TIP3   OH235086   1.953   4.970  14.974 -0.2182  0.3309  0.5688
 4532TIP3    H135087   1.883   4.956  15.037 -0.2432  0.5949  0.6003
 4532TIP3    H235088   2.013   5.031  15.017 -0.0614  0.2468  0.4715
 4533TIP3   OH235089   1.968   4.032  14.115 -0.0324 -0.2645 -0.1763
 4533TIP3    H135090   2.007   4.113  14.081 -0.7954  1.1239  2.0623
 4533TIP3    H235091   1.934   3.988  14.037 -1.5193  2.6383 -1.3393
 4534TIP3   OH235092   2.049   3.268  12.305 -0.0649  0.7266  0.2706
 4534TIP3    H135093   2.004   3.185  12.322 -1.1373  1.7204  2.8192
 4534TIP3    H235094   1.998   3.308  12.234 -0.3591 -0.1700 -0.0501
 4535TIP3   OH235095   4.009   5.214  11.728 -0.1244  0.1921 -0.3717
 4535TIP3    H135096   3.954   5.153  11.679 -1.4710  1.6079 -0.7258
 4535TIP3    H235097   3.946   5.274  11.769  1.1251  1.1243  0.2303
 4536TIP3   OH235098   6.668   4.119  13.509 -0.5637 -0.6840  0.5742
 4536TIP3    H135099   6.716   4.194  13.475  0.2572 -0.9994  1.0144
 4536TIP3    H235100   6.640   4.071  13.432 -3.0235  1.1896  0.1476
 4537TIP3   OH235101   4.272   6.406  12.339 -0.0346 -0.4495  0.1592
 4537TIP3    H135102   4.212   6.346  12.383  1.4099 -1.6610  0.5804
 4537TIP3    H235103   4.221   6.443  12.268 -1.5980 -0.5716  1.1801
 4538TIP3   OH235104   3.494   5.187   1.391 -0.2057  0.1454 -0.4828
 4538TIP3    H135105   3.436   5.254   1.355 -1.3922 -1.2933 -1.3394
 4538TIP3    H235106   3.441   5.107   1.393  0.7305 -0.4827  1.8329
 4539TIP3   OH235107   1.444   6.609  12.693  0.1593 -0.5073 -0.0826
 4539TIP3    H135108   1.476   6.662  12.766 -0.1850  0.6593 -0.7659
 4539TIP3    H235109   1.365   6.653  12.664 -0.2699 -1.5360 -0.5190
 4540TIP3   OH235110   4.568   3.570   5.498 -0.3801 -0.0637  0.1999
 4540TIP3    H135111   4.495   3.603   5.549 -1.2628 -1.6869  0.0509
 4540TIP3    H235112   4.637   3.554   5.562 -1.1057 -1.0732  0.7411
 4541TIP3   OH235113   0.247   0.968   5.361  0.1073 -0.2276  0.1493
 4541TIP3    H135114   0.236   1.010   5.276  1.5967 -1.3180 -0.6420
 4541TIP3    H235115   0.164   0.924   5.378 -0.2220  0.0501 -0.7197
 4542TIP3   OH235116   1.032   6.515  12.558 -0.0992 -0.0643  0.0154
 4542TIP3    H135117   1.088   6.440  12.536 -0.5754 -0.9823  1.7002
 4542TIP3    H235118   1.019   6.507  12.653  0.0338  2.3129  0.2903
 4543TIP3   OH235119   0.496   5.061   6.029 -0.1071  0.5751  0.4981
 4543TIP3    H135120   0.415   5.084   6.074  0.1125  1.1598  0.6060
 4543TIP3    H235121   0.478   4.977   5.986 -0.6025  0.4600  0.9375
 4544TIP3   OH235122   0.550   5.865   5.573 -0.2536 -0.1227  0.1041
 4544TIP3    H135123   0.480   5.825   5.624  0.5008 -1.1484  0.3829
 4544TIP3    H235124   0.530   5.842   5.482 -0.7983  0.4344  0.0781
 4545TIP3   OH235125   2.610   5.668   2.566 -0.2110 -0.0938 -0.0184
 4545TIP3    H135126   2.666   5.655   2.643 -0.5635  2.1038  0.6549
 4545TIP3    H235127   2.566   5.583   2.555 -0.3748 -0.4090  2.3779
 4546TIP3   OH235128   6.331   0.913   1.472  0.1034  0.8498 -0.0186
 4546TIP3    H135129   6.325   1.006   1.493 -1.4388  0.3564  2.1594
 4546TIP3    H235130   6.342   0.870   1.557  1.0706 -0.9585 -0.9926
 4547TIP3   OH235131   2.755   2.962  13.933  0.3727 -0.1096 -0.0238
 4547TIP3    H135132   2.843   2.955  13.896  1.1350 -0.9396  1.7934
 4547TIP3    H235133   2.758   2.906  14.011 -2.1919 -1.1934 -0.6361
 4548TIP3   OH235134   3.619   0.173  12.505  0.0863  0.1955 -0.3405
 4548TIP3    H135135   3.611   0.250  12.561 -1.6252 -0.2446  0.0842
 4548TIP3    H235136   3.709   0.145  12.516  0.3788  1.3743  0.5112
 4549TIP3   OH235137   4.963   4.689   4.004  0.4519 -0.1891 -0.4182
 4549TIP3    H135138   5.041   4.739   4.027  0.8694 -0.0555 -1.9846
 4549TIP3    H235139   4.890   4.747   4.025  0.7096 -0.4850  1.4721
 4550TIP3   OH235140   2.444   4.356   3.711 -0.0670 -0.0901 -0.0335
 4550TIP3    H135141   2.478   4.432   3.758 -0.2837 -0.0064 -0.0093
 4550TIP3    H235142   2.470   4.370   3.620 -1.1416  0.6239 -0.2516
 4551TIP3   OH235143   5.541   4.135   4.013 -0.4792  0.1334  0.0842
 4551TIP3    H135144   5.608   4.068   4.021  2.3912  2.8493  0.7342
 4551TIP3    H235145   5.579   4.201   3.956 -1.6240  2.8267  2.1986
 4552TIP3   OH235146   1.763   0.997  12.191 -0.5423 -0.0020  0.1125
 4552TIP3    H135147   1.778   0.903  12.176 -0.3474 -0.0892  0.8220
 4552TIP3    H235148   1.684   1.000  12.245  0.3710  0.1480  1.4855
 4553TIP3   OH235149   5.722   6.668   4.360  0.5430 -0.2889  0.3254
 4553TIP3    H135150   5.685   6.708   4.438 -1.6857 -0.0464 -0.7715
 4553TIP3    H235151   5.727   6.575   4.381 -1.5695 -0.4759  0.2876
 4554TIP3   OH235152   6.639   6.040   0.304 -0.2238 -0.2772  0.2499
 4554TIP3    H135153   6.688   5.982   0.362  0.4519 -1.0120 -1.0100
 4554TIP3    H235154   6.615   5.985   0.230 -2.1368  0.3195  0.3645
 4555TIP3   OH235155   2.018   2.562  12.243  0.9235 -0.6374  0.0037
 4555TIP3    H135156   1.993   2.648  12.209  0.1544 -0.3140  1.3272
 4555TIP3    H235157   2.059   2.580  12.327  0.6296 -1.5748  0.3676
 4556TIP3   OH235158   0.819   0.049   0.421  0.4927  0.5130  0.0520
 4556TIP3    H135159   0.764   0.025   0.347  0.4581  2.3123 -0.5604
 4556TIP3    H235160   0.762   0.104   0.476  1.0681  0.7029  0.4667
 4557TIP3   OH235161   3.766   5.202   0.451  0.2577  0.2695  0.1064
 4557TIP3    H135162   3.807   5.125   0.490 -0.5520  0.0014  0.4498
 4557TIP3    H235163   3.686   5.214   0.502 -0.0924  0.7698 -0.5586
 4558TIP3   OH235164   3.993   4.080  16.248  0.2916  0.0903  0.1491
 4558TIP3    H135165   4.010   4.163  16.202 -0.0531  0.7815  1.2205
 4558TIP3    H235166   3.907   4.092  16.287  0.5222 -0.5106  0.8730
 4559TIP3   OH235167   2.126   5.878  15.365 -0.0170 -0.3437 -0.0171
 4559TIP3    H135168   2.053   5.888  15.303 -0.3886 -1.0431  0.2960
 4559TIP3    H235169   2.091   5.821  15.434  1.1910 -1.6725 -0.4650
 4560TIP3   OH235170   5.014   4.580   6.559 -0.0458  0.1587 -0.2258
 4560TIP3    H135171   5.000   4.507   6.497  0.5020  0.3501 -0.5807
 4560TIP3    H235172   5.091   4.554   6.610  1.3535  1.3101 -1.6337
 4561TIP3   OH235173   5.826   3.184   2.546 -0.3363  0.3196 -0.2714
 4561TIP3    H135174   5.830   3.092   2.520 -1.0268  0.4857 -1.0077
 4561TIP3    H235175   5.918   3.208   2.563 -0.3179 -1.0269  1.9165
 4562TIP3   OH235176   2.553   4.915  11.552 -0.8897  0.0202 -0.3439
 4562TIP3    H135177   2.534   4.972  11.478 -0.6446 -1.2215 -1.4066
 4562TIP3    H235178   2.499   4.949  11.623 -0.3663  1.8543 -0.7776
 4563TIP3   OH235179   5.015   6.133   3.389  0.1682 -0.5232 -0.1661
 4563TIP3    H135180   5.102   6.126   3.349 -0.5270 -1.0689 -1.6464
 4563TIP3    H235181   4.972   6.051   3.367 -0.5539 -0.4763  1.0096
 4564TIP3   OH235182   3.314   3.436  16.155  0.1016  0.0891  0.1112
 4564TIP3    H135183   3.307   3.364  16.092  0.5002  0.1784 -0.0357
 4564TIP3    H235184   3.404   3.432  16.187 -0.0764  0.0920  0.6269
 4565TIP3   OH235185   1.598   1.366   2.071  0.0026 -0.1172  0.3072
 4565TIP3    H135186   1.569   1.286   2.115 -1.2310  0.2768  0.2379
 4565TIP3    H235187   1.676   1.339   2.021 -0.4037 -1.2710  0.2662
 4566TIP3   OH235188   5.535   4.391   3.636  0.3575  0.0914 -0.7225
 4566TIP3    H135189   5.600   4.410   3.704  0.0760 -0.2116 -0.3594
 4566TIP3    H235190   5.565   4.309   3.596  0.4577  0.2045 -0.8762
 4567TIP3   OH235191   2.126   1.455  16.537  0.6894  0.2697  0.7214
 4567TIP3    H135192   2.070   1.466  16.460  0.5668 -0.2191  0.7333
 4567TIP3    H235193   2.201   1.511  16.521  1.9550 -1.7390 -0.9799
 4568TIP3   OH235194   5.480   1.126   0.764  0.6211  0.4593 -0.4388
 4568TIP3    H135195   5.409   1.166   0.715 -0.3395  0.5673  0.9839
 4568TIP3    H235196   5.532   1.200   0.797  1.5586  0.3757 -1.6709
 4569TIP3   OH235197   0.223   3.463   4.419 -0.5158 -0.5398 -0.0840
 4569TIP3    H135198   0.130   3.463   4.398 -0.5450 -0.5939  0.0436
 4569TIP3    H235199   0.264   3.511   4.347 -0.8019  0.7288  0.5835
 4570TIP3   OH235200   0.026   3.379  11.120  0.9020  0.1384  0.6201
 4570TIP3    H135201  -0.065   3.401  11.104  1.5118  2.2131 -0.3540
 4570TIP3    H235202   0.024   3.287  11.147 -1.4314  0.0867  0.4905
 4571TIP3   OH235203   3.882   3.887   4.929  0.4770 -0.2813 -0.1034
 4571TIP3    H135204   3.863   3.963   4.984  0.7586 -0.6447  0.5085
 4571TIP3    H235205   3.853   3.812   4.982 -1.5603 -0.5203 -1.4501
 4572TIP3   OH235206   3.728   0.535   2.062 -0.2438 -0.2172 -0.2713
 4572TIP3    H135207   3.663   0.496   2.122 -0.1036 -0.7977 -0.4926
 4572TIP3    H235208   3.811   0.529   2.110  0.1519 -2.0877 -1.0975
 4573TIP3   OH235209   4.528   4.166   6.261 -0.6640 -0.1196 -0.2691
 4573TIP3    H135210   4.589   4.238   6.249 -0.7688  0.0174  0.0141
 4573TIP3    H235211   4.579   4.100   6.309 -1.3157  0.7962  1.7655
 4574TIP3   OH235212   5.946   2.087  16.421  0.1235  0.4395 -0.3816
 4574TIP3    H135213   5.903   2.168  16.448 -0.2290 -0.0952  0.7108
 4574TIP3    H235214   6.029   2.087  16.469 -0.3249 -0.3261  0.4057
 4575TIP3   OH235215   4.140   0.463   2.435 -0.3696  0.4058  0.0147
 4575TIP3    H135216   4.137   0.496   2.525 -1.5282  0.4891 -0.0455
 4575TIP3    H235217   4.155   0.369   2.445 -1.6195  0.2299  0.3402
 4576TIP3   OH235218   1.072   3.018  16.196 -0.8023  0.2552 -0.0727
 4576TIP3    H135219   1.153   3.069  16.202 -0.4297 -0.4029  0.7022
 4576TIP3    H235220   1.095   2.944  16.141 -0.0188 -1.4134  2.3047
 4577TIP3   OH235221   6.806   1.742   5.268 -0.3675 -0.2439  0.0994
 4577TIP3    H135222   6.843   1.762   5.182 -1.7961 -0.6902 -0.6519
 4577TIP3    H235223   6.712   1.753   5.257 -0.4378  2.8549  2.4569
 4578TIP3   OH235224   1.085   6.395   0.948  0.2666  0.4109  0.4089
 4578TIP3    H135225   1.083   6.386   1.043 -0.1839  0.8013  0.4393
 4578TIP3    H235226   1.173   6.366   0.923  0.2955  0.0427  0.9128
 4579TIP3   OH235227   4.031   0.923   0.274 -0.6163 -0.2252 -0.0930
 4579TIP3    H135228   4.095   0.956   0.210 -1.7988  0.2873 -1.0648
 4579TIP3    H235229   3.946   0.943   0.234 -1.3860 -1.8236  0.6803
 4580TIP3   OH235230   6.003   6.320   2.902  0.3500 -0.1328  0.3926
 4580TIP3    H135231   6.012   6.286   2.813  0.5702 -0.2068  0.4429
 4580TIP3    H235232   5.941   6.393   2.894 -1.3479 -1.4879  0.5262
 4581TIP3   OH235233   3.808   0.975  11.931 -0.0761  0.1286 -0.0846
 4581TIP3    H135234   3.732   0.993  11.986  0.4283 -0.4109  0.8140
 4581TIP3    H235235   3.776   0.911  11.867 -0.9954  1.6782 -1.2353
 4582TIP3   OH235236   4.208   5.091   5.993 -0.2253 -0.0603  0.1905
 4582TIP3    H135237   4.176   5.163   5.939 -0.6564 -0.5410 -0.1960
 4582TIP3    H235238   4.140   5.024   5.987  0.1028 -0.4407  0.6709
 4583TIP3   OH235239   4.976   2.589  16.025  0.3610 -0.3584  0.3167
 4583TIP3    H135240   4.971   2.606  15.931 -0.3460 -1.2990  0.1601
 4583TIP3    H235241   4.905   2.526  16.041  1.2497 -1.1430  1.2650
 4584TIP3   OH235242   4.908   0.592  14.794  0.1282  0.3863 -0.2611
 4584TIP3    H135243   4.839   0.526  14.793 -1.0825  1.6116 -1.1041
 4584TIP3    H235244   4.990   0.542  14.784 -0.7260 -0.9812 -0.6627
 4585TIP3   OH235245   2.516   5.388   2.371  0.0491 -0.8487  0.3744
 4585TIP3    H135246   2.457   5.318   2.400 -0.4453 -0.8446 -0.5991
 4585TIP3    H235247   2.469   5.469   2.390 -1.7369 -0.8624 -3.2533
 4586TIP3   OH235248   3.225   4.327  16.830 -0.1295 -0.1013  0.1588
 4586TIP3    H135249   3.320   4.317  16.825 -0.0603  0.0259  1.0249
 4586TIP3    H235250   3.209   4.356  16.920 -1.0264 -0.5692  0.1607
 4587TIP3   OH235251   2.547   1.841  15.670  0.3658  0.2525  0.1456
 4587TIP3    H135252   2.568   1.929  15.639  2.0434 -0.0648  0.3127
 4587TIP3    H235253   2.621   1.816  15.725  1.2046 -2.2642 -1.9310
 4588TIP3   OH235254   4.193   0.973  14.441 -0.3991  0.6204 -0.4316
 4588TIP3    H135255   4.157   0.969  14.353 -0.6407  2.1462 -0.4250
 4588TIP3    H235256   4.188   1.066  14.465 -1.7340  0.0424  1.7718
 4589TIP3   OH235257   5.750   5.378  11.319  0.3617 -0.0281 -0.1535
 4589TIP3    H135258   5.728   5.350  11.408  1.0099 -1.4776 -0.4288
 4589TIP3    H235259   5.843   5.397  11.322  0.1306  1.2215 -0.2256
 4590TIP3   OH235260   0.270   4.521  15.214 -0.0996 -0.0738 -0.2713
 4590TIP3    H135261   0.274   4.427  15.232 -0.4478  0.3122  2.1287
 4590TIP3    H235262   0.358   4.543  15.181  0.3602 -1.0492  0.2565
 4591TIP3   OH235263   5.494   3.301  15.779  0.3652 -0.7088  0.4294
 4591TIP3    H135264   5.439   3.332  15.851  0.6035 -0.3135  0.4456
 4591TIP3    H235265   5.469   3.210  15.767 -0.7125 -0.3854  0.0550
 4592TIP3   OH235266   2.551   2.957   0.970  0.0462  0.1818 -0.1957
 4592TIP3    H135267   2.594   2.878   1.003  1.6592  0.8397 -0.6247
 4592TIP3    H235268   2.595   3.029   1.015 -2.7661  0.8613  1.7465
 4593TIP3   OH235269   3.107   1.638   2.542  0.3756  0.5779  0.0911
 4593TIP3    H135270   3.113   1.650   2.637  1.7538 -0.2782  0.1419
 4593TIP3    H235271   3.023   1.595   2.529  1.1337 -1.3603  1.1953
 4594TIP3   OH235272   1.521   4.182  14.706 -0.2373  0.4872  0.3320
 4594TIP3    H135273   1.428   4.164  14.697 -0.4678  0.4481  2.3622
 4594TIP3    H235274   1.562   4.130  14.637 -1.5772 -0.8816  0.5221
 4595TIP3   OH235275   0.045   1.958   4.668  0.1634  0.1891 -0.2554
 4595TIP3    H135276  -0.014   1.958   4.592 -0.6494  1.2411  0.3604
 4595TIP3    H235277   0.034   2.044   4.707  1.0907 -0.0987  0.6777
 4596TIP3   OH235278   4.428   6.474  11.039  0.3078 -0.5380 -0.0473
 4596TIP3    H135279   4.512   6.447  11.002 -0.0681 -0.1009 -1.2612
 4596TIP3    H235280   4.442   6.565  11.065 -0.1374 -0.0662 -1.4046
 4597TIP3   OH235281   2.545   0.308   4.665 -0.0709 -0.2229  0.2199
 4597TIP3    H135282   2.471   0.248   4.678 -0.4536  0.4305  1.1567
 4597TIP3    H235283   2.615   0.252   4.631 -1.8123 -0.3819 -3.5564
 4598TIP3   OH235284   3.447   4.144  15.842 -0.3123  0.2539 -0.5896
 4598TIP3    H135285   3.460   4.211  15.775 -0.5999  0.1244 -0.7750
 4598TIP3    H235286   3.395   4.187  15.910 -0.1785  0.3301 -0.5356
 4599TIP3   OH235287   3.870   0.777  12.747  0.2383  0.2528  0.0310
 4599TIP3    H135288   3.847   0.807  12.835 -0.5446  0.1171 -0.1181
 4599TIP3    H235289   3.908   0.853  12.704  0.6599  0.3082  0.5016
 4600TIP3   OH235290   5.415   1.797  11.151 -0.2487 -0.4238 -0.1136
 4600TIP3    H135291   5.469   1.852  11.094  0.7025 -1.7953 -0.6022
 4600TIP3    H235292   5.367   1.740  11.090 -0.6931 -0.6082  0.3969
 4601TIP3   OH235293   3.468   1.930   5.285 -0.1039  0.2067  0.1747
 4601TIP3    H135294   3.434   2.019   5.280 -0.0830  0.3078  1.3785
 4601TIP3    H235295   3.500   1.910   5.197 -1.2615  0.9168 -0.4237
 4602TIP3   OH235296   5.323   5.375   0.458 -0.2280  0.1042 -0.3973
 4602TIP3    H135297   5.295   5.467   0.457 -0.3758  0.0546 -0.9113
 4602TIP3    H235298   5.417   5.379   0.445 -0.1330  0.2162  0.2827
 4603TIP3   OH235299   2.169   1.770   1.456  0.0778  0.2301  0.4076
 4603TIP3    H135300   2.124   1.808   1.531  0.5264  1.4038  0.1108
 4603TIP3    H235301   2.189   1.845   1.399  0.1757 -0.5717 -0.6554
 4604TIP3   OH235302   6.288   5.059  16.554  0.4080  0.1069 -0.5392
 4604TIP3    H135303   6.298   5.154  16.545 -0.2841  0.2792  0.3626
 4604TIP3    H235304   6.233   5.033  16.480  0.8139  0.3624 -0.9362
 4605TIP3   OH235305   5.594   5.648   5.038 -0.8246 -0.8503 -0.0323
 4605TIP3    H135306   5.650   5.571   5.033 -0.7615 -0.7491 -0.9637
 4605TIP3    H235307   5.508   5.613   5.065 -1.2241 -1.4912 -1.9428
 4606TIP3   OH235308   3.191   0.845  16.843  0.1431  0.0766 -0.1880
 4606TIP3    H135309   3.136   0.923  16.839 -0.1602 -0.1383 -0.2777
 4606TIP3    H235310   3.209   0.824  16.751  0.0122 -0.1075 -0.1710
 4607TIP3   OH235311   1.880   4.531   4.571  0.0858  0.4879  0.2651
 4607TIP3    H135312   1.952   4.586   4.541  0.3654 -0.0359 -0.0201
 4607TIP3    H235313   1.866   4.468   4.501 -1.5871  1.4553 -0.3235
 4608TIP3   OH235314   3.243   5.478   5.441  0.6556  0.6289 -0.4311
 4608TIP3    H135315   3.286   5.543   5.497  0.1322 -0.1046  0.8562
 4608TIP3    H235316   3.315   5.425   5.407  0.8704 -0.0879  1.0684
 4609TIP3   OH235317   4.274   5.666  13.129 -0.1774  0.1882  0.3791
 4609TIP3    H135318   4.232   5.698  13.050  0.2459 -0.5988 -0.1682
 4609TIP3    H235319   4.251   5.574  13.134  0.9648 -0.1125  0.3984
 4610TIP3   OH235320   3.491   2.252  13.064 -0.6528 -0.0329 -0.1671
 4610TIP3    H135321   3.541   2.174  13.038 -0.4536  0.3570 -0.9806
 4610TIP3    H235322   3.538   2.325  13.024 -2.3950  0.2730 -1.7919
 4611TIP3   OH235323   0.096   1.170   3.896  0.3992 -0.4269  0.0175
 4611TIP3    H135324   0.112   1.075   3.892  0.6107 -0.3669 -0.8001
 4611TIP3    H235325   0.025   1.180   3.959  1.1809 -1.0230  1.0183
 4612TIP3   OH235326   2.452   0.286  16.930  0.3556  0.4157 -0.4704
 4612TIP3    H135327   2.545   0.310  16.929  0.4676 -0.0074 -0.2608
 4612TIP3    H235328   2.421   0.308  16.842  0.6592  0.5367 -0.5494
 4613TIP3   OH235329   5.583   1.131   3.723  0.2536 -0.2447 -0.3923
 4613TIP3    H135330   5.633   1.155   3.801 -3.1432 -2.4912  2.8359
 4613TIP3    H235331   5.537   1.212   3.699 -0.2261  0.0328  1.3110
 4614TIP3   OH235332   4.662   5.077  16.836 -0.0125  0.2453 -0.0835
 4614TIP3    H135333   4.694   4.996  16.796  1.8094  0.3737  0.9954
 4614TIP3    H235334   4.610   5.048  16.911 -0.5672  0.0822 -0.5179
 4615TIP3   OH235335   0.187   6.647  14.814  0.6596  0.3530  0.2889
 4615TIP3    H135336   0.164   6.723  14.761  0.4628  0.2737  0.2611
 4615TIP3    H235337   0.263   6.676  14.865  2.2959 -0.2811 -1.6597
 4616TIP3   OH235338   3.576   3.818  15.414  0.2597 -0.7933  0.0865
 4616TIP3    H135339   3.494   3.866  15.406  0.6917 -0.0099  0.3023
 4616TIP3    H235340   3.553   3.727  15.395 -0.9693 -0.8494  1.6249
 4617TIP3   OH235341   3.545   0.001   4.453 -0.2970  0.1468 -0.3901
 4617TIP3    H135342   3.566   0.092   4.431 -1.4034  0.5319  0.0744
 4617TIP3    H235343   3.539  -0.043   4.368 -0.7539  0.7410 -0.6744
 4618TIP3   OH235344   0.839   4.910   1.043 -0.3629 -0.2030  0.8513
 4618TIP3    H135345   0.775   4.925   0.974  2.5173 -0.7968 -2.1987
 4618TIP3    H235346   0.897   4.987   1.040  0.8654 -1.0689  1.3250
 4619TIP3   OH235347   1.762   4.029   2.551 -0.0281 -0.5094 -0.0096
 4619TIP3    H135348   1.720   4.004   2.469  0.3444  0.5126 -0.5215
 4619TIP3    H235349   1.735   3.961   2.613  0.4530 -1.8360 -1.1929
 4620TIP3   OH235350   4.285   4.912   2.450 -0.0454  0.4495 -0.0597
 4620TIP3    H135351   4.238   4.885   2.529 -0.2428 -0.3085 -0.4259
 4620TIP3    H235352   4.256   5.002   2.434 -2.5780 -0.4521 -1.1088
 4621TIP3   OH235353   4.543   4.852   1.484  0.8749  0.0144  0.0745
 4621TIP3    H135354   4.528   4.938   1.445 -1.3939 -0.5471 -0.4406
 4621TIP3    H235355   4.457   4.810   1.484  1.3941 -1.2943  2.6971
 4622TIP3   OH235356   5.446   6.454   3.915  0.1680 -0.2021  0.3481
 4622TIP3    H135357   5.503   6.491   3.984  0.0848 -1.1034  0.9161
 4622TIP3    H235358   5.474   6.498   3.835  0.4480  0.6796  0.9157
 4623TIP3   OH235359   3.876   5.620   6.619  0.2080  0.2107 -0.3828
 4623TIP3    H135360   3.798   5.651   6.572  0.3771  0.1429 -0.7098
 4623TIP3    H235361   3.887   5.530   6.589  0.1022  0.0458  0.0674
 4624TIP3   OH235362   2.329   4.181   1.487  0.4400  0.4311  0.2896
 4624TIP3    H135363   2.323   4.114   1.555  0.2447  0.3810  0.2248
 4624TIP3    H235364   2.239   4.194   1.458  0.5583  0.2085 -0.1933
 4625TIP3   OH235365   5.039   6.821  15.202  0.2119 -0.3266  0.6210
 4625TIP3    H135366   5.083   6.769  15.135 -0.1917  0.7307 -0.5021
 4625TIP3    H235367   5.074   6.788  15.285  0.1926 -2.1372 -0.0621
 4626TIP3   OH235368   4.364   4.920  11.226 -0.6163 -0.6385  0.0345
 4626TIP3    H135369   4.441   4.964  11.262 -0.6161  0.0699 -0.7876
 4626TIP3    H235370   4.392   4.830  11.211 -0.0469 -0.4726  0.0710
 4627TIP3   OH235371   2.566   4.549  11.408  0.5861 -0.4111  0.5351
 4627TIP3    H135372   2.490   4.493  11.423  0.0835  0.3432  0.8349
 4627TIP3    H235373   2.579   4.596  11.491 -0.1839  1.3400 -0.2915
 4628TIP3   OH235374   2.890   0.752   1.147 -0.2723  0.7357 -0.5579
 4628TIP3    H135375   2.882   0.776   1.054  0.3858  1.1804 -0.5034
 4628TIP3    H235376   2.832   0.813   1.192  2.0688  2.9608 -0.3198
 4629TIP3   OH235377   1.476   6.331  12.707 -0.1925  0.0047 -0.4523
 4629TIP3    H135378   1.447   6.422  12.704 -0.1904  0.0483  0.5756
 4629TIP3    H235379   1.507   6.313  12.619  0.4185  1.2004 -0.4945
 4630TIP3   OH235380   0.967   2.958   6.566  0.1490  0.0773  0.3396
 4630TIP3    H135381   0.893   2.924   6.515  1.2320 -2.2761  0.2147
 4630TIP3    H235382   0.969   2.904   6.644  2.4695 -0.8028 -0.2416
 4631TIP3   OH235383   6.228   2.561  11.099  0.3906 -0.1750  0.8288
 4631TIP3    H135384   6.162   2.493  11.089 -0.0357  0.4595 -1.0592
 4631TIP3    H235385   6.243   2.566  11.193 -1.5084 -1.0204  1.2172
 4632TIP3   OH235386   4.896   2.710  13.263 -0.7365  0.4430 -0.3270
 4632TIP3    H135387   4.859   2.623  13.248  1.1551 -0.4232 -0.1524
 4632TIP3    H235388   4.853   2.765  13.197  2.9308 -2.0265 -5.4337
 4633TIP3   OH235389   6.800   5.690  13.814 -0.0482 -0.4087  0.4955
 4633TIP3    H135390   6.864   5.700  13.884 -2.0178 -3.0015  2.9071
 4633TIP3    H235391   6.852   5.691  13.734  2.3961  2.0026  1.9502
 4634TIP3   OH235392   1.768   4.086   4.351  0.2375  0.6389  0.0743
 4634TIP3    H135393   1.827   4.012   4.336  2.1467  2.3187 -1.4009
 4634TIP3    H235394   1.693   4.070   4.293 -0.8247 -1.4971  1.9185
 4635TIP3   OH235395   3.199   3.595   3.788 -0.2107 -0.4578 -0.7822
 4635TIP3    H135396   3.152   3.664   3.834 -1.1134 -2.0339  0.8042
 4635TIP3    H235397   3.159   3.590   3.702 -2.5310 -1.2459  0.2677
 4636TIP3   OH235398   5.052   1.414   0.061 -0.1652  0.6229 -0.8527
 4636TIP3    H135399   5.097   1.369   0.132 -2.5034  0.9123  0.9706
 4636TIP3    H235400   5.037   1.347  -0.005  0.2443 -0.1922 -0.1347
 4637TIP3   OH235401   5.655   2.882   3.072 -0.3852 -0.1697  0.4523
 4637TIP3    H135402   5.715   2.926   3.132 -0.2718  1.1147 -0.5670
 4637TIP3    H235403   5.595   2.834   3.129 -1.2014  2.1766  1.6751
 4638TIP3   OH235404   3.855   2.381  15.016 -0.2043  0.5528 -0.5407
 4638TIP3    H135405   3.788   2.378  15.085  0.9925  1.4643  0.7217
 4638TIP3    H235406   3.846   2.298  14.970 -0.1453 -0.7127  1.6105
 4639TIP3   OH235407   6.040   5.041   5.643 -0.0102  0.1244  0.9945
 4639TIP3    H135408   5.984   4.982   5.693 -0.7673  0.4413  0.5386
 4639TIP3    H235409   6.071   4.989   5.569 -0.0884  0.0874  0.9886
 4640TIP3   OH235410   5.074   1.341   1.680 -0.4816  1.0056  0.5393
 4640TIP3    H135411   5.074   1.248   1.655  0.8888  0.6910  1.5460
 4640TIP3    H235412   4.984   1.369   1.669 -1.1582 -0.7403  1.1954
 4641TIP3   OH235413   0.364   1.333   1.296  0.1537 -0.1101  0.0960
 4641TIP3    H135414   0.341   1.278   1.371 -2.6662  0.6139 -0.1146
 4641TIP3    H235415   0.325   1.288   1.221 -0.7207  1.2644 -0.3106
 4642TIP3   OH235416   4.672   5.324   1.244 -0.3043  0.2152 -0.0016
 4642TIP3    H135417   4.673   5.237   1.284  0.4787 -0.5872 -1.6582
 4642TIP3    H235418   4.631   5.310   1.158 -1.6419  1.8008  0.3333
 4643TIP3   OH235419   3.225   1.458  13.985 -0.6716 -0.4325  0.3921
 4643TIP3    H135420   3.173   1.431  13.908  1.4073 -0.7824 -0.9563
 4643TIP3    H235421   3.163   1.509  14.038 -1.5360  2.3401 -2.8810
 4644TIP3   OH235422   0.514   1.711   5.614 -0.5647  0.2909  0.6798
 4644TIP3    H135423   0.419   1.698   5.618 -0.5502  0.2622  0.9810
 4644TIP3    H235424   0.544   1.687   5.701 -0.3206  0.6489  0.6934
 4645TIP3   OH235425   0.026   5.424  12.534 -0.1624  0.3293  0.0862
 4645TIP3    H135426   0.061   5.446  12.447 -1.6638  0.3013 -0.5488
 4645TIP3    H235427  -0.001   5.333  12.526 -0.9485  0.5349  0.3729
 4646TIP3   OH235428   2.889   4.072  16.744 -0.1992 -0.4455 -0.5581
 4646TIP3    H135429   2.837   4.000  16.779 -1.1337  1.1522  1.5676
 4646TIP3    H235430   2.978   4.053  16.771 -0.1377 -1.6119 -1.4907
 4647TIP3   OH235431   2.570   4.761   0.602 -0.2944  0.1852  0.1280
 4647TIP3    H135432   2.478   4.736   0.595 -0.0217 -0.3969 -2.4072
 4647TIP3    H235433   2.573   4.851   0.570  0.0179  0.2557  0.3417
 4648TIP3   OH235434   3.786   5.214  16.277 -0.1104  0.0869 -0.1766
 4648TIP3    H135435   3.697   5.215  16.241 -1.1751 -1.7237  2.1622
 4648TIP3    H235436   3.785   5.283  16.343  0.5615  0.7123 -0.8076
 4649TIP3   OH235437   3.286   0.322  10.591 -0.1534  0.4484 -0.6470
 4649TIP3    H135438   3.212   0.381  10.574 -0.3158  1.0870  1.8470
 4649TIP3    H235439   3.291   0.318  10.686  1.0684 -2.1120 -0.7484
 4650TIP3   OH235440   5.652   6.679  13.942 -0.3431 -0.2822 -0.3989
 4650TIP3    H135441   5.696   6.671  14.027 -1.6513 -0.3528  0.3058
 4650TIP3    H235442   5.698   6.751  13.898 -0.8091  1.0385  1.1589
 4651TIP3   OH235443   4.914   5.763  16.559 -0.3102 -0.4708  0.8545
 4651TIP3    H135444   4.953   5.849  16.571 -0.2346 -0.4317  0.3468
 4651TIP3    H235445   4.862   5.749  16.638  0.7081 -0.5191  1.5310
 4652TIP3   OH235446   3.822   2.694   2.806 -0.1295  0.0556 -0.0024
 4652TIP3    H135447   3.882   2.761   2.772  0.3167 -0.1642  0.3448
 4652TIP3    H235448   3.739   2.714   2.764  0.1411  0.4757 -0.3540
 4653TIP3   OH235449   4.401   5.850   2.535 -0.1646  0.3854  0.7413
 4653TIP3    H135450   4.365   5.898   2.610  0.5733  1.9700  0.1401
 4653TIP3    H235451   4.329   5.795   2.504 -1.4728  1.9908  0.7741
 4654TIP3   OH235452   2.463   4.424   2.420 -0.3160  0.1466 -0.5518
 4654TIP3    H135453   2.464   4.413   2.325 -2.6927  0.6349 -0.6834
 4654TIP3    H235454   2.399   4.360   2.451  1.8124 -1.3953  1.0083
 4655TIP3   OH235455   1.528   3.593   5.782 -0.5424 -0.4831 -0.0056
 4655TIP3    H135456   1.484   3.643   5.851 -1.5010  0.1772 -1.0744
 4655TIP3    H235457   1.457   3.562   5.725  0.3160  0.0575 -1.4150
 4656TIP3   OH235458   3.954   3.868  13.354  0.2434  0.3354 -0.1321
 4656TIP3    H135459   4.046   3.868  13.327  1.1032  1.4366  2.5684
 4656TIP3    H235460   3.945   3.789  13.408  0.0553  1.0855  0.9495
 4657TIP3   OH235461   3.731   2.552  13.081 -0.5061  0.0929  0.3161
 4657TIP3    H135462   3.742   2.491  13.153  3.5339  0.2143  0.0033
 4657TIP3    H235463   3.713   2.496  13.005  1.0270 -0.5724  0.4154
 4658TIP3   OH235464   1.755   2.968   5.858  0.5075 -0.4393  0.2016
 4658TIP3    H135465   1.682   2.979   5.920 -0.4241  0.5597 -1.0160
 4658TIP3    H235466   1.764   2.873   5.849 -0.1605 -0.5838  0.9284
 4659TIP3   OH235467   3.733   2.632   3.286 -0.3832 -0.2483 -0.6276
 4659TIP3    H135468   3.753   2.684   3.364  2.5305 -1.2214 -0.5855
 4659TIP3    H235469   3.642   2.653   3.265 -0.7511  1.2790  2.0575
 4660TIP3   OH235470   4.423   5.099  15.023  0.1756  0.0612 -0.1228
 4660TIP3    H135471   4.438   5.010  14.991 -0.8858  0.1064 -0.8225
 4660TIP3    H235472   4.331   5.116  15.002  0.7222  1.8361 -1.3115
 4661TIP3   OH235473   3.387   1.312   4.469 -0.3634  0.5856  0.2257
 4661TIP3    H135474   3.321   1.357   4.522 -1.3170  0.8161 -1.1219
 4661TIP3    H235475   3.355   1.319   4.379  0.6701 -0.7527 -0.2747
 4662TIP3   OH235476   6.665   2.110  11.280 -0.2645  0.0038  0.3126
 4662TIP3    H135477   6.586   2.070  11.242 -0.4449  0.1169  0.5613
 4662TIP3    H235478   6.685   2.056  11.356 -0.1385  0.0134  0.2863
 4663TIP3   OH235479   5.033   1.772  13.256  0.4177  0.1746  0.0625
 4663TIP3    H135480   5.004   1.745  13.168  2.9387 -0.9416 -0.5126
 4663TIP3    H235481   4.952   1.782  13.306 -0.9882 -2.1979 -1.5388
 4664TIP3   OH235482   4.765   0.910  13.515 -0.1748  0.3903  0.0812
 4664TIP3    H135483   4.831   0.854  13.475 -0.5391  0.4415 -0.5946
 4664TIP3    H235484   4.749   0.870  13.601  0.2617  0.0094 -0.0092
 4665TIP3   OH235485   3.359   0.976   4.776  0.0694  0.3353 -0.3801
 4665TIP3    H135486   3.427   0.912   4.796 -1.2381 -1.6288 -1.9019
 4665TIP3    H235487   3.345   0.968   4.682 -2.2668  0.6352 -0.1206
 4666TIP3   OH235488   4.309   2.417  14.075 -0.1004 -0.2664  0.3668
 4666TIP3    H135489   4.256   2.490  14.108 -0.4142 -0.4982  0.3802
 4666TIP3    H235490   4.334   2.368  14.153  0.5926  0.1466  0.4104
 4667TIP3   OH235491   0.291   6.047   0.175 -0.2730  0.3999  0.5236
 4667TIP3    H135492   0.245   6.122   0.137 -1.2398 -1.0239 -1.2962
 4667TIP3    H235493   0.369   6.084   0.215  1.4400  2.0368 -3.8051
 4668TIP3   OH235494   1.623   5.800   0.240 -0.2592  0.1898  0.4881
 4668TIP3    H135495   1.690   5.736   0.263  0.0388  0.3487  0.0764
 4668TIP3    H235496   1.667   5.885   0.248  0.6824  0.1771 -3.1509
 4669TIP3   OH235497   5.203   3.339   1.034 -0.4409  0.0146  0.5687
 4669TIP3    H135498   5.266   3.375   1.097  0.0079 -0.8254  0.6152
 4669TIP3    H235499   5.218   3.390   0.954  1.1238 -0.9089  0.2238
 4670TIP3   OH235500   6.625   5.744  14.110 -0.2350 -0.1131 -0.1797
 4670TIP3    H135501   6.716   5.767  14.131  0.1609 -1.9066  0.2883
 4670TIP3    H235502   6.629   5.650  14.090 -2.0442 -0.2866  0.1367
 4671TIP3   OH235503   1.702   4.607   5.209 -0.6269 -0.7674  0.5886
 4671TIP3    H135504   1.644   4.656   5.268  0.5333  0.1560  1.0092
 4671TIP3    H235505   1.790   4.641   5.228 -0.0293 -1.5934 -0.5554
 4672TIP3   OH235506   0.389   1.725   3.578 -0.0736  0.5758  0.2509
 4672TIP3    H135507   0.436   1.644   3.598  0.2776  1.0502  1.4036
 4672TIP3    H235508   0.369   1.763   3.663  0.7435  2.2557 -0.2535
 4673TIP3   OH235509   4.633   2.505   3.959 -0.6327 -0.3257 -0.6385
 4673TIP3    H135510   4.635   2.450   4.037 -1.1179 -1.3881 -1.3607
 4673TIP3    H235511   4.713   2.557   3.964 -0.1179 -1.1647  0.0021
 4674TIP3   OH235512   1.793   1.875   3.231  0.3765 -0.2918  0.3050
 4674TIP3    H135513   1.823   1.856   3.320 -0.0662  3.1448  1.3667
 4674TIP3    H235514   1.701   1.848   3.231  0.3377 -0.1826  0.9682
 4675TIP3   OH235515   3.271   6.576   5.571  0.2928  0.2406  0.5187
 4675TIP3    H135516   3.362   6.607   5.568  0.3504  0.1074  0.8186
 4675TIP3    H235517   3.226   6.628   5.505  1.0979 -1.4263 -1.4355
 4676TIP3   OH235518   6.487   1.702  13.439 -0.3486 -0.1368 -0.3947
 4676TIP3    H135519   6.528   1.719  13.523  1.6227 -0.9003 -1.1329
 4676TIP3    H235520   6.503   1.609  13.422 -0.2309  0.1186 -1.8412
 4677TIP3   OH235521   1.599   0.738  15.014 -0.5446  0.4708 -0.1326
 4677TIP3    H135522   1.568   0.677  14.947  0.3591 -0.0984 -0.0553
 4677TIP3    H235523   1.630   0.814  14.966  0.2854 -0.0181 -0.4034
 4678TIP3   OH235524   1.238   6.238  16.037 -0.5559 -0.1329 -0.8753
 4678TIP3    H135525   1.253   6.203  16.124 -0.6021 -0.3654 -0.9617
 4678TIP3    H235526   1.319   6.221  15.989 -0.2815  0.5837 -0.6870
 4679TIP3   OH235527   2.057   3.150  16.394 -0.2376 -0.3558  0.0082
 4679TIP3    H135528   2.045   3.066  16.439 -1.8706 -1.0484 -1.5967
 4679TIP3    H235529   1.996   3.209  16.436  0.0544 -0.2960  0.3515
 4680TIP3   OH235530   4.469   3.207   0.518  0.0726  0.5006  0.5055
 4680TIP3    H135531   4.512   3.243   0.596  0.5751  0.3618  0.3018
 4680TIP3    H235532   4.382   3.181   0.548  1.0592 -1.8130  1.6305
 4681TIP3   OH235533   3.281   6.304   3.182  0.3004  0.2116 -0.3816
 4681TIP3    H135534   3.275   6.381   3.239 -0.9223 -0.1915  0.0589
 4681TIP3    H235535   3.331   6.240   3.232  2.0527  0.9842 -1.0803
 4682TIP3   OH235536   2.118   1.708  15.345  0.1785 -0.2638 -0.8497
 4682TIP3    H135537   2.142   1.800  15.329  1.4741 -0.5143 -0.4633
 4682TIP3    H235538   2.197   1.669  15.383 -0.9924 -1.0538  0.8998
 4683TIP3   OH235539   3.473   0.440  16.381 -0.0261 -0.3182  0.1614
 4683TIP3    H135540   3.552   0.494  16.375  0.9340 -1.5710  0.9273
 4683TIP3    H235541   3.416   0.488  16.441  0.7999 -0.1308  0.8192
 4684TIP3   OH235542   2.085   5.738  14.322 -0.0022 -0.1988 -0.0796
 4684TIP3    H135543   2.014   5.779  14.272 -0.3845 -0.6470  0.0937
 4684TIP3    H235544   2.042   5.670  14.374  0.3805  0.2761  0.8805
 4685TIP3   OH235545   5.068   1.567   5.922 -0.2580 -0.0407 -0.6697
 4685TIP3    H135546   5.033   1.483   5.892  0.2056 -1.2882  2.0343
 4685TIP3    H235547   5.138   1.544   5.983 -0.1079  2.3209  0.1516
 4686TIP3   OH235548   1.281   0.655   4.696 -0.0604  0.0352  0.0167
 4686TIP3    H135549   1.363   0.701   4.714 -1.0612  1.3924  1.2741
 4686TIP3    H235550   1.254   0.686   4.610  0.9941 -0.8553 -0.6700
 4687TIP3   OH235551   3.419   3.984   7.470 -0.3001  0.7330 -0.3203
 4687TIP3    H135552   3.378   4.039   7.403 -2.8211 -0.1862  0.3851
 4687TIP3    H235553   3.376   3.899   7.461  1.5983 -0.3703  0.4096
 4688TIP3   OH235554   6.840   4.917  14.975  0.2217 -0.3857 -0.3611
 4688TIP3    H135555   6.861   4.914  14.882 -1.2185  0.0225 -0.7357
 4688TIP3    H235556   6.854   4.827  15.006 -0.4014 -0.8038 -1.2487
 4689TIP3   OH235557   2.281   4.770  11.085 -0.0236 -0.0548 -0.1090
 4689TIP3    H135558   2.266   4.678  11.104 -0.5676 -0.0659 -0.5665
 4689TIP3    H235559   2.205   4.796  11.033 -0.2797  0.8592  0.6886
 4690TIP3   OH235560   5.155   4.137   4.768 -0.1253 -0.0874  0.3632
 4690TIP3    H135561   5.222   4.182   4.819  0.1252  3.0556 -2.3899
 4690TIP3    H235562   5.203   4.093   4.698 -0.7936  1.0573 -0.8495
 4691TIP3   OH235563   3.295   3.539  13.065  0.0601  0.2144 -0.3283
 4691TIP3    H135564   3.255   3.560  12.980 -1.1087  1.5219  0.4966
 4691TIP3    H235565   3.383   3.509  13.044 -0.6013 -0.6483 -2.0801
 4692TIP3   OH235566   2.421   6.606   6.485 -0.8817 -0.1061  0.5293
 4692TIP3    H135567   2.484   6.656   6.434  0.0714 -1.9372 -0.1834
 4692TIP3    H235568   2.466   6.586   6.567 -1.1208 -0.1028  0.6640
 4693TIP3   OH235569   5.155   3.797   4.682 -0.2868 -0.0238  0.8064
 4693TIP3    H135570   5.066   3.769   4.701 -0.2980 -0.2733  0.3895
 4693TIP3    H235571   5.146   3.867   4.617 -0.1863  0.0389  0.8592
 4694TIP3   OH235572   3.859   1.550  12.355 -0.2496  0.0330 -0.4514
 4694TIP3    H135573   3.817   1.511  12.432 -1.9888  3.0523  0.2959
 4694TIP3    H235574   3.839   1.490  12.284 -1.5477 -1.1555  0.8488
 4695TIP3   OH235575   5.369   1.391  14.887 -0.0874  0.0444 -0.3153
 4695TIP3    H135576   5.294   1.422  14.837 -0.5137 -1.1518 -0.4562
 4695TIP3    H235577   5.399   1.468  14.936 -1.5255  0.4994 -0.1102
 4696TIP3   OH235578   3.126   2.972   2.028 -0.0759  0.1255 -0.0130
 4696TIP3    H135579   3.137   2.881   2.002  1.0199  0.4152 -0.6061
 4696TIP3    H235580   3.070   3.010   1.960 -2.1149 -0.5177  1.2074
 4697TIP3   OH235581   3.356   6.207   4.137  0.2401  0.1660 -0.4900
 4697TIP3    H135582   3.399   6.256   4.066 -1.8314  1.3483 -0.9986
 4697TIP3    H235583   3.292   6.151   4.092  0.3350 -0.6158  0.3310
 4698TIP3   OH235584   3.004   3.360   5.933  0.1591 -0.1030  0.0289
 4698TIP3    H135585   2.977   3.385   6.021 -1.5517  2.3657 -1.0755
 4698TIP3    H235586   2.923   3.332   5.889  0.1954  2.2242 -1.7555
 4699TIP3   OH235587   6.520   4.518  13.701 -0.6214  0.1860 -0.0045
 4699TIP3    H135588   6.456   4.549  13.636 -1.1010 -0.1327  0.3063
 4699TIP3    H235589   6.558   4.598  13.736  0.1414  0.3490 -1.1593
 4700TIP3   OH235590   2.282   2.139   3.107  0.1181 -0.0038  0.1571
 4700TIP3    H135591   2.256   2.178   3.024 -1.0722 -0.3004  0.3670
 4700TIP3    H235592   2.228   2.184   3.172  1.1762  0.3644  0.8036
 4701TIP3   OH235593   5.150   4.997  13.114  0.3701  0.8426  0.6518
 4701TIP3    H135594   5.064   4.967  13.144  0.4094  1.6529  1.6389
 4701TIP3    H235595   5.212   4.939  13.158  0.3655  0.9746  0.8340
 4702TIP3   OH235596   5.974   1.581   0.265  0.3363  1.1522  0.4663
 4702TIP3    H135597   5.957   1.491   0.236 -2.4803  1.7673 -0.0445
 4702TIP3    H235598   6.052   1.607   0.216 -1.0259  0.2560 -2.3843
 4703TIP3   OH235599   4.386   0.728   2.702 -0.3123 -0.1095 -0.5586
 4703TIP3    H135600   4.448   0.656   2.692 -0.3076  0.1513 -2.9692
 4703TIP3    H235601   4.412   0.791   2.635 -2.1868  0.7506 -0.5223
 4704TIP3   OH235602   2.680   2.535   3.732 -0.8036 -0.0239  0.1510
 4704TIP3    H135603   2.736   2.484   3.674 -1.3655  1.1922 -1.5426
 4704TIP3    H235604   2.659   2.614   3.682 -2.0708  0.6648  1.6746
 4705TIP3   OH235605   6.301   0.969  16.555 -0.5461 -0.5705 -0.5023
 4705TIP3    H135606   6.346   0.944  16.635 -0.4182 -0.1548 -0.4380
 4705TIP3    H235607   6.218   0.922  16.557 -0.8902  0.0352  0.2626
 4706TIP3   OH235608   5.370   0.144  13.447 -0.5245 -0.0118  0.3120
 4706TIP3    H135609   5.413   0.062  13.471 -1.1650 -1.3448 -2.5958
 4706TIP3    H235610   5.421   0.178  13.373 -2.5967 -0.0900 -1.2821
 4707TIP3   OH235611   0.304   1.216   1.542 -0.6026  0.2579 -0.2821
 4707TIP3    H135612   0.230   1.254   1.589 -1.2785 -1.4170  0.0996
 4707TIP3    H235613   0.373   1.209   1.607 -0.2143  1.4812 -0.5440
 4708TIP3   OH235614   3.767   4.801  14.867 -0.2125 -0.4898 -0.1483
 4708TIP3    H135615   3.803   4.725  14.821  0.5982 -0.9188  1.1374
 4708TIP3    H235616   3.774   4.779  14.960 -0.4377  0.9416  0.2392
 4709TIP3   OH235617   2.199   3.747   3.669 -0.4587  1.1451  0.2563
 4709TIP3    H135618   2.187   3.842   3.669 -0.3507  1.1597 -0.1716
 4709TIP3    H235619   2.290   3.734   3.643 -1.4192  0.8302 -3.4797
 4710TIP3   OH235620   3.753   6.178  16.335 -0.3982  0.0337  0.0393
 4710TIP3    H135621   3.718   6.263  16.362 -0.2279  0.3880 -0.8325
 4710TIP3    H235622   3.685   6.141  16.278 -1.0789 -1.0313  1.4790
 4711TIP3   OH235623   1.964   3.874   4.307 -0.6335  0.3677 -0.2799
 4711TIP3    H135624   1.971   3.865   4.402  1.7713 -1.7269 -0.5523
 4711TIP3    H235625   1.904   3.804   4.281 -0.7764  0.5227 -0.3707
 4712TIP3   OH235626   4.612   3.089   4.549 -0.1559  0.5275 -0.2950
 4712TIP3    H135627   4.581   3.165   4.500  0.6022  0.1660 -1.3687
 4712TIP3    H235628   4.647   3.029   4.483  2.2920  0.6627  0.7544
 4713TIP3   OH235629   3.110   6.801  13.964 -0.5280  0.5622 -0.0109
 4713TIP3    H135630   3.075   6.791  14.052  0.3624 -0.0595  0.2901
 4713TIP3    H235631   3.205   6.804  13.977 -0.4473  3.1294 -0.6999
 4714TIP3   OH235632   3.314   2.525   2.406 -0.0006  0.0383  0.3339
 4714TIP3    H135633   3.261   2.605   2.402  1.5026  1.1188  0.7954
 4714TIP3    H235634   3.319   2.505   2.500 -0.6828 -0.8347  0.1924
 4715TIP3   OH235635   3.360   0.102   3.581  0.5475  0.1664  0.4930
 4715TIP3    H135636   3.312   0.175   3.542  0.3036  0.9523  2.1722
 4715TIP3    H235637   3.294   0.053   3.630  0.8088 -0.8959 -0.1898
 4716TIP3   OH235638   3.371   4.770  12.104 -0.5655 -0.0991  0.3486
 4716TIP3    H135639   3.350   4.795  12.013 -1.6594  1.5354  0.9996
 4716TIP3    H235640   3.465   4.789  12.112 -0.5458  0.1376 -0.3391
 4717TIP3   OH235641   5.032   1.416   4.572 -0.0772 -0.2537  0.3289
 4717TIP3    H135642   4.948   1.399   4.530  1.3261 -0.9062 -2.4357
 4717TIP3    H235643   5.067   1.329   4.592 -0.0665  0.0111  1.5316
 4718TIP3   OH235644   4.715   5.350  15.761  0.1143  0.0878 -0.3519
 4718TIP3    H135645   4.623   5.354  15.788  0.2115 -2.7727  0.7867
 4718TIP3    H235646   4.725   5.420  15.697 -2.5219  1.2771  0.4135
 4719TIP3   OH235647   1.794   6.620   4.299  0.5590  0.0983 -0.2495
 4719TIP3    H135648   1.830   6.675   4.369  1.3769  0.9237 -1.2861
 4719TIP3    H235649   1.856   6.548   4.292 -0.5634 -1.0706  1.1747
 4720TIP3   OH235650   5.170   2.211  13.879 -0.1108 -0.6995  0.1583
 4720TIP3    H135651   5.211   2.222  13.793  0.4549 -0.7122  0.4239
 4720TIP3    H235652   5.241   2.182  13.936 -0.2935  0.1148  0.8238
 4721TIP3   OH235653   2.061   4.773  12.205 -0.3250 -0.6320  0.1329
 4721TIP3    H135654   2.078   4.778  12.111  0.4254 -3.7477 -0.0109
 4721TIP3    H235655   2.146   4.791  12.245 -0.5297  0.1888  0.2109
 4722TIP3   OH235656   3.040   0.426  14.082  0.1045  0.0705  0.0771
 4722TIP3    H135657   3.060   0.484  14.155  0.4485 -0.3873  0.3503
 4722TIP3    H235658   3.060   0.338  14.114  0.9810 -0.0674 -0.8151
 4723TIP3   OH235659   4.003   0.179  12.084 -0.6357  0.2457 -0.1354
 4723TIP3    H135660   3.914   0.173  12.119 -0.4024 -0.1108  0.4116
 4723TIP3    H235661   4.034   0.265  12.112 -0.3876 -0.1074  0.7061
 4724TIP3   OH235662   3.768   3.953  13.186 -0.5802 -0.5843 -0.5621
 4724TIP3    H135663   3.682   3.944  13.227 -0.6090 -1.5365 -0.8090
 4724TIP3    H235664   3.830   3.925  13.253 -0.3625  0.9991 -0.0483
 4725TIP3   OH235665   5.969   6.242   0.195  0.1703 -0.3534  0.2665
 4725TIP3    H135666   6.015   6.293   0.262  0.3532  0.0009 -0.1212
 4725TIP3    H235667   5.968   6.153   0.229  0.3930 -0.2049  0.6721
 4726TIP3   OH235668   4.933   0.521   6.177 -0.0563  0.1690 -0.0774
 4726TIP3    H135669   4.934   0.605   6.223 -0.6337  0.5534 -0.7378
 4726TIP3    H235670   4.863   0.471   6.220 -0.5372  0.4939 -0.4805
 4727TIP3   OH235671   4.050   2.479  13.035 -0.4287  0.9170  0.0192
 4727TIP3    H135672   4.048   2.439  12.948  1.5467 -0.5624  0.5708
 4727TIP3    H235673   4.094   2.563  13.022 -1.2938  1.2845 -0.5916
 4728TIP3   OH235674   1.407   1.220  16.904  1.2895 -0.7314 -0.5448
 4728TIP3    H135675   1.401   1.151  16.970  2.1238 -0.9481 -0.6917
 4728TIP3    H235676   1.322   1.219  16.860  0.6745 -0.5093  0.5947
 4729TIP3   OH235677   1.713   6.641  13.082 -0.2294  0.1718  0.0450
 4729TIP3    H135678   1.784   6.615  13.141 -0.0947  0.1153 -0.1378
 4729TIP3    H235679   1.664   6.560  13.068  0.6876 -0.1976 -1.1991
 4730TIP3   OH235680   3.841   3.468   2.809 -0.2747  0.6596  0.1596
 4730TIP3    H135681   3.915   3.476   2.870 -0.0618  1.6443 -0.2104
 4730TIP3    H235682   3.770   3.515   2.851  0.5561  3.5315 -1.3650
 4731TIP3   OH235683   6.114   5.820   5.654  0.5719  0.0824  0.6604
 4731TIP3    H135684   6.207   5.812   5.631  0.0877 -1.8797 -0.9788
 4731TIP3    H235685   6.104   5.763   5.730  0.6940  0.3184  0.8574
 4732TIP3   OH235686   1.378   4.891  11.230  0.3326  0.3242 -0.6191
 4732TIP3    H135687   1.388   4.971  11.282  0.0620  0.5442 -0.8978
 4732TIP3    H235688   1.363   4.922  11.141 -1.1177  0.0085 -0.5132
 4733TIP3   OH235689   4.891   3.909   2.963 -0.0765  0.4281  0.2562
 4733TIP3    H135690   4.946   3.833   2.946 -0.9325 -0.6410  1.9785
 4733TIP3    H235691   4.864   3.900   3.055 -1.4841  1.9629  0.0532
 4734TIP3   OH235692   6.333   1.816   0.476 -0.2669 -0.0797 -0.1495
 4734TIP3    H135693   6.376   1.781   0.398 -2.1632 -2.6716 -0.1832
 4734TIP3    H235694   6.280   1.743   0.508  1.1474  0.5384  4.1671
 4735TIP3   OH235695   3.204   2.624   0.104 -0.3879 -0.2462 -0.3349
 4735TIP3    H135696   3.159   2.698   0.062  0.4140  0.4484  0.0022
 4735TIP3    H235697   3.232   2.569   0.031 -1.3386 -0.4244 -0.5721
 4736TIP3   OH235698   5.677   5.470   1.415  0.3239 -0.2304  0.0821
 4736TIP3    H135699   5.670   5.510   1.502 -0.8177 -1.2974  0.5136
 4736TIP3    H235700   5.754   5.511   1.376  0.6177  0.5739  1.4327
 4737TIP3   OH235701   0.534   4.872   5.531  0.2330  0.7412  0.4673
 4737TIP3    H135702   0.628   4.861   5.520  0.2129 -1.0318  1.6346
 4737TIP3    H235703   0.525   4.956   5.577  1.2725  0.7940  0.6005
 4738TIP3   OH235704   2.604   2.033   4.159  0.0285 -0.0281  0.6796
 4738TIP3    H135705   2.691   2.057   4.126  0.9764  1.7322  3.9545
 4738TIP3    H235706   2.549   2.108   4.140 -0.4994 -0.6731 -0.3881
 4739TIP3   OH235707   2.341   2.512  14.269 -0.0715 -0.0295 -0.5233
 4739TIP3    H135708   2.276   2.566  14.313 -1.3293 -0.0363 -2.2949
 4739TIP3    H235709   2.315   2.422  14.289 -0.9352 -0.0426 -1.6374
 4740TIP3   OH235710   1.782   3.460  13.025 -0.4089 -0.4681  0.5080
 4740TIP3    H135711   1.770   3.487  13.116 -1.1632  0.0401  0.2642
 4740TIP3    H235712   1.777   3.365  13.027  2.9793 -0.7797  1.4861
 4741TIP3   OH235713   4.823   3.054   6.369 -0.3447  0.2264  0.0058
 4741TIP3    H135714   4.855   3.144   6.367  0.4632 -0.0592 -0.6206
 4741TIP3    H235715   4.879   3.010   6.434 -1.8617  0.5634  1.6013
 4742TIP3   OH235716   0.749   0.967  12.027 -0.7856 -0.4976  0.3019
 4742TIP3    H135717   0.700   1.040  11.991 -0.2420 -0.6554 -0.8012
 4742TIP3    H235718   0.749   0.901  11.957  1.0729 -0.4631  0.2253
 4743TIP3   OH235719   4.014   3.655  11.934  0.6881  0.0475 -0.0411
 4743TIP3    H135720   3.946   3.610  11.883  0.3264  0.6231 -0.0819
 4743TIP3    H235721   3.988   3.641  12.025  1.6247 -1.4325  0.0314
 4744TIP3   OH235722   4.468   3.248  12.452  0.6039  0.3571  0.8191
 4744TIP3    H135723   4.456   3.160  12.487 -0.3655 -0.8051 -2.0984
 4744TIP3    H235724   4.414   3.250  12.373  2.7482  2.6174 -0.7472
 4745TIP3   OH235725   2.873   0.488  15.965 -0.1505 -0.3565 -0.2916
 4745TIP3    H135726   2.953   0.542  15.967 -0.2676 -0.1869 -0.2009
 4745TIP3    H235727   2.903   0.404  15.931  0.0923 -0.3315 -0.1509
 4746TIP3   OH235728   2.407   3.411   4.330 -0.5251 -0.1123  0.2027
 4746TIP3    H135729   2.411   3.496   4.285  3.0632  0.0964  0.6524
 4746TIP3    H235730   2.387   3.433   4.421 -2.5127 -0.0894 -0.1886
 4747TIP3   OH235731   0.264   5.454  16.669  0.2291  0.6555 -0.0860
 4747TIP3    H135732   0.298   5.444  16.758 -1.7793  2.0342  0.9297
 4747TIP3    H235733   0.176   5.417  16.672  0.0256  0.9532 -1.4401
 4748TIP3   OH235734   0.211   6.281   4.150  0.5660 -0.2010 -0.4947
 4748TIP3    H135735   0.288   6.289   4.094  0.8359  2.8288  0.1355
 4748TIP3    H235736   0.144   6.334   4.107  0.2314  0.7661  1.1311
 4749TIP3   OH235737   1.780   2.667   3.414 -0.1707 -0.0731  0.2349
 4749TIP3    H135738   1.804   2.592   3.359  0.3961  0.5864 -0.4392
 4749TIP3    H235739   1.722   2.630   3.480 -0.0446 -1.0778 -0.1905
 4750TIP3   OH235740   6.479   0.373  11.267 -0.1916  0.2803 -0.0489
 4750TIP3    H135741   6.568   0.377  11.302 -0.0552 -0.0225 -0.3549
 4750TIP3    H235742   6.479   0.438  11.197  0.7902 -1.9308 -2.2551
 4751TIP3   OH235743   2.315   4.612  15.158 -0.2315 -0.2439  0.3592
 4751TIP3    H135744   2.407   4.588  15.171  0.5847  2.9937  1.2309
 4751TIP3    H235745   2.290   4.657  15.238 -1.8114  1.1353 -0.8476
 4752TIP3   OH235746   1.911   3.916   2.202 -0.1042  0.5223  0.8685
 4752TIP3    H135747   1.960   3.889   2.280  1.5951 -3.3117 -1.2291
 4752TIP3    H235748   1.978   3.927   2.134 -1.6185  2.7161 -0.3993
 4753TIP3   OH235749   1.756   3.826   2.747 -0.3569 -0.3171  0.3006
 4753TIP3    H135750   1.748   3.810   2.841  1.4286  0.9690  0.7382
 4753TIP3    H235751   1.808   3.753   2.714  0.6480  0.1881  0.7082
 4754TIP3   OH235752   0.263   4.813  10.389  0.1304 -0.4801  0.2607
 4754TIP3    H135753   0.294   4.729  10.356  0.1126 -0.4726  0.2252
 4754TIP3    H235754   0.178   4.794  10.427 -0.2362 -0.3250 -0.4747
 4755TIP3   OH235755   2.711   4.787  10.932  0.8251 -0.4167  0.0026
 4755TIP3    H135756   2.724   4.785  11.027 -1.2371  0.5097  0.3496
 4755TIP3    H235757   2.679   4.700  10.909 -0.3341 -0.1239  0.4543
 4756TIP3   OH235758   4.124   0.381  13.246 -0.0841 -0.1268 -0.4688
 4756TIP3    H135759   4.147   0.294  13.212  1.7063  0.0374  0.2135
 4756TIP3    H235760   4.208   0.421  13.269 -0.8881  1.7360 -0.6058
 4757TIP3   OH235761   5.855   0.350  12.497 -0.6434  0.6999 -0.0214
 4757TIP3    H135762   5.824   0.270  12.541 -1.4328  1.3476  0.6309
 4757TIP3    H235763   5.784   0.373  12.437 -0.7714  1.3610  0.3827
 4758TIP3   OH235764   4.668   5.225   0.254 -0.1163 -0.4393  0.0890
 4758TIP3    H135765   4.745   5.261   0.298 -0.7534  0.8503  0.1669
 4758TIP3    H235766   4.621   5.301   0.221 -0.7176 -1.2789 -1.0553
 4759TIP3   OH235767   2.172   5.388   4.455 -0.7175  0.0423  0.1056
 4759TIP3    H135768   2.251   5.338   4.433  0.3062  0.8901  1.6784
 4759TIP3    H235769   2.179   5.468   4.402 -0.6575  0.0027  0.0528
 4760TIP3   OH235770   5.514   4.250   0.318 -0.0721  0.4803 -0.0734
 4760TIP3    H135771   5.490   4.313   0.251 -0.6760 -0.8413 -1.1541
 4760TIP3    H235772   5.514   4.300   0.400 -1.0802  1.7391 -0.8071
 4761TIP3   OH235773   4.069   0.591   1.720 -0.2055 -0.7915 -0.0393
 4761TIP3    H135774   4.016   0.553   1.650 -1.1374 -0.5867  0.5444
 4761TIP3    H235775   4.101   0.516   1.770  1.5020 -1.0220 -1.3810
 4762TIP3   OH235776   5.649   5.927  11.406 -0.4229 -0.6634  0.3204
 4762TIP3    H135777   5.567   5.933  11.454  0.1102  0.6119  1.1167
 4762TIP3    H235778   5.696   6.008  11.427  0.6817 -0.9750 -0.7834
 4763TIP3   OH235779   2.798   1.849   0.164 -0.2664  0.3372  0.5962
 4763TIP3    H135780   2.838   1.770   0.128  0.7595  1.0301  0.2034
 4763TIP3    H235781   2.708   1.822   0.186  0.3411 -1.1921  1.3537
 4764TIP3   OH235782   0.470   1.964   1.063 -0.3565 -0.0353  0.4294
 4764TIP3    H135783   0.527   2.003   0.996 -0.6858  0.0126  0.1730
 4764TIP3    H235784   0.524   1.962   1.142 -0.0379  0.1182  0.2199
 4765TIP3   OH235785   5.300   1.474   1.790  0.3033 -0.0343 -0.1043
 4765TIP3    H135786   5.246   1.540   1.835 -0.1212 -0.3089 -0.2103
 4765TIP3    H235787   5.237   1.408   1.761  0.8971 -1.2753  1.3460
 4766TIP3   OH235788   2.611   0.526   0.247  0.7553 -0.4667 -0.1674
 4766TIP3    H135789   2.654   0.449   0.210 -1.0977 -1.2124 -0.9094
 4766TIP3    H235790   2.582   0.498   0.334  0.0861 -0.6226 -0.4349
 4767TIP3   OH235791   1.265   6.056  16.867 -0.3098 -0.1278 -0.5621
 4767TIP3    H135792   1.296   6.065  16.957 -2.9552 -0.6192  0.4945
 4767TIP3    H235793   1.205   6.130  16.855  1.2706  0.9062 -2.5588
 4768TIP3   OH235794   3.965   5.124   4.748 -0.3503 -0.0898  0.5113
 4768TIP3    H135795   4.021   5.146   4.674  0.2805 -1.6053  0.5059
 4768TIP3    H235796   3.876   5.136   4.715 -0.0693 -0.0223 -0.2455
 4769TIP3   OH235797   0.086   0.137   3.424  0.0549 -0.2938  0.0976
 4769TIP3    H135798   0.059   0.067   3.483  1.2397 -0.5981  0.3123
 4769TIP3    H235799   0.179   0.149   3.443  1.1179 -1.9946 -3.2499
 4770TIP3   OH235800   2.380   0.467   1.542 -0.1326  0.1630 -0.1853
 4770TIP3    H135801   2.359   0.385   1.586 -0.9306  0.7624  0.5841
 4770TIP3    H235802   2.410   0.525   1.611  0.5379  0.4922 -0.7410
 4771TIP3   OH235803   1.964   4.721  11.779 -0.5707  0.5910  0.4518
 4771TIP3    H135804   1.910   4.668  11.838 -0.7870  0.6564  0.3107
 4771TIP3    H235805   1.918   4.720  11.696 -1.0536  1.7509  0.6861
 4772TIP3   OH235806   0.985   4.358   5.899 -0.0834  0.3936  0.0029
 4772TIP3    H135807   1.045   4.433   5.907 -0.4779  0.6154  1.0010
 4772TIP3    H235808   0.908   4.383   5.950 -0.1136 -0.8011  0.5772
 4773TIP3   OH235809   3.264   2.601   3.627  0.3239  0.2478 -0.6436
 4773TIP3    H135810   3.315   2.682   3.627  1.8197 -0.5909  1.5495
 4773TIP3    H235811   3.329   2.532   3.629 -0.8987 -0.9343  0.4523
 4774TIP3   OH235812   1.329   4.796   5.790 -0.4609 -0.8799  0.6983
 4774TIP3    H135813   1.410   4.767   5.833  2.0285  1.6113 -1.8667
 4774TIP3    H235814   1.338   4.766   5.700 -0.6534  2.2372 -0.4832
 4775TIP3   OH235815   4.191   0.945   2.512 -0.1169 -0.4309 -0.2192
 4775TIP3    H135816   4.152   0.978   2.430 -0.5284 -1.2253 -0.3519
 4775TIP3    H235817   4.285   0.941   2.494 -0.0863  0.3869 -0.2946
 4776TIP3   OH235818   4.171   3.438  15.182  0.1571  0.2627 -0.4983
 4776TIP3    H135819   4.159   3.533  15.186 -0.0060  0.2181  0.4704
 4776TIP3    H235820   4.087   3.405  15.150 -0.8289  0.2757  1.8687
 4777TIP3   OH235821   6.533   4.430  11.367 -0.0846  0.6706  0.1931
 4777TIP3    H135822   6.449   4.476  11.371  0.0161  0.7820  1.3197
 4777TIP3    H235823   6.552   4.406  11.458  1.1865  0.8192 -0.0078
 4778TIP3   OH235824   1.147   1.786  11.900  0.1032 -0.5300 -0.1821
 4778TIP3    H135825   1.202   1.826  11.967 -1.6479 -0.3002  1.2232
 4778TIP3    H235826   1.205   1.728  11.851  1.6912  0.2004  0.7655
 4779TIP3   OH235827   3.944   5.366   6.535 -0.4255 -0.0093 -0.0734
 4779TIP3    H135828   3.960   5.273   6.553 -1.2684  0.0490  1.0542
 4779TIP3    H235829   4.005   5.387   6.464 -0.5172 -1.5289 -0.6415
 4780TIP3   OH235830   1.802   3.582  15.695  0.1311 -0.0986 -0.2482
 4780TIP3    H135831   1.875   3.534  15.735 -0.8311 -0.9523  0.5120
 4780TIP3    H235832   1.820   3.577  15.601  2.3324  1.7809 -0.0214
 4781TIP3   OH235833   4.275   1.728  11.176  0.1288  0.3080  0.3237
 4781TIP3    H135834   4.266   1.790  11.104 -0.1556 -0.6413 -0.4745
 4781TIP3    H235835   4.300   1.645  11.134 -1.4515 -0.6449  1.1455
 4782TIP3   OH235836   3.551   3.315   0.609 -0.7368 -0.3920 -0.0906
 4782TIP3    H135837   3.603   3.389   0.639  0.1843 -1.5527  1.3686
 4782TIP3    H235838   3.490   3.299   0.680 -1.8320 -0.2222 -0.9752
 4783TIP3   OH235839   5.378   5.802  10.526  0.2402 -0.3278 -0.1721
 4783TIP3    H135840   5.400   5.790  10.433 -0.0901 -2.1054 -0.0550
 4783TIP3    H235841   5.425   5.881  10.552  0.0994  0.3851 -1.9219
 4784TIP3   OH235842   5.653   6.058  10.838  0.2677  0.1466 -0.0651
 4784TIP3    H135843   5.724   5.996  10.821  1.5732  0.1861  4.1396
 4784TIP3    H235844   5.697   6.137  10.871 -1.5040 -0.3419  4.1074
 4785TIP3   OH235845   0.762   6.346   2.541  0.4094  0.4873  0.0985
 4785TIP3    H135846   0.844   6.297   2.554  0.4982  0.7555  0.5664
 4785TIP3    H235847   0.786   6.437   2.556  0.0593  0.5863  0.0651
 4786TIP3   OH235848   0.234   0.601   2.301 -0.2645 -0.2517 -0.1461
 4786TIP3    H135849   0.245   0.507   2.285 -0.7597  0.0364 -2.6144
 4786TIP3    H235850   0.317   0.628   2.340  1.3153 -1.1218 -2.6669
 4787TIP3   OH235851   2.152   1.520   0.013  0.1237 -0.2948  0.2752
 4787TIP3    H135852   2.191   1.552   0.094 -1.5092  0.6011  0.7472
 4787TIP3    H235853   2.081   1.581  -0.005  0.1726 -0.7356 -1.6088
 4788TIP3   OH235854   0.631   2.198  14.789  0.2187  0.3936  0.5749
 4788TIP3    H135855   0.624   2.109  14.822 -2.2887  1.4494  3.3885
 4788TIP3    H235856   0.725   2.218  14.790  0.6900 -1.6630  1.4002
 4789TIP3   OH235857   1.430   3.766   2.514 -0.3457  0.0827 -0.7557
 4789TIP3    H135858   1.357   3.708   2.492 -0.1036  0.1695 -1.8744
 4789TIP3    H235859   1.507   3.723   2.476 -0.0412  0.7111 -0.8711
 4790TIP3   OH235860   0.211   2.502   1.309  0.6850 -0.1398 -0.5564
 4790TIP3    H135861   0.268   2.486   1.384  0.4925 -1.1269 -0.6014
 4790TIP3    H235862   0.257   2.569   1.258  1.5911 -0.5920 -0.3642
 4791TIP3   OH235863   4.968   6.146   6.718 -0.2141  0.0563  0.2045
 4791TIP3    H135864   4.895   6.208   6.723  0.1162  0.5842 -1.0967
 4791TIP3    H235865   4.941   6.072   6.772 -1.9468  0.0016 -0.6885
 4792TIP3   OH235866   1.461   0.615   5.754 -0.4790  0.1250  0.6395
 4792TIP3    H135867   1.547   0.635   5.717 -0.4111 -1.2324  0.0048
 4792TIP3    H235868   1.444   0.686   5.815  0.2130  1.4813 -0.6813
 4793TIP3   OH235869   4.615   5.069   5.953 -0.0206  0.5575 -0.6091
 4793TIP3    H135870   4.564   5.009   5.898  0.7581 -2.3199  1.5507
 4793TIP3    H235871   4.552   5.102   6.017  0.2790 -1.4046  0.7997
 4794TIP3   OH235872   1.205   0.450  12.044  0.3922  0.3099 -0.0807
 4794TIP3    H135873   1.129   0.498  12.010  0.7385  0.3755 -0.7852
 4794TIP3    H235874   1.250   0.513  12.101 -1.0885 -0.3127  1.8754
 4795TIP3   OH235875   4.395   1.030   3.682 -0.3423 -0.3060  0.8475
 4795TIP3    H135876   4.480   1.057   3.716  1.3209 -3.0990 -0.7471
 4795TIP3    H235877   4.384   0.941   3.713 -1.5647 -0.8172 -0.8980
 4796TIP3   OH235878   2.713   5.419  15.586 -0.5732  0.2451 -0.4361
 4796TIP3    H135879   2.653   5.397  15.657 -0.5990 -0.6457 -0.7121
 4796TIP3    H235880   2.755   5.335  15.564  0.3160  0.7335 -0.6644
 4797TIP3   OH235881   3.102   1.697   1.739  0.2120 -0.1208 -0.1994
 4797TIP3    H135882   3.017   1.695   1.783  0.3711  1.2648  0.2041
 4797TIP3    H235883   3.165   1.710   1.810  0.6447  0.1406 -0.6275
 4798TIP3   OH235884   6.209   0.045   5.426 -0.2366 -0.2329  0.5601
 4798TIP3    H135885   6.289   0.094   5.404 -0.0837 -1.2137 -1.2141
 4798TIP3    H235886   6.139   0.110   5.419 -0.1399 -0.3275 -2.5584
 4799TIP3   OH235887   2.373   0.888   0.306 -0.5484  0.1209  0.0508
 4799TIP3    H135888   2.459   0.857   0.334 -0.9220  0.2334  1.3558
 4799TIP3    H235889   2.374   0.982   0.324 -1.7024 -0.2162  2.1795
 4800TIP3   OH235890   2.585   3.947   5.835  0.5747 -0.1220 -0.2681
 4800TIP3    H135891   2.663   4.001   5.823  0.8260  0.0618  1.9103
 4800TIP3    H235892   2.600   3.871   5.778  1.8890  0.3784 -0.6204
 4801TIP3   OH235893   6.023   1.205  16.529 -0.2182 -0.1353  0.6164
 4801TIP3    H135894   6.019   1.115  16.562 -0.9234 -0.9418 -1.4524
 4801TIP3    H235895   5.993   1.198  16.438  2.6113  1.7099 -0.5983
 4802TIP3   OH235896   2.097   5.571   1.356  0.4997  0.2209  0.1861
 4802TIP3    H135897   2.187   5.539   1.344  0.1483 -0.8848  0.3426
 4802TIP3    H235898   2.074   5.542   1.445 -0.3725 -0.4407 -0.2487
 4803TIP3   OH235899   2.411   0.749   6.120 -0.5860  0.1938  0.0249
 4803TIP3    H135900   2.415   0.835   6.160 -0.0712 -0.0879  0.5926
 4803TIP3    H235901   2.427   0.688   6.192  1.4258 -0.2739 -0.7480
 4804TIP3   OH235902   1.638   4.538   0.284 -0.0005 -0.4133  0.3366
 4804TIP3    H135903   1.636   4.588   0.202 -0.3929 -0.9654  0.0029
 4804TIP3    H235904   1.546   4.525   0.306  0.0554  1.1943  1.7912
 4805TIP3   OH235905   6.410   5.491  10.398 -0.2368  0.0135  0.5314
 4805TIP3    H135906   6.461   5.417  10.430  1.6296  1.3171  0.7210
 4805TIP3    H235907   6.413   5.555  10.469  0.9425  1.5316 -0.8105
 4806TIP3   OH235908   5.667   1.927  11.029 -0.1498  0.6280 -0.3768
 4806TIP3    H135909   5.682   1.941  10.935 -1.9243 -0.1052 -0.7977
 4806TIP3    H235910   5.745   1.879  11.058  0.0539  0.1335 -1.6515
 4807TIP3   OH235911   6.570   3.323   3.281 -0.0024 -0.0807  0.1462
 4807TIP3    H135912   6.584   3.268   3.359  1.6358 -2.6557 -1.8089
 4807TIP3    H235913   6.486   3.293   3.246  1.0321 -1.7054 -1.0884
 4808TIP3   OH235914   4.893   6.083  11.771 -0.3336  0.5443 -0.2304
 4808TIP3    H135915   4.828   6.140  11.730 -1.2579 -0.8684 -0.8455
 4808TIP3    H235916   4.846   6.040  11.842  0.4256  0.7662  0.4133
 4809TIP3   OH235917   4.071   4.672   5.025  0.7684  0.3101  0.2055
 4809TIP3    H135918   3.995   4.712   4.984 -0.9387 -0.6635  2.2843
 4809TIP3    H235919   4.145   4.725   4.995 -0.7615  1.6451 -1.3963
 4810TIP3   OH235920   3.340   5.550   3.530 -0.1620 -0.1321 -0.4022
 4810TIP3    H135921   3.359   5.457   3.521 -1.1348 -0.5225  1.1411
 4810TIP3    H235922   3.361   5.570   3.622  2.0217  1.6890 -1.1822
 4811TIP3   OH235923   4.974   4.660  13.756 -0.5267  0.3361  0.0976
 4811TIP3    H135924   4.948   4.722  13.824 -1.6372  0.8853 -0.7974
 4811TIP3    H235925   4.956   4.705  13.674 -1.3644 -1.1636 -0.5795
 4812TIP3   OH235926   4.170   1.053  17.115 -0.4155 -0.2370  0.3526
 4812TIP3    H135927   4.215   1.137  17.122 -1.2054  0.1416  0.9559
 4812TIP3    H235928   4.223   1.003  17.053  0.3620  0.5057  0.4006
 4813TIP3   OH235929   1.891   6.104  15.562 -0.2773  0.0725 -0.2587
 4813TIP3    H135930   1.862   6.086  15.651 -0.2393  0.7261 -0.1046
 4813TIP3    H235931   1.823   6.067  15.506 -0.5342  0.0627  0.0585
 4814TIP3   OH235932   3.871   5.466   6.971 -0.9816 -0.0703  0.0818
 4814TIP3    H135933   3.814   5.418   6.912 -0.4418 -0.7090  0.0711
 4814TIP3    H235934   3.814   5.532   7.011 -1.4606  0.0492 -0.7765
 4815TIP3   OH235935   6.026   1.459  15.176  0.0339  0.2266 -0.0507
 4815TIP3    H135936   6.097   1.395  15.174 -0.9740 -1.0156  1.8022
 4815TIP3    H235937   6.012   1.479  15.268 -0.8222  1.8670 -0.4769
 4816TIP3   OH235938   0.959   2.629  16.472 -0.3033  0.4628 -0.1499
 4816TIP3    H135939   0.887   2.621  16.534 -0.0621 -1.4234 -0.0598
 4816TIP3    H235940   1.038   2.620  16.525 -0.1047 -2.1586 -0.7623
 4817TIP3   OH235941   2.892   1.880  13.927 -0.0401  0.0887  0.0941
 4817TIP3    H135942   2.864   1.928  13.848  1.0634 -0.4108 -0.6258
 4817TIP3    H235943   2.864   1.936  13.999  0.2528  1.3053 -0.6946
 4818TIP3   OH235944   1.785   5.473   4.526 -0.0889  0.0831 -0.2154
 4818TIP3    H135945   1.845   5.412   4.570 -3.2348 -2.7449  0.5792
 4818TIP3    H235946   1.739   5.517   4.597  0.9471  2.2970 -0.8169
 4819TIP3   OH235947   3.546   0.674   5.580 -0.2854  0.1587  0.0420
 4819TIP3    H135948   3.616   0.609   5.578  0.7711  1.2101  1.0246
 4819TIP3    H235949   3.469   0.627   5.611 -0.1938 -1.1575 -1.5964
 4820TIP3   OH235950   2.680   4.613  13.110 -0.0811  0.0142 -0.6536
 4820TIP3    H135951   2.763   4.660  13.117 -0.8949  1.3352  0.9162
 4820TIP3    H235952   2.679   4.554  13.185 -1.2702  1.3101  0.4185
 4821TIP3   OH235953   4.025   4.685  16.810  0.1543  0.2641  0.5325
 4821TIP3    H135954   4.098   4.721  16.862  0.1230 -1.7138  2.0746
 4821TIP3    H235955   4.008   4.751  16.744  2.4017  1.4509  1.0290
 4822TIP3   OH235956   4.034   4.139   4.778  1.0993 -0.3655  0.6127
 4822TIP3    H135957   4.116   4.099   4.808  0.4148 -0.3207  2.7518
 4822TIP3    H235958   4.027   4.220   4.828 -1.0464 -1.2165  1.8368
 4823TIP3   OH235959   6.155   5.575   3.661  0.3333 -0.5628  0.8331
 4823TIP3    H135960   6.138   5.491   3.618  0.5580 -0.5230  0.6678
 4823TIP3    H235961   6.190   5.550   3.747  1.8582 -0.6567  0.2272
 4824TIP3   OH235962   2.829   4.436  12.834  0.5517 -0.1012  0.6082
 4824TIP3    H135963   2.749   4.392  12.863  1.0946 -0.9785  0.7918
 4824TIP3    H235964   2.861   4.483  12.911  0.6955 -0.4782  0.7793
 4825TIP3   OH235965   5.241   3.962  15.771 -0.2445 -0.2756 -0.2091
 4825TIP3    H135966   5.250   3.875  15.731  0.5823 -0.8055  1.0718
 4825TIP3    H235967   5.175   3.950  15.840 -0.1521  0.1224 -0.0475
 4826TIP3   OH235968   2.472   2.292   3.375 -0.5464  0.0859  0.0045
 4826TIP3    H135969   2.480   2.198   3.363  1.4348  0.2809 -0.4901
 4826TIP3    H235970   2.387   2.314   3.337 -1.3553 -1.5738  0.7633
 4827TIP3   OH235971   1.428   2.085  12.400  0.5533 -0.0360  0.2669
 4827TIP3    H135972   1.469   2.022  12.341 -1.5654 -0.2503 -1.0540
 4827TIP3    H235973   1.438   2.169  12.356  1.3516  0.2352  0.9365
 4828TIP3   OH235974   0.241   6.365  13.041  0.3366  0.2074 -0.0455
 4828TIP3    H135975   0.176   6.308  13.081 -0.1833 -0.3109 -1.5784
 4828TIP3    H235976   0.202   6.452  13.043 -0.0959  0.0237 -0.2629
 4829TIP3   OH235977   1.988   3.232  16.913  0.0896  0.1254  0.5753
 4829TIP3    H135978   2.031   3.191  16.988 -1.1476  0.2651  1.3814
 4829TIP3    H235979   2.045   3.211  16.839  0.9384 -0.6603  1.4194
 4830TIP3   OH235980   4.010   4.373   5.071 -0.3634 -0.4442  0.3740
 4830TIP3    H135981   3.992   4.370   4.977  0.7520 -0.4612  0.1440
 4830TIP3    H235982   4.017   4.467   5.091  0.1281 -0.4584  0.2831
 4831TIP3   OH235983   4.701   3.941   6.679  0.5450  0.0900  0.0136
 4831TIP3    H135984   4.672   3.854   6.706 -2.8262  0.2929 -2.2696
 4831TIP3    H235985   4.669   3.999   6.747  0.6903 -0.2328  0.3620
 4832TIP3   OH235986   1.732   6.395   1.411  0.2235  0.3650 -0.5168
 4832TIP3    H135987   1.709   6.323   1.353 -0.0512  0.6251 -0.7346
 4832TIP3    H235988   1.708   6.364   1.498  0.6832 -0.0429 -0.5363
 4833TIP3   OH235989   5.009   2.855  15.334 -0.6026  0.2269 -0.0987
 4833TIP3    H135990   5.041   2.818  15.252  0.4187 -0.7148  0.6908
 4833TIP3    H235991   4.927   2.899  15.310  0.4622  1.3728 -1.9030
 4834TIP3   OH235992   5.106   1.730   0.134  0.4197  0.4986 -0.5289
 4834TIP3    H135993   5.171   1.800   0.140  0.3174  0.5296  0.3543
 4834TIP3    H235994   5.062   1.746   0.051  1.7797  0.2499 -1.3286
 4835TIP3   OH235995   6.855   0.119  16.424 -0.7112  0.0531 -0.5317
 4835TIP3    H135996   6.949   0.138  16.429 -1.0146  1.3462  1.2699
 4835TIP3    H235997   6.820   0.189  16.368 -0.8490  0.7807  0.4325
 4836TIP3   OH235998   1.485   0.058  15.646 -0.2524 -0.2652  0.6368
 4836TIP3    H135999   1.418   0.051  15.714 -0.3204 -3.7430  0.3701
 4836TIP3    H236000   1.455  -0.001  15.576  1.4195  0.7333 -1.0135
 4837TIP3   OH236001   4.907   0.517   2.514  0.3125 -0.7499 -0.7652
 4837TIP3    H136002   4.915   0.537   2.421  1.7586  1.7177 -0.1991
 4837TIP3    H236003   4.821   0.551   2.539 -0.5566 -2.3912 -1.3456
 4838TIP3   OH236004   4.972   5.545  14.307 -0.0570 -0.3097  0.2114
 4838TIP3    H136005   5.008   5.458  14.290  1.1262  0.0305  0.8740
 4838TIP3    H236006   5.047   5.597  14.334 -0.6562  1.0638 -0.6526
 4839TIP3   OH236007   1.449   2.862  15.270 -0.1515  0.2468 -0.5548
 4839TIP3    H136008   1.387   2.825  15.207  0.4174  1.1268 -1.6515
 4839TIP3    H236009   1.461   2.792  15.334 -0.6088 -0.7449 -1.5084
 4840TIP3   OH236010   0.858   3.452   4.344 -0.8985  0.6267 -0.4983
 4840TIP3    H136011   0.851   3.539   4.383 -0.1590  0.4636  0.0172
 4840TIP3    H236012   0.920   3.463   4.272  0.7297  0.1535  0.7664
 4841TIP3   OH236013   3.449   3.823   1.245  0.0513  0.1229  0.0636
 4841TIP3    H136014   3.500   3.884   1.298  0.0032  0.2173  0.0010
 4841TIP3    H236015   3.509   3.751   1.227  0.3121  0.4602 -0.4144
 4842TIP3   OH236016   0.906   5.246   4.867  0.0237 -0.1295 -0.6067
 4842TIP3    H136017   0.993   5.288   4.863 -0.1622  0.2604 -0.5862
 4842TIP3    H236018   0.916   5.176   4.931 -0.0587  0.8045  0.4469
 4843TIP3   OH236019   5.824   0.129  14.316  0.6129  0.0323  0.2047
 4843TIP3    H136020   5.845   0.043  14.352  0.9751 -0.3554 -0.9160
 4843TIP3    H236021   5.905   0.180  14.326  1.1398 -0.4881 -1.2442
 4844TIP3   OH236022   1.265   5.199  12.386  0.5152 -0.4591 -0.0416
 4844TIP3    H136023   1.274   5.183  12.291 -0.0804  0.5425 -0.2737
 4844TIP3    H236024   1.228   5.117  12.420  0.8545 -0.8774 -0.6483
 4845TIP3   OH236025   1.295   0.345   3.525 -0.0621  0.0329  0.0037
 4845TIP3    H136026   1.213   0.389   3.506 -0.1364  1.0863  2.3791
 4845TIP3    H236027   1.278   0.252   3.509 -1.3413  0.3572 -0.5930
 4846TIP3   OH236028   3.616   6.570   4.975 -0.0883  0.2308  0.1723
 4846TIP3    H136029   3.700   6.592   4.934  0.4300 -0.7749  0.6431
 4846TIP3    H236030   3.640   6.513   5.048 -1.2442 -1.0807 -0.4221
 4847TIP3   OH236031   2.365   2.512   2.419 -0.0449  0.3147 -0.2270
 4847TIP3    H136032   2.444   2.465   2.392 -0.4312 -0.2907 -0.3146
 4847TIP3    H236033   2.392   2.604   2.421  0.7025  0.1002 -0.1119
 4848TIP3   OH236034   2.115   6.595   4.690 -0.6272  0.1071  0.6985
 4848TIP3    H136035   2.093   6.511   4.732 -0.5454  0.2656  1.0565
 4848TIP3    H236036   2.210   6.600   4.695 -0.6251  0.1715  0.5832
 4849TIP3   OH236037   0.260   1.354   2.677 -0.1792  0.4940 -0.2589
 4849TIP3    H136038   0.255   1.394   2.590  1.9831  2.6182  0.4972
 4849TIP3    H236039   0.294   1.266   2.661 -0.7222  0.5034 -1.6113
 4850TIP3   OH236040   4.344   2.211  13.093  0.0234  0.0300  0.5256
 4850TIP3    H136041   4.261   2.198  13.139 -0.0699 -2.0888 -0.1387
 4850TIP3    H236042   4.332   2.166  13.009  1.0177  1.7897 -0.6091
 4851TIP3   OH236043   0.267   6.127   5.940  0.5407 -0.0504 -0.7889
 4851TIP3    H136044   0.278   6.041   5.899 -0.3988 -0.5852  0.0239
 4851TIP3    H236045   0.278   6.110   6.034 -3.2420 -0.0557 -0.1910
 4852TIP3   OH236046   6.471   5.972   3.888 -0.1690 -0.2684 -0.1926
 4852TIP3    H136047   6.494   5.905   3.823 -2.5118 -2.7116  1.2871
 4852TIP3    H236048   6.375   5.972   3.889 -0.2516  2.7256  0.3697
 4853TIP3   OH236049   5.876   3.661   0.118  0.1152 -0.0382 -0.3516
 4853TIP3    H136050   5.816   3.615   0.059  1.6799 -0.8155 -1.4012
 4853TIP3    H236051   5.963   3.630   0.093  0.9809  1.1009  1.0806
 4854TIP3   OH236052   1.707   4.383  13.632  0.1396 -0.8005  0.0436
 4854TIP3    H136053   1.690   4.353  13.721  1.1332  0.0455  0.5253
 4854TIP3    H236054   1.654   4.462  13.623  0.5182 -0.5427  0.0897
 4855TIP3   OH236055   5.311   5.421   1.107 -0.1757 -0.2256 -0.1249
 4855TIP3    H136056   5.365   5.410   1.185 -2.7276 -1.4301  1.6064
 4855TIP3    H236057   5.275   5.509   1.114 -0.0128 -0.1488 -0.2356
 4856TIP3   OH236058   1.953   0.996   3.112  0.2763  0.3322 -0.5761
 4856TIP3    H136059   1.910   1.051   3.178 -0.3103 -0.0232 -0.6569
 4856TIP3    H236060   1.954   1.050   3.033  0.2008  0.4309 -0.5096
 4857TIP3   OH236061   6.419   6.080   1.322 -0.1796  0.2493  0.6476
 4857TIP3    H136062   6.481   6.151   1.304  0.4447  0.2947  2.7212
 4857TIP3    H236063   6.360   6.116   1.387 -1.6614 -0.2222 -0.3956
 4858TIP3   OH236064   4.768   0.807  16.723  0.1196  0.3782  0.1548
 4858TIP3    H136065   4.857   0.789  16.754 -0.2327 -0.9160  0.5002
 4858TIP3    H236066   4.730   0.862  16.791  0.3185  0.0438  0.5466
 4859TIP3   OH236067   3.454   1.466   4.876 -0.4488 -0.0516  0.1506
 4859TIP3    H136068   3.453   1.507   4.789 -0.3749 -0.8188 -0.2260
 4859TIP3    H236069   3.374   1.496   4.918  0.0084  1.1336  0.2106
 4860TIP3   OH236070   3.061   0.599   5.670 -0.1620  0.3145 -0.3005
 4860TIP3    H136071   3.089   0.613   5.760  1.7178 -0.7036 -0.6795
 4860TIP3    H236072   3.024   0.511   5.669 -3.4899  1.5369  0.1418
 4861TIP3   OH236073   1.007   3.395   1.782 -0.3497 -0.7935 -0.3370
 4861TIP3    H136074   1.068   3.447   1.729 -1.3691  1.8508  0.9456
 4861TIP3    H236075   1.057   3.317   1.805  1.7692  0.2233 -1.2138
 4862TIP3   OH236076   0.582   1.071  15.187  0.8558  1.1643  1.1327
 4862TIP3    H136077   0.650   1.125  15.227  2.4513 -0.0068  0.0998
 4862TIP3    H236078   0.583   1.096  15.095  0.0654  0.9283  1.0523
 4863TIP3   OH236079   3.621   2.734  16.725 -0.0258 -0.1766  0.6047
 4863TIP3    H136080   3.592   2.651  16.687 -1.5224 -0.1238  1.5911
 4863TIP3    H236081   3.669   2.708  16.804 -1.5247 -0.0860  1.5730
 4864TIP3   OH236082   3.865   6.360   3.888 -0.4654 -0.2448  0.0800
 4864TIP3    H136083   3.944   6.326   3.846  0.3014  4.4719 -3.1165
 4864TIP3    H236084   3.898   6.413   3.961 -0.3408  2.7138 -1.9836
 4865TIP3   OH236085   4.061   2.368   1.971  0.4363  0.1270 -0.0484
 4865TIP3    H136086   4.054   2.340   1.880 -1.0688  1.2473 -0.3206
 4865TIP3    H236087   4.069   2.287   2.021 -0.6109 -0.6081 -1.0405
 4866TIP3   OH236088   6.692   0.282  14.049  0.0255  0.2710 -0.6180
 4866TIP3    H136089   6.692   0.322  13.963 -0.4265  0.3745 -0.5709
 4866TIP3    H236090   6.648   0.346  14.106  1.4340  0.7823 -0.0346
 4867TIP3   OH236091   4.958   2.807  14.289 -1.0512  0.3419 -0.1088
 4867TIP3    H136092   5.008   2.736  14.248  0.0894  0.2253  1.3800
 4867TIP3    H236093   4.901   2.840  14.220  1.1089  0.4940 -1.9441
 4868TIP3   OH236094   6.144   4.671   0.034  0.3716  0.1449  0.1447
 4868TIP3    H136095   6.115   4.684   0.125 -2.4690  1.1137 -0.7837
 4868TIP3    H236096   6.213   4.736   0.021 -0.8663  1.7093  0.9572
 4869TIP3   OH236097   4.401   5.030   0.860  0.0142  0.8141 -0.3880
 4869TIP3    H136098   4.490   5.064   0.875  0.3486 -0.0962 -0.2722
 4869TIP3    H236099   4.415   4.946   0.816 -0.8241  1.1333 -1.2870
 4870TIP3   OH236100   3.669   4.788   3.351 -0.8455 -0.3771  0.7955
 4870TIP3    H136101   3.710   4.701   3.351 -0.0629 -0.0257  0.1091
 4870TIP3    H236102   3.590   4.777   3.299 -2.0943 -1.2487  2.7640
 4871TIP3   OH236103   6.050   4.706  15.322  0.5828  0.1174 -0.5677
 4871TIP3    H136104   5.972   4.761  15.310 -0.6119 -1.7781 -2.1486
 4871TIP3    H236105   6.118   4.751  15.272  1.4348  3.1941  2.8833
 4872TIP3   OH236106   3.612   5.882   2.371 -0.2622  0.2127 -0.1136
 4872TIP3    H136107   3.641   5.928   2.292 -1.6887 -0.1672 -0.8779
 4872TIP3    H236108   3.562   5.948   2.419 -0.2452  0.1470 -0.0073
 4873TIP3   OH236109   6.270   2.743  11.449  0.0087 -0.0565  0.3360
 4873TIP3    H136110   6.339   2.761  11.513 -0.2442 -0.2927  0.6804
 4873TIP3    H236111   6.285   2.653  11.422  0.6811  0.3437 -0.6494
 4874TIP3   OH236112   3.376   0.387   0.579 -0.5731  0.2908  0.0967
 4874TIP3    H136113   3.401   0.460   0.522 -1.1506  1.8000  1.6887
 4874TIP3    H236114   3.367   0.426   0.666  1.6099 -2.1422  1.5656
 4875TIP3   OH236115   5.129   1.108  12.006  0.3613 -0.5281 -0.5564
 4875TIP3    H136116   5.046   1.065  11.986 -0.6618  0.2935  1.6224
 4875TIP3    H236117   5.160   1.141  11.921 -2.6813  1.0781 -1.1896
 4876TIP3   OH236118   3.001   5.861  15.019 -0.4881  0.3273  0.3633
 4876TIP3    H136119   3.007   5.770  14.989 -2.7327  0.7714 -1.6717
 4876TIP3    H236120   3.048   5.861  15.102  1.8200 -2.1069 -0.7797
 4877TIP3   OH236121   5.339   5.289  15.664  0.4700 -0.6144  0.3486
 4877TIP3    H136122   5.381   5.305  15.579  2.3283 -0.3810  1.2756
 4877TIP3    H236123   5.375   5.205  15.693 -0.2163 -0.7286  0.8923
 4878TIP3   OH236124   5.239   4.217   0.415  0.3928  0.2499  0.5159
 4878TIP3    H136125   5.271   4.212   0.505  0.7516 -0.8983  0.3362
 4878TIP3    H236126   5.146   4.238   0.424  0.5700  0.8035  1.1298
 4879TIP3   OH236127   6.059   2.860   1.374  0.0672  0.4729  0.6194
 4879TIP3    H136128   6.122   2.912   1.323  1.1051  1.4663  2.8166
 4879TIP3    H236129   6.098   2.772   1.377  1.3008  1.0222  1.7653
 4880TIP3   OH236130   1.502   5.033   1.563 -0.0852 -0.0954  0.2712
 4880TIP3    H136131   1.465   5.076   1.486 -0.7490 -0.5021  0.3606
 4880TIP3    H236132   1.442   4.962   1.583 -1.0434  1.1861  2.3378
 4881TIP3   OH236133   1.790   5.401   2.358  0.2787 -0.1608  0.0227
 4881TIP3    H136134   1.764   5.423   2.268  1.3062 -1.7876 -0.7197
 4881TIP3    H236135   1.736   5.458   2.413 -0.4780  0.7771 -1.6134
 4882TIP3   OH236136   6.699   6.559   5.369  0.3240 -0.2813 -0.0693
 4882TIP3    H136137   6.647   6.478   5.369  0.0974 -0.1437 -0.6507
 4882TIP3    H236138   6.640   6.625   5.332  0.8362 -0.0680 -0.5057
 4883TIP3   OH236139   2.206   4.816  12.865 -0.0828  0.5785  0.5613
 4883TIP3    H136140   2.293   4.798  12.899 -0.1538  1.1680  1.0751
 4883TIP3    H236141   2.177   4.733  12.826  0.9159  0.5305 -0.0962
 4884TIP3   OH236142   6.380   6.636   4.281 -0.7361  0.0270 -0.3592
 4884TIP3    H136143   6.447   6.569   4.296 -0.4300  0.0635 -1.4728
 4884TIP3    H236144   6.301   6.587   4.258 -0.4387  0.0445 -1.4495
 4885TIP3   OH236145   5.967   4.129  16.789  0.2392  0.0960  0.4309
 4885TIP3    H136146   5.990   4.099  16.877 -0.8336  1.3275  1.1642
 4885TIP3    H236147   6.027   4.202  16.772  0.0166  0.2784  0.4192
 4886TIP3   OH236148   3.631   5.977   1.817  0.1936  0.4555 -0.5962
 4886TIP3    H136149   3.658   5.948   1.730  0.9472  0.2753 -0.3086
 4886TIP3    H236150   3.674   6.061   1.830 -0.2847  0.7017 -0.5740
 4887TIP3   OH236151   6.732   2.480   0.223  0.2635  0.3085 -0.1169
 4887TIP3    H136152   6.693   2.568   0.222  0.7055  0.5234  0.6803
 4887TIP3    H236153   6.823   2.494   0.199 -0.1532 -0.2225 -2.2065
 4888TIP3   OH236154   0.208   2.604   3.059  0.0589  0.3509 -0.1606
 4888TIP3    H136155   0.227   2.525   3.008  0.8295 -0.2928  1.0773
 4888TIP3    H236156   0.112   2.605   3.066  0.0157 -0.2346 -0.5677
 4889TIP3   OH236157   3.401   1.023   3.814  0.3296  0.0075  0.3260
 4889TIP3    H136158   3.347   0.951   3.848 -2.0012  1.8570  0.7857
 4889TIP3    H236159   3.408   1.005   3.720 -0.5854 -0.5891  0.3593
 4890TIP3   OH236160   3.521   6.241   5.042  0.3771  0.0771 -0.2260
 4890TIP3    H136161   3.560   6.244   4.954 -0.1339  0.1918 -0.4494
 4890TIP3    H236162   3.479   6.156   5.048 -0.2492  0.3721 -0.3782
 4891TIP3   OH236163   3.895   3.479   2.550 -0.1945  0.6752  0.5231
 4891TIP3    H136164   3.862   3.456   2.637 -1.0719  1.9838  0.5603
 4891TIP3    H236165   3.850   3.419   2.491 -0.4714  0.5452  0.8650
 4892TIP3   OH236166   5.973   1.868  13.676  0.4294 -0.1861  0.4339
 4892TIP3    H136167   6.062   1.887  13.645  1.0546 -0.9476  1.6583
 4892TIP3    H236168   5.927   1.837  13.598  1.3515 -0.1518 -0.1474
 4893TIP3   OH236169   2.127   5.367   2.510 -0.4021 -0.3433  0.3470
 4893TIP3    H136170   2.140   5.390   2.418 -0.5453  0.5158  0.5319
 4893TIP3    H236171   2.172   5.284   2.521  0.3281 -0.0428 -0.3069
 4894TIP3   OH236172   3.821   6.143  12.193  0.1750  0.5124  0.2078
 4894TIP3    H136173   3.774   6.121  12.274 -2.3114 -1.7672 -1.6667
 4894TIP3    H236174   3.912   6.122  12.211 -0.5088 -1.1989  2.0657
 4895TIP3   OH236175   4.710   5.408  14.897 -0.0719 -0.2169  0.6189
 4895TIP3    H136176   4.627   5.448  14.869  0.2120 -0.1834 -0.2137
 4895TIP3    H236177   4.757   5.480  14.939  0.4480  0.3725 -0.9028
 4896TIP3   OH236178   2.112   1.141   1.482  0.0640 -0.3127 -0.1619
 4896TIP3    H136179   2.133   1.093   1.562  2.5478 -2.8981 -2.1507
 4896TIP3    H236180   2.020   1.121   1.464 -0.0862 -0.9332  1.2319
 4897TIP3   OH236181   6.006   6.308  15.302  0.5399  0.1843  0.3511
 4897TIP3    H136182   6.017   6.376  15.235 -0.2121  1.6290  1.6306
 4897TIP3    H236183   5.981   6.230  15.253 -0.1408  1.2447 -1.0523
 4898TIP3   OH236184   4.739   3.951  14.619  0.2861 -0.5245 -0.0982
 4898TIP3    H136185   4.650   3.940  14.653  0.3364 -1.6112 -0.2733
 4898TIP3    H236186   4.794   3.959  14.697  0.0004  0.6348  0.0083
 4899TIP3   OH236187   2.100   3.334  16.207 -0.1003 -0.1034 -0.1636
 4899TIP3    H136188   2.104   3.250  16.252 -1.3755  0.4801  1.1028
 4899TIP3    H236189   2.030   3.383  16.251 -0.9173  0.8001 -2.2702
 4900TIP3   OH236190   2.379   2.053   2.099  0.4646 -0.2305 -0.6216
 4900TIP3    H136191   2.386   2.146   2.078  0.5520 -0.1284 -0.1450
 4900TIP3    H236192   2.306   2.022   2.046  0.4197  0.1123 -0.7642
 4901TIP3   OH236193   4.232   2.294   4.827 -0.6784 -0.0819 -0.8044
 4901TIP3    H136194   4.277   2.319   4.907  1.7805 -0.9083 -1.8311
 4901TIP3    H236195   4.243   2.199   4.822 -0.0940  0.0358 -2.4758
 4902TIP3   OH236196   4.473   6.829   6.030  0.2821  0.2948 -1.0050
 4902TIP3    H136197   4.497   6.739   6.051  0.5741  0.5504 -0.1743
 4902TIP3    H236198   4.384   6.823   5.994  1.4359 -0.6466 -3.9651
 4903TIP3   OH236199   6.242   1.499   0.734  0.2465  0.2815 -0.1923
 4903TIP3    H136200   6.289   1.573   0.773  0.2001  0.3044 -0.1803
 4903TIP3    H236201   6.210   1.533   0.651  0.4397  0.2000 -0.3014
 4904TIP3   OH236202   2.894   6.329   4.290 -0.5822 -0.4211  0.1629
 4904TIP3    H136203   2.912   6.381   4.211 -2.9085  2.3826  1.2791
 4904TIP3    H236204   2.932   6.380   4.362  0.4406 -2.3103  1.0177
 4905TIP3   OH236205   6.211   1.589   0.055 -0.0376 -0.1371  0.0146
 4905TIP3    H136206   6.253   1.607  -0.029  1.1303 -0.3797  0.5295
 4905TIP3    H236207   6.277   1.541   0.105  0.0316  1.6830  1.7921
 4906TIP3   OH236208   4.520   0.737   1.307  0.7322 -0.0056  0.4614
 4906TIP3    H136209   4.561   0.740   1.393 -1.4028  1.0850  1.5213
 4906TIP3    H236210   4.485   0.825   1.294 -0.1216 -0.5176 -0.9583
 4907TIP3   OH236211   5.570   6.600  12.233 -0.3121 -0.0567  0.2630
 4907TIP3    H136212   5.582   6.543  12.156  2.3958  0.3778  0.2574
 4907TIP3    H236213   5.531   6.543  12.299  0.5032 -1.4106 -0.3720
 4908TIP3   OH236214   2.933   3.997   4.409  0.1414 -0.4181  0.3935
 4908TIP3    H136215   3.004   3.978   4.470 -1.0925 -1.1156  1.6513
 4908TIP3    H236216   2.927   4.092   4.407  0.0400 -0.3903  1.5680
 4909TIP3   OH236217   6.144   3.515   0.329 -0.0185 -0.2315 -0.6139
 4909TIP3    H136218   6.095   3.470   0.398  1.0333 -0.3618  0.0601
 4909TIP3    H236219   6.233   3.521   0.362  0.0582  1.6171 -1.0377
 4910TIP3   OH236220   3.030   0.619   2.160 -0.6338 -0.4766 -0.1458
 4910TIP3    H136221   3.061   0.545   2.109 -1.4493 -2.1588  1.6651
 4910TIP3    H236222   2.987   0.580   2.236 -1.4592  1.8561  0.6912
 4911TIP3   OH236223   2.257   5.270   1.551  0.0982  0.1054  0.7983
 4911TIP3    H136224   2.321   5.201   1.569 -0.5719 -0.4551  1.0543
 4911TIP3    H236225   2.270   5.292   1.459 -0.1283 -0.8245  0.5397
 4912TIP3   OH236226   3.273   5.735   0.897 -0.7458 -0.6332  0.2835
 4912TIP3    H136227   3.304   5.762   0.984  0.1868 -0.8642  0.0355
 4912TIP3    H236228   3.298   5.807   0.840  0.3963 -1.3203 -0.1181
 4913TIP3   OH236229   4.342   3.121   5.560 -0.4656  0.3080 -0.4047
 4913TIP3    H136230   4.355   3.088   5.471 -1.1338  1.4373 -0.9372
 4913TIP3    H236231   4.253   3.156   5.560 -0.8530 -0.5755  1.0077
 4914TIP3   OH236232   2.781   5.981  15.285  0.1642  0.0395 -0.5486
 4914TIP3    H136233   2.821   5.898  15.310 -2.8410 -1.3543  0.0445
 4914TIP3    H236234   2.739   6.013  15.365 -0.0857  1.3324 -1.1648
 4915TIP3   OH236235   2.040   5.171  15.146 -0.3852  0.1152 -0.6288
 4915TIP3    H136236   2.086   5.103  15.195 -1.3618  0.6120  1.0462
 4915TIP3    H236237   2.045   5.249  15.201 -0.4846  1.0323 -1.8761
 4916TIP3   OH236238   6.277   1.366   3.584  0.6355 -0.0090 -0.0137
 4916TIP3    H136239   6.251   1.362   3.676 -1.7055 -0.5051 -0.6261
 4916TIP3    H236240   6.244   1.284   3.547  1.0273  0.4414 -1.4116
 4917TIP3   OH236241   2.725   6.537  12.506  0.2708  0.2802  0.4394
 4917TIP3    H136242   2.795   6.547  12.441  1.0177 -0.5505  1.0796
 4917TIP3    H236243   2.651   6.583  12.469  1.5621  2.4342  0.3761
 4918TIP3   OH236244   1.850   3.421   3.314  0.5875  0.0979 -0.1120
 4918TIP3    H136245   1.833   3.336   3.355 -0.8102 -0.5929 -1.9859
 4918TIP3    H236246   1.873   3.399   3.223 -1.1494  1.7444 -1.0041
 4919TIP3   OH236247   4.591   3.507  14.512 -0.0634 -0.5349  0.1560
 4919TIP3    H136248   4.513   3.471  14.553 -0.3897 -0.4900 -0.4134
 4919TIP3    H236249   4.563   3.591  14.476  0.4153 -0.2112  0.5197
 4920TIP3   OH236250   3.397   3.838   4.874  0.6370 -0.4541  0.1149
 4920TIP3    H136251   3.460   3.766   4.878  0.5880 -0.5514 -0.8420
 4920TIP3    H236252   3.343   3.826   4.953  0.8507 -1.2534  0.1488
 4921TIP3   OH236253   5.055   2.239  16.831  0.3196 -0.4527 -0.7561
 4921TIP3    H136254   5.086   2.249  16.741  4.2413  0.8456  0.5374
 4921TIP3    H236255   5.125   2.191  16.875 -0.7701  0.2940  1.9663
 4922TIP3   OH236256   6.475   2.104  16.710  0.2422 -0.1554 -0.4354
 4922TIP3    H136257   6.464   2.132  16.619  1.0260 -1.7398 -1.0650
 4922TIP3    H236258   6.536   2.167  16.748  0.8957 -0.1846 -1.3951
 4923TIP3   OH236259   5.574   6.465  11.529  0.4633 -0.8465  0.1194
 4923TIP3    H136260   5.669   6.457  11.540  0.5873 -0.6258 -0.7446
 4923TIP3    H236261   5.563   6.545  11.477 -0.3195  0.4196  2.0901
 4924TIP3   OH236262   4.524   3.343   0.815  0.0251  0.1330  0.0947
 4924TIP3    H136263   4.456   3.372   0.754  0.9770 -0.3400 -1.2302
 4924TIP3    H236264   4.562   3.424   0.848 -1.4657  0.4151  1.2274
 4925TIP3   OH236265   2.813   6.521  12.765  0.6414  0.2458  0.1418
 4925TIP3    H136266   2.801   6.614  12.782  0.6963  0.2735  0.0338
 4925TIP3    H236267   2.761   6.504  12.687  1.3554  0.3910 -0.3865
 4926TIP3   OH236268   6.146   4.495  11.998 -0.2559  0.6508  0.2381
 4926TIP3    H136269   6.099   4.543  12.066  0.4737  0.6618  0.7353
 4926TIP3    H236270   6.199   4.561  11.954 -0.0331  0.4775  0.2487
 4927TIP3   OH236271   2.403   6.768  15.895 -0.1628  0.6719 -0.7553
 4927TIP3    H136272   2.346   6.830  15.940 -0.8373  0.6131 -1.4882
 4927TIP3    H236273   2.345   6.725  15.831  0.3767 -0.4468 -0.5140
 4928TIP3   OH236274   1.296   0.522   1.569 -0.5465  0.2733  1.1426
 4928TIP3    H136275   1.383   0.539   1.532  0.4031 -1.6730  2.3418
 4928TIP3    H236276   1.250   0.476   1.499  0.1500 -0.5836  1.2272
 4929TIP3   OH236277   6.737   4.813   0.807  0.3466 -0.1120  0.2302
 4929TIP3    H136278   6.725   4.842   0.716 -0.4062  0.0508  0.3677
 4929TIP3    H236279   6.659   4.759   0.824  0.3735  0.0399  0.8444
 4930TIP3   OH236280   1.853   3.985   5.949 -0.0064  0.2789 -0.8333
 4930TIP3    H136281   1.774   4.037   5.937  0.2953  0.7623 -0.7126
 4930TIP3    H236282   1.868   3.984   6.043  0.2036  0.2907 -0.8663
 4931TIP3   OH236283   5.764   1.194  12.992  0.3770 -0.0613 -0.2381
 4931TIP3    H136284   5.705   1.269  13.004  2.4888  1.7423 -0.2598
 4931TIP3    H236285   5.769   1.153  13.078  1.1053  1.4127  0.4656
 4932TIP3   OH236286   6.292   2.955  12.172  0.5194 -0.1390  0.5556
 4932TIP3    H136287   6.239   3.010  12.115  0.1262  0.0893  1.1304
 4932TIP3    H236288   6.337   2.895  12.113 -1.0429 -0.9149  0.1132
 4933TIP3   OH236289   3.425   3.080  15.798  0.1023 -0.1812  0.0324
 4933TIP3    H136290   3.353   3.127  15.839  0.3031  0.4227 -0.3013
 4933TIP3    H236291   3.463   3.142  15.736  1.1999 -0.3294  0.5257
 4934TIP3   OH236292   3.757   3.522   4.497 -0.1945 -0.5181 -0.2262
 4934TIP3    H136293   3.765   3.573   4.578  0.9915  1.1628 -1.3269
 4934TIP3    H236294   3.663   3.512   4.484 -0.4204 -0.0061  0.8836
 4935TIP3   OH236295   1.227   6.127  14.054  0.1781  0.6316  0.1905
 4935TIP3    H136296   1.256   6.217  14.065  0.8444  0.4350  0.0489
 4935TIP3    H236297   1.254   6.104  13.965  0.6337  0.0632  0.4747
 4936TIP3   OH236298   1.995   6.696   5.826  0.2017  0.5791 -0.3387
 4936TIP3    H136299   2.031   6.684   5.915 -0.0619  0.0439 -0.2996
 4936TIP3    H236300   1.902   6.679   5.836 -0.1385  2.2497 -0.3889
 4937TIP3   OH236301   3.252   5.356   2.358 -0.4055  0.0594  0.2903
 4937TIP3    H136302   3.299   5.282   2.321 -3.1397 -1.2291 -0.8801
 4937TIP3    H236303   3.244   5.419   2.286 -0.7298  0.1100  0.3644
 4938TIP3   OH236304   6.190   2.981  11.843  0.7301  0.0611  0.0553
 4938TIP3    H136305   6.171   3.058  11.895  0.3872 -0.1482  0.2479
 4938TIP3    H236306   6.167   3.006  11.753 -0.0012 -0.0174  0.2077
 4939TIP3   OH236307   1.965   2.790  14.157  0.5319 -0.0496  0.4381
 4939TIP3    H136308   1.940   2.808  14.066 -1.0807 -3.2145  0.1151
 4939TIP3    H236309   1.899   2.728  14.188  2.3824 -0.9058  2.9969
 4940TIP3   OH236310   1.670   4.355  12.997  0.7944  0.3202 -0.3178
 4940TIP3    H136311   1.757   4.319  12.977  0.9414  0.6885 -0.3486
 4940TIP3    H236312   1.627   4.361  12.911  0.1518 -1.3270 -0.1557
 4941TIP3   OH236313   4.396   0.213  13.332  0.2665  0.2811  0.0418
 4941TIP3    H136314   4.338   0.203  13.257 -0.0401  1.0078  0.1690
 4941TIP3    H236315   4.484   0.199  13.297  0.0275 -0.7241 -0.1745
 4942TIP3   OH236316   1.656   0.379  12.748  0.2834 -0.2165  0.9936
 4942TIP3    H136317   1.640   0.285  12.751  1.3464 -0.4666 -0.2675
 4942TIP3    H236318   1.603   0.410  12.675  1.4987 -0.2084  0.0816
 4943TIP3   OH236319   0.011   1.320  14.139 -0.5109  0.4943  0.1102
 4943TIP3    H136320  -0.011   1.398  14.191  1.0492  0.6485  0.5870
 4943TIP3    H236321   0.075   1.273  14.192 -0.6216 -0.5606 -0.6650
 4944TIP3   OH236322   3.957   0.652  11.389  0.0541  0.3295  0.4304
 4944TIP3    H136323   3.905   0.588  11.438  0.4357  0.3928  0.9257
 4944TIP3    H236324   3.917   0.654  11.302 -1.5681  1.2707  1.1435
 4945TIP3   OH236325   2.764   4.724  16.934  0.1491  0.6643  0.8274
 4945TIP3    H136326   2.835   4.687  16.882 -0.8234 -0.2853  0.1564
 4945TIP3    H236327   2.808   4.760  17.011  1.5103  1.2935 -0.1982
 4946TIP3   OH236328   1.792   0.495  13.185 -0.1882 -0.2098 -0.0841
 4946TIP3    H136329   1.848   0.438  13.238 -1.4185 -1.5236 -0.1221
 4946TIP3    H236330   1.835   0.498  13.100 -0.0766 -1.0931 -0.0733
 4947TIP3   OH236331   1.094   5.992   1.050  0.1665  0.1876 -0.0460
 4947TIP3    H136332   1.049   5.915   1.014 -0.0585 -0.0902  0.7915
 4947TIP3    H236333   1.023   6.051   1.076  0.1751 -0.7319  2.3394
 4948TIP3   OH236334   2.287   5.573   1.006  0.1784  0.7374 -0.4433
 4948TIP3    H136335   2.376   5.547   1.028  0.0334 -1.4500 -2.1712
 4948TIP3    H236336   2.279   5.559   0.912 -2.1248  0.4007 -0.2688
 4949TIP3   OH236337   0.010   4.458  12.931  0.2761  0.1113 -0.1637
 4949TIP3    H136338  -0.029   4.448  12.845  0.6598  1.9439 -0.5889
 4949TIP3    H236339   0.002   4.371  12.971  0.1545 -0.7967 -2.0437
 4950TIP3   OH236340   5.056   3.882  10.925  0.0427  0.7275 -0.1854
 4950TIP3    H136341   5.112   3.830  10.868  1.3024  2.6616 -0.8301
 4950TIP3    H236342   4.976   3.896  10.874  0.1832  0.4356 -0.4881
 4951TIP3   OH236343   1.308   4.019   5.909  0.3927  0.5103  0.3911
 4951TIP3    H136344   1.247   4.028   5.981 -1.4874 -0.9141 -0.9269
 4951TIP3    H236345   1.271   4.072   5.839 -0.7259 -2.1520 -1.1942
 4952TIP3   OH236346   2.768   2.919   5.796  1.0241  0.8801 -0.3190
 4952TIP3    H136347   2.712   2.848   5.764  2.6788 -1.1360  1.0051
 4952TIP3    H236348   2.721   2.953   5.872  0.1091  1.3982 -1.0954
 4953TIP3   OH236349   3.000   1.207  12.465  0.5179  0.3873 -0.0980
 4953TIP3    H136350   3.018   1.297  12.436  1.1949  0.9314  1.8420
 4953TIP3    H236351   2.913   1.212  12.504 -0.6417 -0.4706 -2.3550
 4954TIP3   OH236352   4.084   3.505  12.529 -0.3940  0.0702  0.6073
 4954TIP3    H136353   4.078   3.430  12.589 -0.2102  0.8594  1.6411
 4954TIP3    H236354   3.996   3.543  12.529 -0.4927 -0.1480  0.0680
 4955TIP3   OH236355   1.653   0.541  15.231 -0.3930 -0.2873  0.2387
 4955TIP3    H136356   1.612   0.619  15.195  1.0272 -0.1724 -1.2339
 4955TIP3    H236357   1.718   0.516  15.166  1.6533 -0.6332  2.3128
 4956TIP3   OH236358   6.034   3.317   0.867  0.3238 -0.0208  0.2172
 4956TIP3    H136359   6.049   3.318   0.773 -0.9865 -2.4413 -0.0918
 4956TIP3    H236360   6.121   3.327   0.906  1.2824 -1.9279 -1.3106
 4957TIP3   OH236361   4.919   2.769   5.616  0.3960 -0.0008 -0.1394
 4957TIP3    H136362   4.958   2.835   5.559  0.3891  0.4241  0.3388
 4957TIP3    H236363   4.827   2.794   5.622 -0.4670 -2.0728 -2.8006
 4958TIP3   OH236364   0.054   4.694  15.134  0.3503 -0.1741 -1.0541
 4958TIP3    H136365   0.129   4.637  15.117 -0.8980 -2.6790  1.1777
 4958TIP3    H236366   0.085   4.755  15.201  0.0993 -2.1737  1.0126
 4959TIP3   OH236367   4.769   0.249  11.354  0.4336  0.6363 -0.0592
 4959TIP3    H136368   4.692   0.265  11.300  0.2844 -0.4223 -0.1727
 4959TIP3    H236369   4.737   0.195  11.427  1.3571 -1.4028 -1.0725
 4960TIP3   OH236370   5.904   5.555   2.460 -0.3804 -0.0728  0.0200
 4960TIP3    H136371   5.912   5.650   2.452 -1.1031 -0.1463 -2.2122
 4960TIP3    H236372   5.982   5.520   2.417 -1.9445 -0.4845 -2.6391
 4961TIP3   OH236373   5.932   5.121  11.761  0.3130  0.1771 -0.2925
 4961TIP3    H136374   5.919   5.060  11.834 -0.4067  1.7540  0.9666
 4961TIP3    H236375   5.874   5.090  11.692 -0.4246 -0.2603  0.5095
 4962TIP3   OH236376   1.224   3.954   2.967 -0.0853  0.6389  0.6665
 4962TIP3    H136377   1.207   4.048   2.964 -0.5779  0.5649 -1.9334
 4962TIP3    H236378   1.281   3.937   2.892 -1.4766 -1.3428 -0.0595
 4963TIP3   OH236379   5.924   2.565   2.501  0.2875  0.1100  0.7339
 4963TIP3    H136380   5.952   2.656   2.496  0.2287  0.0743 -0.4483
 4963TIP3    H236381   5.960   2.524   2.423  0.6186 -0.9772  1.4365
 4964TIP3   OH236382   0.876   6.243  17.081 -0.9355  0.2240 -0.2489
 4964TIP3    H136383   0.905   6.253  17.171 -1.3694  0.4548 -0.1311
 4964TIP3    H236384   0.838   6.328  17.058  0.3152  0.5873 -1.0774
 4965TIP3   OH236385   0.169   0.374   5.946 -0.4085 -0.1585 -0.1099
 4965TIP3    H136386   0.246   0.367   6.002  0.1958  1.0086 -0.7771
 4965TIP3    H236387   0.132   0.460   5.965 -0.0001  0.4090 -1.7185
 4966TIP3   OH236388   0.731   6.560   6.164  0.0948  0.4788  0.3247
 4966TIP3    H136389   0.710   6.556   6.257  0.8866  2.0318  0.6001
 4966TIP3    H236390   0.759   6.650   6.149 -1.1973  0.5997 -1.6884
 4967TIP3   OH236391   5.241   1.206  12.215 -0.2169  0.2264 -0.4636
 4967TIP3    H136392   5.206   1.199  12.127  0.4849  0.0064 -0.7385
 4967TIP3    H236393   5.229   1.119  12.253 -0.1232  0.1958 -0.5025
 4968TIP3   OH236394   4.598   3.612   1.046 -0.1216 -0.3674  0.2045
 4968TIP3    H136395   4.640   3.570   1.120  1.5931 -0.8009 -0.9679
 4968TIP3    H236396   4.516   3.564   1.034  1.0510 -2.3594 -0.1039
 4969TIP3   OH236397   0.682   3.482   1.351 -0.0000  0.1773  0.0633
 4969TIP3    H136398   0.754   3.477   1.288 -0.7696 -0.1063 -0.8206
 4969TIP3    H236399   0.719   3.450   1.433  0.7884 -0.2529 -0.4520
 4970TIP3   OH236400   3.074   3.885   7.462  0.0538 -0.0356  0.6656
 4970TIP3    H136401   3.146   3.844   7.414 -0.7451 -1.5482  0.6942
 4970TIP3    H236402   3.028   3.938   7.397 -0.1968 -0.9748  0.0558
 4971TIP3   OH236403   1.036   3.819   1.076 -0.2803 -0.0752  0.7165
 4971TIP3    H136404   0.983   3.744   1.100  0.4418 -0.8994 -0.1518
 4971TIP3    H236405   1.094   3.786   1.006 -0.1455  1.3509  0.1150
 4972TIP3   OH236406   5.067   3.696  14.219 -0.4875  0.3469 -0.4008
 4972TIP3    H136407   5.046   3.741  14.137 -0.5512  0.6547 -0.2171
 4972TIP3    H236408   4.993   3.637  14.234 -0.1696 -0.1868 -0.8991
 4973TIP3   OH236409   4.380   1.558   2.974  0.1442 -0.5400  0.2576
 4973TIP3    H136410   4.465   1.559   3.018  0.7487 -1.0884 -0.8377
 4973TIP3    H236411   4.324   1.614   3.028  0.8496 -1.1475  1.6685
 4974TIP3   OH236412   6.026   6.759   2.372  0.2183  0.3116 -0.0837
 4974TIP3    H136413   6.003   6.836   2.320 -1.0556 -1.2578 -2.0092
 4974TIP3    H236414   5.942   6.729   2.408  1.1525  1.8573  3.8266
 4975TIP3   OH236415   2.902   5.684   1.257  0.2130  0.2015  0.3358
 4975TIP3    H136416   2.808   5.670   1.249 -0.0410  2.2859 -0.8754
 4975TIP3    H236417   2.937   5.661   1.171  1.1574 -2.4744  1.3294
 4976TIP3   OH236418   2.486   1.379  11.575  0.5551  0.2094  0.1119
 4976TIP3    H136419   2.454   1.329  11.499  2.1931  1.9527 -1.8707
 4976TIP3    H236420   2.423   1.450  11.585 -0.0091 -0.3717  0.8608
 4977TIP3   OH236421   3.656   3.155  11.964  0.0025 -0.1678  0.2455
 4977TIP3    H136422   3.627   3.192  12.048  1.9320  1.9507  0.0868
 4977TIP3    H236423   3.733   3.103  11.986  0.9146  0.9395 -0.2616
 4978TIP3   OH236424   1.633   5.054  15.000 -0.2366 -0.1198  0.0619
 4978TIP3    H136425   1.552   5.102  14.983 -0.5716 -0.4898  0.5761
 4978TIP3    H236426   1.695   5.121  15.031  0.0914  0.3998 -1.6027
 4979TIP3   OH236427   2.838   0.621  16.649  0.4097  0.3954 -0.5708
 4979TIP3    H136428   2.917   0.593  16.696  0.4210  1.0643 -0.1853
 4979TIP3    H236429   2.871   0.665  16.571  0.3923 -0.6040 -1.1627
 4980TIP3   OH236430   6.846   2.627   1.222 -0.5282  0.6995  0.2125
 4980TIP3    H136431   6.863   2.705   1.169  1.2244  0.6723  0.6614
 4980TIP3    H236432   6.930   2.609   1.265 -0.9138 -1.3631  0.2125
 4981TIP3   OH236433   1.344   0.154   3.230  0.8802  0.8813  0.4873
 4981TIP3    H136434   1.295   0.125   3.307 -1.6089 -1.0541 -1.6377
 4981TIP3    H236435   1.417   0.093   3.224  0.8647  0.7983  1.0718
 4982TIP3   OH236436   2.968   4.032  16.466  0.0021 -0.2691  0.5988
 4982TIP3    H136437   3.004   4.105  16.415 -0.1870  0.3633  1.3581
 4982TIP3    H236438   2.907   4.073  16.527 -2.2532 -1.3264 -0.7994
 4983TIP3   OH236439   0.878   4.983  11.177 -0.4234  0.4831  0.1532
 4983TIP3    H136440   0.796   5.034  11.182 -1.9863 -1.3522 -3.2051
 4983TIP3    H236441   0.898   4.980  11.083  2.0222 -1.4107  0.6415
 4984TIP3   OH236442   6.742   1.776   4.819  0.2226  0.1736 -0.0722
 4984TIP3    H136443   6.718   1.853   4.870 -1.3818 -0.3424  0.0052
 4984TIP3    H236444   6.812   1.807   4.761 -0.5591  1.7594 -0.2268
 4985TIP3   OH236445   3.777   1.026   0.629  0.7352  0.8074  0.3029
 4985TIP3    H136446   3.857   1.041   0.579  1.4636  0.5871  1.3668
 4985TIP3    H236447   3.802   0.964   0.697 -0.2413  1.0222  0.8852
 4986TIP3   OH236448   2.312   4.220  13.522 -0.6264 -0.5398  0.0488
 4986TIP3    H136449   2.223   4.255  13.527  0.6853  3.9339 -2.4931
 4986TIP3    H236450   2.335   4.200  13.612 -2.8966  2.1088  1.3722
 4987TIP3   OH236451   5.242   2.778   2.224 -0.0164  0.7017 -0.2331
 4987TIP3    H136452   5.304   2.711   2.195 -0.9922  0.7175 -2.5179
 4987TIP3    H236453   5.284   2.861   2.201  0.7523  0.9062  1.7047
 4988TIP3   OH236454   0.311   0.035  14.435 -0.0405 -0.2946 -0.1865
 4988TIP3    H136455   0.335   0.113  14.385 -0.2186 -1.6494 -2.5274
 4988TIP3    H236456   0.277  -0.026  14.369 -0.5101 -2.1182  1.6532
 4989TIP3   OH236457   5.489   2.696   1.692 -0.0303  0.0064 -0.1190
 4989TIP3    H136458   5.423   2.744   1.742  0.6778 -0.3609  1.2051
 4989TIP3    H236459   5.544   2.653   1.758  2.5161  1.5405 -1.0796
 4990TIP3   OH236460   3.202   5.716   1.689  0.4416  0.3887 -0.2166
 4990TIP3    H136461   3.204   5.717   1.593  1.1197 -1.0104 -0.2438
 4990TIP3    H236462   3.248   5.795   1.715  1.9059 -0.1508 -1.0653
 4991TIP3   OH236463   1.357   5.775   2.328 -0.0384  0.5595 -0.2320
 4991TIP3    H136464   1.282   5.795   2.383 -0.7879 -0.5684 -0.8059
 4991TIP3    H236465   1.385   5.860   2.293 -0.1281  1.1617  1.1184
 4992TIP3   OH236466   1.043   4.806   1.788  0.6573  1.1503  0.2786
 4992TIP3    H136467   1.035   4.713   1.768  2.2177  1.1559 -0.5806
 4992TIP3    H236468   0.976   4.849   1.735  1.2835  0.6697 -0.9514
 4993TIP3   OH236469   3.057   5.982  15.983 -0.8629  0.1119  0.2324
 4993TIP3    H136470   3.005   5.911  15.946  0.4132 -0.1842 -1.0865
 4993TIP3    H236471   3.090   6.030  15.907  1.6447 -0.3784  0.9109
 4994TIP3   OH236472   3.791   2.612   2.462  0.7076  0.1804  0.1557
 4994TIP3    H136473   3.856   2.635   2.529 -2.3200  1.8358  2.8859
 4994TIP3    H236474   3.769   2.521   2.480  0.7095  0.2846  0.7149
 4995TIP3   OH236475   0.748   3.588   5.769  0.0673 -0.1361 -0.3250
 4995TIP3    H136476   0.810   3.540   5.714  1.7824 -0.5510  1.8167
 4995TIP3    H236477   0.718   3.523   5.833 -1.8044  0.3336 -0.6768
 4996TIP3   OH236478   0.693   5.312   0.146  0.1468  0.3530 -0.5928
 4996TIP3    H136479   0.694   5.286   0.238 -1.9363  0.1773 -0.5722
 4996TIP3    H236480   0.775   5.359   0.133  1.4877 -1.4823  0.7714
 4997TIP3   OH236481   0.215   1.419  16.730  0.4526  0.0359 -0.2356
 4997TIP3    H136482   0.218   1.324  16.739 -0.2044 -0.1854 -1.8706
 4997TIP3    H236483   0.219   1.453  16.819  2.4943 -1.4429  0.3080
 4998TIP3   OH236484   6.277   3.349  11.826 -0.2808 -0.7499  0.3161
 4998TIP3    H136485   6.372   3.350  11.835 -0.3835 -0.2128  1.5115
 4998TIP3    H236486   6.262   3.369  11.733  0.7601  0.2893  0.3399
 4999TIP3   OH236487   2.005   1.835  15.804  0.5225  0.4093  0.0105
 4999TIP3    H136488   1.980   1.750  15.769 -0.4221  0.2985  0.9017
 4999TIP3    H236489   2.093   1.851  15.770  1.1565 -1.4147  0.7020
 5000TIP3   OH236490   4.545   2.142  16.052  0.0136  0.0174  0.2502
 5000TIP3    H136491   4.586   2.192  15.982  1.5268  0.3645  1.3554
 5000TIP3    H236492   4.558   2.195  16.130 -2.4263  0.0598  0.7042
 5001TIP3   OH236493   2.198   1.266  12.417  0.8575  0.0614  0.4616
 5001TIP3    H136494   2.114   1.291  12.456  1.1033 -0.9102  1.6949
 5001TIP3    H236495   2.174   1.206  12.346  0.4609  0.9607 -0.1952
 5002TIP3   OH236496   1.854   4.565   1.543 -1.0777  0.1678  0.0443
 5002TIP3    H136497   1.894   4.651   1.532  0.4087 -0.3358  1.2038
 5002TIP3    H236498   1.888   4.513   1.470 -0.5944  0.0882  0.3244
 5003TIP3   OH236499   3.493   3.947  15.098  0.2786 -0.4085  0.7190
 5003TIP3    H136500   3.466   3.858  15.119  2.0326 -1.1928 -0.1302
 5003TIP3    H236501   3.544   3.975  15.173 -1.3914  0.4529  1.5960
 5004TIP3   OH236502   5.206   4.325  11.135 -0.2119 -0.6680  0.0745
 5004TIP3    H136503   5.244   4.326  11.047  0.5879  0.0344  0.4140
 5004TIP3    H236504   5.141   4.255  11.132  2.3433 -3.2116 -0.0053
 5005TIP3   OH236505   4.476   2.833  14.694  0.2535  0.0132 -0.2753
 5005TIP3    H136506   4.425   2.911  14.716  1.8230  0.8335  0.6313
 5005TIP3    H236507   4.559   2.867  14.659  0.8185 -1.2470 -0.2100
 5006TIP3   OH236508   0.331   0.456  16.756 -0.1980  0.3550 -0.0673
 5006TIP3    H136509   0.364   0.516  16.822 -0.7012  0.7308 -0.1500
 5006TIP3    H236510   0.377   0.480  16.676 -2.2856  2.4388 -0.7467
 5007TIP3   OH236511   5.751   0.946  10.370 -0.2171  0.2798  0.3933
 5007TIP3    H136512   5.677   0.904  10.413  0.0825 -0.1195  0.5242
 5007TIP3    H236513   5.744   1.038  10.395 -1.8700  0.6776 -1.2951
 5008TIP3   OH236514   5.561   0.929  15.491  0.3448 -0.2882  0.0830
 5008TIP3    H136515   5.505   0.921  15.414  0.0159  0.3073  0.2558
 5008TIP3    H236516   5.562   1.023  15.511 -0.1819 -0.5159  1.2516
 5009TIP3   OH236517   5.102   5.857   2.081  0.3111  0.5104  0.3390
 5009TIP3    H136518   5.154   5.780   2.058  1.0868  1.2096 -0.3241
 5009TIP3    H236519   5.012   5.830   2.066  0.5327 -0.4259  0.6050
 5010TIP3   OH236520   1.655   0.015  16.092  0.2890 -0.1080  0.4757
 5010TIP3    H136521   1.669  -0.037  16.171 -0.3913 -2.1855 -0.6911
 5010TIP3    H236522   1.726  -0.013  16.033 -1.0018 -0.9468 -0.7374
 5011TIP3   OH236523   0.565   3.144  11.975 -0.1944 -0.1496 -0.1596
 5011TIP3    H136524   0.656   3.162  11.999  0.2885 -0.8572 -1.3543
 5011TIP3    H236525   0.558   3.049  11.977 -0.7386 -0.1278 -0.6262
 5012TIP3   OH236526   3.834   4.495  11.390  0.3171  0.5669 -0.2850
 5012TIP3    H136527   3.829   4.590  11.378  2.0668  0.8405  0.6908
 5012TIP3    H236528   3.860   4.484  11.482 -3.2262 -1.0152  0.6877
 5013TIP3   OH236529   1.561   2.855  11.983  0.1676 -0.3452 -0.7728
 5013TIP3    H136530   1.497   2.795  11.945  0.0138  0.2560 -1.4734
 5013TIP3    H236531   1.512   2.935  12.000  0.4868 -0.2456 -0.2953
 5014TIP3   OH236532   3.475   1.239  13.439  0.5470 -0.4152  0.2532
 5014TIP3    H136533   3.512   1.176  13.501  1.2529 -0.9753 -0.7047
 5014TIP3    H236534   3.426   1.185  13.376  1.3723 -0.0545 -0.7255
 5015TIP3   OH236535   5.657   0.374   2.620  0.0163 -0.7165 -0.1561
 5015TIP3    H136536   5.664   0.457   2.666 -1.5155 -1.0775  0.8018
 5015TIP3    H236537   5.718   0.316   2.665  1.1206 -0.1220 -0.8539
 5016TIP3   OH236538   3.645   3.176   1.902 -0.1049  0.0914  0.2906
 5016TIP3    H136539   3.723   3.205   1.855 -0.1908 -2.0039 -1.2773
 5016TIP3    H236540   3.678   3.121   1.973 -0.0459  2.2317  2.0353
 5017TIP3   OH236541   6.157   1.242   4.891  0.4381  0.2160 -0.4338
 5017TIP3    H136542   6.103   1.171   4.855  1.3406 -0.4103 -0.5764
 5017TIP3    H236543   6.165   1.304   4.819  0.7624 -0.1875 -0.7538
 5018TIP3   OH236544   1.105   1.783  14.341 -0.1289 -0.6838  0.3336
 5018TIP3    H136545   1.139   1.734  14.265 -0.4463  1.3834 -1.2285
 5018TIP3    H236546   1.012   1.759  14.345  0.1651 -1.8250  0.9591
 5019TIP3   OH236547   4.560   3.730  16.142  0.4932 -0.5435  0.1870
 5019TIP3    H136548   4.545   3.647  16.188  0.0440 -1.4074 -1.4358
 5019TIP3    H236549   4.483   3.783  16.161  1.0377 -0.2558  1.6919
 5020TIP3   OH236550   5.113   4.655   3.740  0.5007 -0.0881  0.6221
 5020TIP3    H136551   5.046   4.587   3.747 -0.0553  0.3633 -0.2401
 5020TIP3    H236552   5.105   4.705   3.821 -2.5886  2.1111 -0.8395
 5021TIP3   OH236553   1.490   6.121  15.934 -0.7181 -0.3072 -0.2478
 5021TIP3    H136554   1.509   6.093  16.023 -1.1735 -0.0002 -0.0497
 5021TIP3    H236555   1.505   6.043  15.881 -2.0922 -0.9981  0.3173
 5022TIP3   OH236556   0.495   5.168   3.138 -0.2753  0.0090  0.6940
 5022TIP3    H136557   0.492   5.205   3.226 -1.0227  0.0651  0.6570
 5022TIP3    H236558   0.411   5.121   3.129 -0.4786  0.5198 -0.1959
 5023TIP3   OH236559   3.501   1.902   0.791 -0.4897 -0.0059  0.0559
 5023TIP3    H136560   3.448   1.979   0.813  0.2813  1.2340 -2.1134
 5023TIP3    H236561   3.543   1.924   0.707  1.4669 -1.9350  0.4153
 5024TIP3   OH236562   2.359   2.035  13.670 -0.1610  0.3521 -0.2840
 5024TIP3    H136563   2.304   1.960  13.692  0.9349 -0.2567  0.4920
 5024TIP3    H236564   2.374   2.028  13.576 -1.9405  0.9103 -0.6315
 5025TIP3   OH236565   0.652   3.482   4.829 -0.3894 -0.6770 -0.3978
 5025TIP3    H136566   0.612   3.403   4.794 -0.4337 -1.0249  0.4220
 5025TIP3    H236567   0.584   3.549   4.819  0.1802 -0.3496 -2.5042
 5026TIP3   OH236568   0.303   4.213  12.960 -0.0095 -0.3655  0.0093
 5026TIP3    H136569   0.339   4.125  12.951 -0.9865 -0.7658 -0.1065
 5026TIP3    H236570   0.238   4.219  12.889  0.9471  0.9125 -0.7929
 5027TIP3   OH236571   2.550   2.199   4.785 -0.3142  0.1379 -0.5346
 5027TIP3    H136572   2.512   2.286   4.771 -1.6105 -0.1311  1.0416
 5027TIP3    H236573   2.479   2.149   4.825  1.1592 -0.9385  0.8062
 5028TIP3   OH236574   4.711   4.744   5.319 -0.4923 -0.1554  0.3446
 5028TIP3    H136575   4.747   4.656   5.309  1.0280  0.5493 -0.9124
 5028TIP3    H236576   4.774   4.801   5.275 -0.7685  1.7292  2.2219
 5029TIP3   OH236577   3.306   4.489  14.517  0.4197  0.2584 -0.4438
 5029TIP3    H136578   3.223   4.536  14.517  0.4053  0.2633 -1.9609
 5029TIP3    H236579   3.372   4.555  14.498  0.7976  0.2398  0.6822
 5030TIP3   OH236580   5.837   6.423  13.953  0.0649  0.7298  0.0322
 5030TIP3    H136581   5.823   6.375  14.034  0.2867  1.4168  0.4824
 5030TIP3    H236582   5.758   6.474  13.940 -0.0409  0.4930 -0.2801
 5031TIP3   OH236583   5.544   0.186  14.302  0.4632  0.2966 -0.0465
 5031TIP3    H136584   5.623   0.135  14.321 -1.1041 -1.8508  1.1502
 5031TIP3    H236585   5.489   0.173  14.378 -0.2316  3.5815  0.1453
 5032TIP3   OH236586   6.723   5.251  12.384  0.2859  0.7118  0.6392
 5032TIP3    H136587   6.671   5.331  12.382 -1.6195 -0.4746  0.7898
 5032TIP3    H236588   6.739   5.232  12.291 -3.5353 -1.3013  0.1984
 5033TIP3   OH236589   3.200   1.848   0.589  0.4527 -0.0400 -0.8623
 5033TIP3    H136590   3.128   1.876   0.646 -0.1760  0.7401 -2.0061
 5033TIP3    H236591   3.189   1.753   0.583 -1.5089  0.2086 -2.2812
 5034TIP3   OH236592   0.131   2.745   2.094 -0.1647 -0.2059 -0.0996
 5034TIP3    H136593   0.166   2.827   2.128 -2.5269  0.7606  0.2465
 5034TIP3    H236594   0.036   2.760   2.089 -0.4014 -1.9280 -2.7394
 5035TIP3   OH236595   4.692   1.032   2.186 -0.4557 -0.6128  0.3007
 5035TIP3    H136596   4.773   1.081   2.199 -0.2078 -1.0582  0.4178
 5035TIP3    H236597   4.712   0.943   2.214 -0.8625 -0.8264 -0.0774
 5036TIP3   OH236598   2.404   5.621  11.488 -0.0246  0.0535  0.1096
 5036TIP3    H136599   2.374   5.712  11.488  3.4397  1.3408 -0.9646
 5036TIP3    H236600   2.361   5.581  11.412 -1.6142  0.7096  0.6162
 5037TIP3   OH236601   4.119   5.836   0.750  0.3237 -0.3692 -0.4303
 5037TIP3    H136602   4.209   5.817   0.722  0.0336  0.3211 -1.9590
 5037TIP3    H236603   4.073   5.854   0.668 -1.1017 -0.2493  0.3783
 5038TIP3   OH236604   1.054   3.756  16.240 -0.1871 -0.3682 -0.2913
 5038TIP3    H136605   1.114   3.827  16.214  0.2594 -1.7996 -3.7797
 5038TIP3    H236606   1.107   3.700  16.297  1.3338 -0.6932 -1.9257
 5039TIP3   OH236607   2.585   3.456   5.084 -0.1281 -0.0833  0.6748
 5039TIP3    H136608   2.668   3.490   5.119  1.7733 -3.4063 -0.1515
 5039TIP3    H236609   2.577   3.496   4.998  0.2676  0.7475  1.0107
 5040TIP3   OH236610   1.924   4.812  15.654  0.5676 -0.4023 -0.0559
 5040TIP3    H136611   1.994   4.854  15.604 -0.9387  2.3573 -0.0643
 5040TIP3    H236612   1.871   4.768  15.588  0.7434 -0.0887 -0.4126
 5041TIP3   OH236613   2.804   6.192   3.619  0.8002 -0.0496 -0.1754
 5041TIP3    H136614   2.849   6.114   3.651  0.4358 -0.5491 -0.8489
 5041TIP3    H236615   2.748   6.160   3.549  0.2776  0.7487 -0.1340
 5042TIP3   OH236616   6.677   3.329   0.024 -0.4510  0.0247 -0.1212
 5042TIP3    H136617   6.627   3.259  -0.017  0.1066 -1.4989  1.6576
 5042TIP3    H236618   6.724   3.287   0.096  0.2913  2.1471  0.7412
 5043TIP3   OH236619   4.762   0.565  11.765  0.2362 -0.4928 -0.3477
 5043TIP3    H136620   4.737   0.480  11.729  0.2185 -0.7628  0.2773
 5043TIP3    H236621   4.855   0.556  11.786 -0.0417 -0.7744  0.8284
 5044TIP3   OH236622   6.486   3.747   4.403  0.1344  0.1224 -0.8601
 5044TIP3    H136623   6.434   3.756   4.323 -2.1441  2.0358  0.6885
 5044TIP3    H236624   6.469   3.658   4.433 -0.8992  0.1673 -1.2777
 5045TIP3   OH236625   4.328   4.517  11.452 -0.3795  0.3938  0.0797
 5045TIP3    H136626   4.378   4.580  11.504  0.3317 -2.2612  2.8971
 5045TIP3    H236627   4.394   4.466  11.406 -0.3574 -2.0800  2.5705
 5046TIP3   OH236628   5.084   2.067   0.604  0.1842 -0.2615 -0.2677
 5046TIP3    H136629   5.012   2.050   0.543 -0.0269 -0.3575  0.0038
 5046TIP3    H236630   5.131   2.141   0.566 -1.2627  1.1446  0.5806
 5047TIP3   OH236631   2.456   6.153  17.116  0.3719  0.2693 -0.2515
 5047TIP3    H136632   2.453   6.077  17.173  0.1595 -2.0067 -3.0646
 5047TIP3    H236633   2.548   6.166  17.096  0.3745  0.5227 -0.0860
 5048TIP3   OH236634   5.065   5.159   0.963  0.3739  1.1573 -0.3230
 5048TIP3    H136635   5.075   5.094   0.893  3.6153 -0.4743  1.4088
 5048TIP3    H236636   5.008   5.116   1.027  1.3631  0.5352  0.1721
 5049TIP3   OH236637   2.076   3.509  12.556 -0.1438 -0.1608  0.6359
 5049TIP3    H136638   1.989   3.483  12.588 -0.1646 -0.0500  0.6694
 5049TIP3    H236639   2.083   3.602  12.577 -0.1404 -0.0959  0.3584
 5050TIP3   OH236640   4.176   2.160   5.449  0.0611  0.1226  0.5928
 5050TIP3    H136641   4.217   2.085   5.407  0.5155  0.0637  1.1317
 5050TIP3    H236642   4.229   2.176   5.527 -0.6013  0.4065  0.9936
 5051TIP3   OH236643   2.391   1.447   3.713 -0.3066  0.1086  0.3297
 5051TIP3    H136644   2.321   1.422   3.773 -1.3268  1.3273 -0.3075
 5051TIP3    H236645   2.421   1.365   3.675 -0.6194 -0.5374  1.4272
 5052TIP3   OH236646   3.243   4.555  14.112  0.1879 -0.8584  0.2587
 5052TIP3    H136647   3.185   4.478  14.120  1.4549 -1.8939 -0.1257
 5052TIP3    H236648   3.273   4.572  14.201 -1.4192  0.2827  0.6113
 5053TIP3   OH236649   2.299   3.073   3.096  0.3032  0.2386  0.1043
 5053TIP3    H136650   2.339   3.131   3.161 -0.8132  1.6946 -0.4592
 5053TIP3    H236651   2.284   2.991   3.143  1.2740  0.6195  1.1198
 5054TIP3   OH236652   2.894   0.618   4.957 -0.9425  0.1307 -0.2793
 5054TIP3    H136653   2.990   0.616   4.961 -0.8153 -1.3388 -2.6639
 5054TIP3    H236654   2.866   0.577   5.039  0.4591  0.2764  0.3000
 5055TIP3   OH236655   0.229   5.002  16.733  0.2599  1.0079 -0.3550
 5055TIP3    H136656   0.257   4.911  16.723  1.8190  1.4211 -0.0204
 5055TIP3    H236657   0.306   5.047  16.768 -1.7062  1.6201  3.8608
 5056TIP3   OH236658   3.495   1.520  13.937 -0.2327 -0.2142  0.0468
 5056TIP3    H136659   3.399   1.521  13.943 -0.4178  0.4747 -2.2472
 5056TIP3    H236660   3.523   1.480  14.020 -2.3909  1.4131  1.7115
 5057TIP3   OH236661   4.173   4.038   3.409 -0.1389 -0.8811 -0.3138
 5057TIP3    H136662   4.199   3.992   3.329 -1.0114 -1.1504 -0.4474
 5057TIP3    H236663   4.199   3.979   3.480 -0.5932 -1.2529 -0.4559
 5058TIP3   OH236664   5.551   2.322  14.799  0.3222  0.2465  0.7470
 5058TIP3    H136665   5.535   2.240  14.846 -0.0861  0.3824  0.8445
 5058TIP3    H236666   5.619   2.299  14.735  2.2821  0.4888  2.6171
 5059TIP3   OH236667   6.264   2.997   1.242 -0.3535  0.3722  0.1555
 5059TIP3    H136668   6.328   3.022   1.308 -1.1556  1.1308  0.6688
 5059TIP3    H236669   6.317   2.972   1.166  0.5514  1.0683  0.5359
 5060TIP3   OH236670   1.039   1.353   2.168  0.1989  0.0575 -0.6702
 5060TIP3    H136671   1.101   1.345   2.241  0.4156 -0.3542 -0.8953
 5060TIP3    H236672   1.029   1.264   2.134 -2.0901 -0.2446  0.6191
 5061TIP3   OH236673   6.451   5.398  17.064  0.2610 -0.1567  0.0630
 5061TIP3    H136674   6.505   5.429  17.137 -1.5508  1.8636  0.6674
 5061TIP3    H236675   6.404   5.322  17.100  2.7940 -2.1610 -0.5843
 5062TIP3   OH236676   5.769   5.933   1.889  0.4526 -0.1349  0.2878
 5062TIP3    H136677   5.772   5.950   1.795 -0.2280  3.0041  0.7220
 5062TIP3    H236678   5.830   5.997   1.927 -0.4886 -0.2308  2.0660
 5063TIP3   OH236679   2.936   3.323   4.169 -0.0315 -0.1338 -0.5591
 5063TIP3    H136680   2.853   3.320   4.216  0.4817 -0.1263  0.3685
 5063TIP3    H236681   2.965   3.232   4.164  2.0317  0.0952  3.0915
 5064TIP3   OH236682   3.352   2.427   5.176  0.1750 -1.0441  0.6377
 5064TIP3    H136683   3.346   2.494   5.243 -0.7677 -0.2085 -0.2612
 5064TIP3    H236684   3.427   2.453   5.123 -0.9730  0.0594 -0.4925
 5065TIP3   OH236685   2.398   4.321   4.323  0.5751 -0.1099  0.3407
 5065TIP3    H136686   2.343   4.243   4.318 -0.5164  0.6305  0.4709
 5065TIP3    H236687   2.487   4.289   4.307 -0.1772 -0.9270 -2.8703
 5066TIP3   OH236688   5.234   3.742   0.159 -0.4486  0.2233  0.1793
 5066TIP3    H136689   5.260   3.740   0.251 -0.4996  0.9250  0.2101
 5066TIP3    H236690   5.207   3.652   0.140 -0.6601  0.1282  0.9178
 5067TIP3   OH236691   3.155   5.030   2.997  0.0278 -0.2984  0.1416
 5067TIP3    H136692   3.128   5.094   2.931 -1.2468 -2.5445 -1.6535
 5067TIP3    H236693   3.251   5.035   2.997 -0.0215  1.0347 -0.5275
 5068TIP3   OH236694   3.810   2.279  11.818  0.0407  0.0424  0.0828
 5068TIP3    H136695   3.847   2.363  11.846 -1.2046  0.1473  1.6050
 5068TIP3    H236696   3.721   2.301  11.788 -0.5047 -0.7582  1.0296
 5069TIP3   OH236697   4.901   4.951   0.421 -0.1357  0.2310 -0.5421
 5069TIP3    H136698   4.815   4.993   0.419 -0.3733 -0.2591 -1.0585
 5069TIP3    H236699   4.908   4.913   0.508  0.0122  1.1753 -0.1265
 5070TIP3   OH236700   1.723   4.532   3.471 -0.3630  0.6134 -0.0696
 5070TIP3    H136701   1.741   4.618   3.431  1.7186  0.5947  0.7041
 5070TIP3    H236702   1.728   4.548   3.565 -0.9738 -0.1786  0.1072
 5071TIP3   OH236703   2.644   3.477   3.978  0.2884 -0.6088 -0.0808
 5071TIP3    H136704   2.680   3.408   3.922  0.7119 -0.8949  0.5319
 5071TIP3    H236705   2.551   3.454   3.987  0.1346 -0.3696 -0.9323
 5072TIP3   OH236706   0.274   2.671   1.583 -1.0413 -0.5803 -0.8414
 5072TIP3    H136707   0.226   2.643   1.660  0.5803  0.3689  0.5883
 5072TIP3    H236708   0.352   2.615   1.581  0.4763  1.3893  0.0480
 5073TIP3   OH236709   6.720   1.227   0.615 -0.1999 -0.1853 -0.2912
 5073TIP3    H136710   6.716   1.132   0.616  0.5974 -0.2306 -0.2988
 5073TIP3    H236711   6.629   1.256   0.622 -0.5172 -0.9472 -1.1410
 5074TIP3   OH236712   5.357   1.041  16.550  0.2001  0.1042  0.0551
 5074TIP3    H136713   5.391   1.057  16.639 -1.0048  0.2079  0.5114
 5074TIP3    H236714   5.396   0.958  16.524  0.6370  0.1190  0.6444
 5075TIP3   OH236715   1.738   5.744   3.265  0.4648  0.2812 -0.0231
 5075TIP3    H136716   1.643   5.737   3.274  0.4989 -0.1196  0.0404
 5075TIP3    H236717   1.772   5.661   3.300  0.7707 -0.0423 -1.0441
 5076TIP3   OH236718   6.077   5.917   4.728 -0.2257 -0.4402  0.1319
 5076TIP3    H136719   6.135   5.865   4.672 -1.5871 -0.3550 -1.4402
 5076TIP3    H236720   6.115   5.910   4.815  1.8839 -0.7250 -0.7593
 5077TIP3   OH236721   6.477   2.144   5.310 -0.3788  0.3149 -0.4227
 5077TIP3    H136722   6.532   2.092   5.368 -1.2766  0.7628  0.8819
 5077TIP3    H236723   6.443   2.081   5.246 -1.4146 -0.7305  1.0977
 5078TIP3   OH236724   0.693   3.871   4.208 -0.1586  0.4692 -1.0131
 5078TIP3    H136725   0.674   3.866   4.301 -1.7820 -2.5755 -1.3861
 5078TIP3    H236726   0.624   3.927   4.172  0.8466  2.1967 -0.4062
 5079TIP3   OH236727   3.599   1.430  14.561 -0.7286 -0.8221  0.1045
 5079TIP3    H136728   3.516   1.462  14.527  0.4395  2.1025 -0.3027
 5079TIP3    H236729   3.612   1.346  14.517 -1.2543  0.8501 -3.6261
 5080TIP3   OH236730   1.941   5.764   0.910  0.0460  0.7538  0.2063
 5080TIP3    H136731   1.959   5.686   0.858 -1.5457  0.3365  0.2160
 5080TIP3    H236732   2.015   5.771   0.970 -0.1319 -1.1888  0.7027
 5081TIP3   OH236733   4.873   2.268  11.720 -0.0218 -0.4769  0.1962
 5081TIP3    H136734   4.828   2.188  11.745 -0.4944 -0.3215 -0.1390
 5081TIP3    H236735   4.843   2.286  11.631  0.9593 -0.5432 -0.1582
 5082TIP3   OH236736   1.804   3.328  15.504 -0.1475 -1.0794  0.1898
 5082TIP3    H136737   1.832   3.417  15.483 -2.2745 -0.6619 -1.1917
 5082TIP3    H236738   1.738   3.308  15.438 -2.2302 -2.3647  2.5162
 5083TIP3   OH236739   1.424   1.142   5.356 -0.6112 -0.2272 -0.6498
 5083TIP3    H136740   1.348   1.198   5.369 -0.0368  0.1124  1.8292
 5083TIP3    H236741   1.399   1.058   5.393  0.2767 -0.0263  0.4677
 5084TIP3   OH236742   5.018   3.485   2.776 -0.1030 -0.1525  0.0336
 5084TIP3    H136743   4.949   3.520   2.720  0.9962  1.2088 -0.5281
 5084TIP3    H236744   4.979   3.409   2.818 -1.9429  0.5908 -0.2588
 5085TIP3   OH236745   3.650   1.633   2.907  0.3044  0.1629  0.5079
 5085TIP3    H136746   3.621   1.688   2.833  0.0112 -1.2102 -0.4365
 5085TIP3    H236747   3.571   1.622   2.960  0.4078  0.7776  0.8047
 5086TIP3   OH236748   0.841   3.954   2.614 -0.2802 -0.0288 -0.3634
 5086TIP3    H136749   0.820   3.902   2.537 -0.5038 -0.5438  0.0376
 5086TIP3    H236750   0.875   4.036   2.579 -0.6546 -0.1437 -1.0080
 5087TIP3   OH236751   5.851   1.227   4.129  0.4378 -0.3046  0.3771
 5087TIP3    H136752   5.861   1.223   4.224  2.6349 -1.2991  0.1539
 5087TIP3    H236753   5.899   1.306   4.103  0.4124 -0.4036  0.0223
 5088TIP3   OH236754   6.139   3.416   3.033 -0.1977 -0.3789 -0.4928
 5088TIP3    H136755   6.090   3.340   3.003 -3.2288  1.2635 -0.0629
 5088TIP3    H236756   6.133   3.480   2.961  2.3471 -0.4555 -0.8802
 5089TIP3   OH236757   1.187   5.412  13.972  0.0751 -0.0982  0.0949
 5089TIP3    H136758   1.178   5.318  13.990 -1.6812 -0.3845 -1.8637
 5089TIP3    H236759   1.162   5.421  13.880 -0.7866  2.4296  0.5049
 5090TIP3   OH236760   1.200   5.617  15.842  0.1736  0.5504  0.2683
 5090TIP3    H136761   1.225   5.525  15.835 -2.1766 -0.1190 -0.1997
 5090TIP3    H236762   1.127   5.617  15.904 -1.5591  1.7020 -1.6778
 5091TIP3   OH236763   2.751   3.021  17.046 -0.1530  0.0719 -0.0971
 5091TIP3    H136764   2.799   3.096  17.079 -0.4193  0.3767 -0.3948
 5091TIP3    H236765   2.771   2.951  17.108  0.9756  0.0816 -0.4248
 5092TIP3   OH236766   3.117   6.404   3.828  0.0585  0.1354  0.3478
 5092TIP3    H136767   3.109   6.472   3.761 -0.6939  0.0485  0.3360
 5092TIP3    H236768   3.207   6.373   3.820  0.1743  0.5813 -0.1787
 5093TIP3   OH236769   2.310   5.781  15.727 -0.1437  0.5250 -0.0256
 5093TIP3    H136770   2.351   5.768  15.641  1.0078  2.6102  0.1310
 5093TIP3    H236771   2.381   5.815  15.782 -0.3228 -2.4725  2.3703
 5094TIP3   OH236772   3.472   3.370   1.118 -0.0150 -0.0934  0.4705
 5094TIP3    H136773   3.513   3.435   1.062 -0.1627 -1.3217 -1.1238
 5094TIP3    H236774   3.533   3.359   1.191  1.1621  0.1039 -0.4517
 5095TIP3   OH236775   6.351   2.492  12.627  0.1581  0.8882 -0.1465
 5095TIP3    H136776   6.445   2.482  12.635 -0.0428 -0.0928  1.5203
 5095TIP3    H236777   6.333   2.487  12.533  1.7975  1.6970 -0.5326
 5096TIP3   OH236778   2.680   6.398  13.902  0.0145  0.1022  0.2929
 5096TIP3    H136779   2.709   6.317  13.860  2.3733  0.0314  1.9112
 5096TIP3    H236780   2.584   6.393  13.898  0.0871 -0.9720 -2.8838
 5097TIP3   OH236781   1.572   6.126   2.751 -0.3573  0.6437 -0.1772
 5097TIP3    H136782   1.628   6.199   2.778  0.4804  0.2519 -0.8025
 5097TIP3    H236783   1.588   6.059   2.818 -1.4894  1.1758  0.6671
 5098TIP3   OH236784   5.185   1.961   2.120  0.5636  0.1380 -0.3339
 5098TIP3    H136785   5.133   1.890   2.082 -2.0126  0.6940  1.8374
 5098TIP3    H236786   5.179   2.032   2.056 -0.0164 -0.3401 -0.8269
 5099TIP3   OH236787   4.555   1.248   3.341 -0.2449  0.5420  0.1121
 5099TIP3    H136788   4.532   1.243   3.248  2.2949  0.4545 -0.5992
 5099TIP3    H236789   4.555   1.341   3.361  1.1775  0.7102 -0.5725
 5100TIP3   OH236790   5.007   5.032   1.408  0.5024  0.0325 -0.0598
 5100TIP3    H136791   5.039   4.949   1.443 -0.2501 -0.2001  0.0916
 5100TIP3    H236792   5.079   5.094   1.424  1.2295 -0.6631 -0.5313
 5101TIP3   OH236793   6.526   1.938   0.822 -0.5154 -0.2419  0.2479
 5101TIP3    H136794   6.501   2.029   0.803  1.3225  0.5073  1.1486
 5101TIP3    H236795   6.443   1.892   0.833 -1.4901  1.3720 -0.0103
 5102TIP3   OH236796   1.579   5.179   5.422 -0.5127  0.0101 -0.4551
 5102TIP3    H136797   1.564   5.111   5.487 -0.7101 -0.0629 -0.5778
 5102TIP3    H236798   1.675   5.180   5.411 -0.2817  1.3282  1.2359
 5103TIP3   OH236799   2.869   6.494   2.999 -0.0767  0.4437  0.5537
 5103TIP3    H136800   2.878   6.507   3.093 -0.3731 -2.1146  0.9970
 5103TIP3    H236801   2.825   6.410   2.990 -0.4136  0.7982 -1.8904
 5104TIP3   OH236802   5.043   6.690  12.059 -0.6445 -0.2423 -0.3165
 5104TIP3    H136803   5.097   6.617  12.090 -0.5686 -0.0131  0.0875
 5104TIP3    H236804   4.957   6.674  12.098 -0.2336  0.7030  1.0088
 5105TIP3   OH236805   4.328   5.917  14.208  0.5534  0.6402 -0.1647
 5105TIP3    H136806   4.389   5.849  14.181  1.7811  1.6402 -0.0088
 5105TIP3    H236807   4.257   5.914  14.144  0.1428 -1.3171  0.3150
 5106TIP3   OH236808   1.825   3.530   5.020  0.4698 -0.3178  0.5060
 5106TIP3    H136809   1.756   3.524   4.955  0.8062 -0.6210  0.1713
 5106TIP3    H236810   1.800   3.603   5.077 -0.1239 -0.4317  0.3892
 5107TIP3   OH236811   4.050   1.510   5.525  0.5440  0.2659 -0.1241
 5107TIP3    H136812   4.112   1.472   5.587  0.0156  3.1684  2.4173
 5107TIP3    H236813   3.965   1.475   5.551  0.4529  0.6651  0.1276
 5108TIP3   OH236814   4.193   6.551  13.798  0.1975  0.5928 -0.1030
 5108TIP3    H136815   4.169   6.640  13.770  1.0069  0.9984  0.4567
 5108TIP3    H236816   4.286   6.545  13.780 -0.1135 -0.6723 -1.4801
 5109TIP3   OH236817   4.528   0.746  16.247 -0.4944  0.0911 -0.6514
 5109TIP3    H136818   4.461   0.681  16.268 -0.2134  0.1107  0.3746
 5109TIP3    H236819   4.556   0.780  16.332  1.6062 -0.7408 -0.9469
 5110TIP3   OH236820   5.243   4.366  16.785 -0.5163 -0.3380 -0.2732
 5110TIP3    H136821   5.281   4.351  16.699  3.8889 -1.9071  1.6940
 5110TIP3    H236822   5.297   4.435  16.824 -3.2649  1.3497  0.8932
 5111TIP3   OH236823   1.715   0.426   3.120  0.0693 -0.0734 -0.2354
 5111TIP3    H136824   1.619   0.432   3.118  0.0081 -0.4696  0.9714
 5111TIP3    H236825   1.742   0.497   3.178  0.2871 -1.6786  1.7574
 5112TIP3   OH236826   5.152   6.069   4.379  0.1252 -0.6948 -0.1417
 5112TIP3    H136827   5.205   6.099   4.305  1.5641 -1.9262  0.3311
 5112TIP3    H236828   5.075   6.029   4.338 -0.7568  1.5572 -0.8224
 5113TIP3   OH236829   1.897   0.927  14.084 -0.0310  0.2217  0.6041
 5113TIP3    H136830   1.987   0.958  14.097  0.2721 -0.3805  0.0115
 5113TIP3    H236831   1.893   0.905  13.991 -1.0007  0.8813  0.4844
 5114TIP3   OH236832   6.577   3.617  15.721  0.2146 -0.1548 -0.1788
 5114TIP3    H136833   6.579   3.666  15.639 -0.2587  0.4515  0.1608
 5114TIP3    H236834   6.560   3.527  15.695 -1.9608  0.3376 -0.6473
 5115TIP3   OH236835   5.535   3.793   3.615  0.7463  0.0839  0.4140
 5115TIP3    H136836   5.492   3.811   3.698 -1.3642 -0.2238 -0.5328
 5115TIP3    H236837   5.507   3.705   3.592  1.5820  0.0260 -0.4613
 5116TIP3   OH236838   0.869   4.567   2.818  0.6212 -0.3424  0.3836
 5116TIP3    H136839   0.950   4.516   2.813  1.2022  0.5594  0.3594
 5116TIP3    H236840   0.801   4.507   2.787  1.2840 -1.0986  0.3615
 5117TIP3   OH236841   4.336   4.422  13.889  0.1651  0.0239 -0.4205
 5117TIP3    H136842   4.357   4.341  13.844  1.4551 -0.5347  1.0876
 5117TIP3    H236843   4.259   4.456  13.843  0.4275 -1.3220 -1.9511
 5118TIP3   OH236844   0.091   2.452   5.473 -0.1371 -0.5642 -0.5958
 5118TIP3    H136845   0.132   2.527   5.517 -0.9352 -0.4119 -0.1011
 5118TIP3    H236846   0.114   2.377   5.529 -0.7499 -0.4396 -0.1696
 5119TIP3   OH236847   2.565   1.645  16.067 -0.1948 -0.0621 -0.5073
 5119TIP3    H136848   2.533   1.569  16.116  0.8618 -1.1325 -1.4308
 5119TIP3    H236849   2.640   1.676  16.118  1.3628 -1.6238 -1.7589
 5120TIP3   OH236850   1.488   1.164  16.467 -0.5149  0.2309 -0.0479
 5120TIP3    H136851   1.535   1.080  16.473  0.9220  0.9854 -0.1873
 5120TIP3    H236852   1.553   1.229  16.493 -2.0431  1.2028  1.5440
 5121TIP3   OH236853   0.096   2.116   3.852 -0.4014 -0.0500 -0.3054
 5121TIP3    H136854   0.132   2.106   3.940 -0.1989  1.3404 -0.1991
 5121TIP3    H236855   0.012   2.070   3.854 -0.2136 -0.3624  0.4936
 5122TIP3   OH236856   5.860   3.219   3.662 -0.3876 -0.6269 -0.1969
 5122TIP3    H136857   5.876   3.193   3.753  0.8577 -1.9738 -0.7472
 5122TIP3    H236858   5.788   3.164   3.634  0.1714 -1.2631 -0.4240
 5123TIP3   OH236859   0.183   5.974   2.531  0.1857 -0.0542  0.1367
 5123TIP3    H136860   0.103   6.020   2.504 -0.5889  0.0560  2.4001
 5123TIP3    H236861   0.245   6.044   2.551  0.1907 -0.0842  0.2271
 5124TIP3   OH236862   6.642   1.536  12.787 -0.1333  0.0894 -0.5862
 5124TIP3    H136863   6.635   1.549  12.692  1.9459 -0.1745 -0.8176
 5124TIP3    H236864   6.705   1.465  12.797  0.1478  0.5287  1.0185
 5125TIP3   OH236865   5.752   3.957   4.029  0.0364  1.3023  0.1717
 5125TIP3    H136866   5.790   3.968   4.116  0.0326 -1.6815  0.6472
 5125TIP3    H236867   5.818   3.906   3.980 -0.9818  0.8578 -0.7861
 5126TIP3   OH236868   6.748   6.650   4.525 -0.0604 -0.4517 -0.6169
 5126TIP3    H136869   6.736   6.591   4.599  1.4868  0.9814  0.8602
 5126TIP3    H236870   6.801   6.600   4.463  0.4702 -0.9273  0.1990
 5127TIP3   OH236871   5.864   3.576  15.610  0.1224  0.0054  0.1604
 5127TIP3    H136872   5.795   3.541  15.666 -1.1695  2.5552  0.3258
 5127TIP3    H236873   5.819   3.597  15.527  0.9906  0.4173 -0.2245
 5128TIP3   OH236874   3.052   4.452   6.968 -0.5167  0.0555 -0.5554
 5128TIP3    H136875   3.029   4.492   6.884 -0.3833  2.5204  0.4962
 5128TIP3    H236876   3.071   4.526   7.026 -0.6044 -1.5441  1.6716
 5129TIP3   OH236877   4.427   1.871  13.389  0.5387 -0.0491  0.4611
 5129TIP3    H136878   4.357   1.834  13.443  1.0128  0.9030  1.7773
 5129TIP3    H236879   4.475   1.930  13.448  2.1038 -0.2343 -0.5623
 5130TIP3   OH236880   3.722   1.647  13.862 -0.1236  0.0510  0.3290
 5130TIP3    H136881   3.746   1.662  13.954  1.4369  0.5141 -0.1256
 5130TIP3    H236882   3.637   1.603  13.866 -1.0989  1.9408  1.9425
 5131TIP3   OH236883   2.264   3.103  13.718 -0.6155 -0.1521  0.5991
 5131TIP3    H136884   2.205   3.028  13.708 -0.9531  0.2579 -0.6111
 5131TIP3    H236885   2.283   3.106  13.812 -0.7682 -1.6211  0.7014
 5132TIP3   OH236886   1.671   5.985   4.095 -0.2464 -0.2091 -0.3879
 5132TIP3    H136887   1.715   5.941   4.168  1.2454  2.1958  0.2774
 5132TIP3    H236888   1.704   5.940   4.017 -0.1287 -1.3603  0.3010
 5133TIP3   OH236889   2.440   3.623  16.806 -0.4996  0.0960  0.1362
 5133TIP3    H136890   2.376   3.587  16.867 -1.0396  0.1484 -0.3948
 5133TIP3    H236891   2.446   3.716  16.830  1.6078 -0.4530  2.1405
 5134TIP3   OH236892   6.412   5.225   0.711 -0.2596 -0.0777  0.4672
 5134TIP3    H136893   6.352   5.298   0.694  0.2694  0.2972  0.1573
 5134TIP3    H236894   6.445   5.242   0.800 -0.5419 -0.2306  0.6001
 5135TIP3   OH236895   0.581   6.025  16.255 -0.0497  0.5660  0.2211
 5135TIP3    H136896   0.551   6.079  16.182  0.3312  0.8384  0.2647
 5135TIP3    H236897   0.604   6.087  16.323  2.6770  0.5392 -0.5582
 5136TIP3   OH236898   3.747   1.440   0.370 -0.3353 -0.2225 -0.2549
 5136TIP3    H136899   3.817   1.401   0.421 -0.8480 -0.9379 -0.0831
 5136TIP3    H236900   3.788   1.514   0.325  0.1724  0.3207  1.0433
 5137TIP3   OH236901   0.255   6.258   5.598 -0.0878  0.2527 -0.2580
 5137TIP3    H136902   0.288   6.333   5.548 -1.6830 -0.1726 -2.0437
 5137TIP3    H236903   0.325   6.193   5.592 -0.3248  0.1388 -2.1584
 5138TIP3   OH236904   6.195   2.245   1.344  0.1632  0.6004 -0.2091
 5138TIP3    H136905   6.145   2.201   1.276 -2.3865  0.6905  1.4716
 5138TIP3    H236906   6.216   2.175   1.406 -1.2605  1.1725  0.9688
 5139TIP3   OH236907   2.373   4.001  13.116  0.4556 -0.3764 -0.9606
 5139TIP3    H136908   2.364   4.037  13.028  0.0863  0.6599 -0.5149
 5139TIP3    H236909   2.288   4.018  13.158  0.1874 -1.9918 -0.8037
 5140TIP3   OH236910   4.400   5.066  13.937 -0.8418 -0.3761 -0.0970
 5140TIP3    H136911   4.428   5.150  13.900 -2.4504 -0.4978 -1.7103
 5140TIP3    H236912   4.477   5.034  13.983  0.0672  1.5947 -0.1265
 5141TIP3   OH236913   4.747   4.652  11.066  0.0238  0.3025  0.4524
 5141TIP3    H136914   4.666   4.631  11.110  0.6966 -0.7342  1.2213
 5141TIP3    H236915   4.771   4.739  11.099 -1.0823  0.9027 -0.2740
 5142TIP3   OH236916   2.566   5.123   2.868 -0.2463  0.6591 -0.1496
 5142TIP3    H136917   2.564   5.093   2.777  0.5513  0.1752 -0.0175
 5142TIP3    H236918   2.485   5.172   2.879 -1.1641 -0.6837 -0.6424
 5143TIP3   OH236919   1.154   4.843  15.526  0.5279  0.6148  0.3472
 5143TIP3    H136920   1.064   4.868  15.503 -0.2206 -0.9101  1.3949
 5143TIP3    H236921   1.192   4.921  15.565 -0.3236  1.3048 -0.1785
 5144TIP3   OH236922   1.513   3.662  16.817  0.5028 -0.0562  0.1199
 5144TIP3    H136923   1.591   3.621  16.779  0.5151 -0.1113  0.2066
 5144TIP3    H236924   1.472   3.593  16.869 -0.8733 -0.7562 -1.7559
 5145TIP3   OH236925   0.581   5.108  12.297  0.0246 -0.2875  0.6536
 5145TIP3    H136926   0.572   5.179  12.233 -0.0895  0.7267  1.7618
 5145TIP3    H236927   0.492   5.076  12.309 -0.4276  1.4093  2.3459
 5146TIP3   OH236928   4.072   2.809  14.127  0.2368  0.3484 -0.0864
 5146TIP3    H136929   4.097   2.852  14.209 -0.3765 -2.6704  1.8417
 5146TIP3    H236930   3.979   2.827  14.118  0.1930  0.2565  0.1723
 5147TIP3   OH236931   5.310   4.861  12.630  0.1492 -0.0705  0.4100
 5147TIP3    H136932   5.288   4.871  12.537 -0.8649 -0.6493  0.5749
 5147TIP3    H236933   5.382   4.798  12.631 -0.2954 -0.5913  0.0596
 5148TIP3   OH236934   4.822   0.107  15.759  0.2061 -0.8488 -0.0545
 5148TIP3    H136935   4.844   0.108  15.666  0.4031  0.6362 -0.0174
 5148TIP3    H236936   4.839   0.197  15.788 -0.8571 -1.0238  1.1760
 5149TIP3   OH236937   0.487   1.258  16.842 -0.5227 -0.0751 -0.3590
 5149TIP3    H136938   0.501   1.309  16.762 -0.9112 -0.3691 -0.6164
 5149TIP3    H236939   0.554   1.191  16.840 -0.3431  0.1009 -0.2868
 5150TIP3   OH236940   0.577   6.446  16.007  0.0829 -0.4349  0.0931
 5150TIP3    H136941   0.524   6.448  15.928 -0.0289 -0.0947  0.1774
 5150TIP3    H236942   0.650   6.505  15.989 -0.4377  0.3711  0.5927
 5151TIP3   OH236943   4.262   2.990   2.691 -0.2566 -0.5466 -0.1114
 5151TIP3    H136944   4.298   2.995   2.779 -1.8165 -3.1712  0.8036
 5151TIP3    H236945   4.331   2.950   2.639  0.3580  0.2075  0.1094
 5152TIP3   OH236946   4.454   1.155  12.269  0.0234 -0.7209 -0.2736
 5152TIP3    H136947   4.384   1.137  12.207 -1.1391 -0.5280  0.9253
 5152TIP3    H236948   4.530   1.106  12.236 -0.2747  0.1093 -2.3002
 5153TIP3   OH236949   0.672   1.398   5.036 -0.1700  1.3479  0.1677
 5153TIP3    H136950   0.691   1.395   4.942 -2.2817 -1.2302 -0.3036
 5153TIP3    H236951   0.588   1.445   5.041 -0.8887  0.0644  0.5411
 5154TIP3   OH236952   2.408   1.510   1.216 -0.2610 -0.2344 -0.3609
 5154TIP3    H136953   2.316   1.492   1.235  0.0787 -0.7167  0.9765
 5154TIP3    H236954   2.438   1.434   1.166 -0.2786 -0.7042  0.3287
 5155TIP3   OH236955   1.512   2.373  13.092 -0.4339  0.3123  0.3652
 5155TIP3    H136956   1.595   2.364  13.139  0.3157 -0.5369 -1.0593
 5155TIP3    H236957   1.525   2.448  13.034 -0.0658 -0.7151 -0.9500
 5156TIP3   OH236958   1.831   0.535  16.813 -0.6513  0.2518  0.0154
 5156TIP3    H136959   1.809   0.449  16.849  0.2415  0.0937  0.2191
 5156TIP3    H236960   1.890   0.516  16.740 -0.4085  0.6921  0.0947
 5157TIP3   OH236961   5.742   6.468   1.056 -0.1906 -0.2524 -0.2759
 5157TIP3    H136962   5.830   6.500   1.040 -0.4325  0.5903 -0.0152
 5157TIP3    H236963   5.738   6.454   1.151 -1.0630  2.1189  0.1141
 5158TIP3   OH236964   2.175   6.125  13.584 -0.0411  0.4895 -0.3734
 5158TIP3    H136965   2.227   6.203  13.603  0.5449 -0.1668  0.9024
 5158TIP3    H236966   2.239   6.054  13.579 -0.7131 -0.1845  0.2917
 5159TIP3   OH236967   5.827   5.289   0.580  0.3763 -0.0682 -0.6464
 5159TIP3    H136968   5.790   5.220   0.636  1.1777 -0.0719 -0.1087
 5159TIP3    H236969   5.809   5.370   0.628  0.0619  0.0414 -0.9404
 5160TIP3   OH236970   2.912   2.051   5.303  0.3033  0.1472  0.5395
 5160TIP3    H136971   2.949   2.130   5.264 -0.5121  0.0627 -0.4390
 5160TIP3    H236972   2.987   2.008   5.345  1.0975  0.5513 -0.4121
 5161TIP3   OH236973   0.488   2.949  15.378 -0.4693  0.3984 -0.2190
 5161TIP3    H136974   0.476   2.856  15.396 -3.5981  0.6007 -0.6508
 5161TIP3    H236975   0.557   2.977  15.438  1.7840 -2.4698 -1.2420
 5162TIP3   OH236976   2.333   1.199  16.141  0.0528  0.2483 -0.3272
 5162TIP3    H136977   2.349   1.227  16.051  0.2385  0.3020 -0.2788
 5162TIP3    H236978   2.239   1.187  16.146 -0.0469  0.9739 -0.3263
 5163TIP3   OH236979   1.992   1.747   0.185  0.3304 -0.7299  0.0100
 5163TIP3    H136980   2.069   1.699   0.215 -0.2936 -0.9426  1.3802
 5163TIP3    H236981   1.918   1.696   0.218 -0.4785 -1.4850 -2.7709
 5164TIP3   OH236982   5.093   3.175  16.927  0.0944 -0.4591 -0.5104
 5164TIP3    H136983   5.087   3.200  17.019 -0.4281  0.4471 -0.7739
 5164TIP3    H236984   5.162   3.231  16.892 -2.0045  1.7983 -1.4227
 5165TIP3   OH236985   2.047   2.324  11.932  0.0827  0.0787 -0.1111
 5165TIP3    H136986   2.106   2.250  11.946  0.5434  0.1074 -1.6517
 5165TIP3    H236987   2.105   2.398  11.911 -0.4465 -0.0990 -2.5375
 5166TIP3   OH236988   1.724   6.281  10.765  0.3148  0.1245 -0.0403
 5166TIP3    H136989   1.671   6.305  10.689 -0.2267 -1.3556 -0.1555
 5166TIP3    H236990   1.793   6.225  10.729  1.9227  1.8757  0.1332
 5167TIP3   OH236991   3.776   5.607  11.388 -0.5149 -0.0572  0.2608
 5167TIP3    H136992   3.868   5.579  11.381 -0.0530  1.5544 -0.5505
 5167TIP3    H236993   3.739   5.550  11.456  1.4192  0.0900  1.5238
 5168TIP3   OH236994   1.139   6.846   1.591  1.0813 -0.0379  0.3505
 5168TIP3    H136995   1.116   6.939   1.589  1.0439 -0.0414  0.5778
 5168TIP3    H236996   1.085   6.809   1.661 -2.4395 -1.2098 -2.6948
 5169TIP3   OH236997   1.954   6.129   5.262 -0.2569  0.2231 -0.0100
 5169TIP3    H136998   2.013   6.120   5.187  0.9648 -1.4126  1.0820
 5169TIP3    H236999   2.011   6.146   5.336 -1.3913  1.1417  0.6776
 5170TIP3   OH237000   4.201   2.079  13.464 -0.0222  0.1940  0.3509
 5170TIP3    H137001   4.289   2.108  13.488 -0.2263  0.9751  0.1750
 5170TIP3    H237002   4.208   1.983  13.460  0.8569  0.2578  0.1778
 5171TIP3   OH237003   0.796   6.058  15.950 -0.3389  0.1336 -0.0263
 5171TIP3    H137004   0.843   5.976  15.962 -0.9434 -0.2073  0.0778
 5171TIP3    H237005   0.849   6.123  15.995  1.0442  0.1214 -1.5734
 5172TIP3   OH237006   5.903   3.939  16.369  0.2652  0.5021 -0.1118
 5172TIP3    H137007   5.878   3.931  16.277 -2.6237  0.2100  0.5930
 5172TIP3    H237008   5.898   3.850  16.404  0.0666  0.7838  0.6075
 5173TIP3   OH237009   2.695   4.174   3.791 -0.1801 -0.1074 -0.5114
 5173TIP3    H137010   2.697   4.230   3.713  1.0560  0.5785 -0.0094
 5173TIP3    H237011   2.682   4.234   3.864  0.1144 -0.5876 -0.0589
 5174TIP3   OH237012   5.967   3.053  10.195  0.3211 -0.0078  0.1924
 5174TIP3    H137013   6.020   3.075  10.272 -0.4689  1.9925  0.2058
 5174TIP3    H237014   5.877   3.052  10.227  0.0979 -0.4559 -0.4411
 5175TIP3   OH237015   0.169   2.920  11.352 -0.0028 -0.1709  0.2444
 5175TIP3    H137016   0.185   2.867  11.274 -1.1415 -2.8758  1.7243
 5175TIP3    H237017   0.256   2.938  11.387  0.5014  0.7288 -1.3543
 5176TIP3   OH237018   2.742   5.890  10.429 -0.1481 -0.1688  0.0181
 5176TIP3    H137019   2.666   5.917  10.378 -1.0389 -1.8612  0.3578
 5176TIP3    H237020   2.790   5.830  10.371 -1.0830 -1.9797  1.0265
 5177TIP3   OH237021   4.952   2.358   2.641  1.4141  0.3060  0.4417
 5177TIP3    H137022   4.936   2.269   2.672 -0.5842  0.5577  0.3041
 5177TIP3    H237023   4.893   2.412   2.694  2.5480  1.5619  0.4885
 5178TIP3   OH237024   2.528   1.344  11.858  0.1780  0.8292  0.3577
 5178TIP3    H137025   2.540   1.318  11.767  0.7549 -2.8515  1.2975
 5178TIP3    H237026   2.438   1.376  11.862  0.6253  2.5710 -1.7153
 5179TIP3   OH237027   3.583   5.367  16.680  0.0789  0.3603  0.0408
 5179TIP3    H137028   3.664   5.416  16.674  0.1554  0.4886  1.5821
 5179TIP3    H237029   3.558   5.374  16.772 -0.1681 -2.0646  0.2311
 5180TIP3   OH237030   6.724   0.925  16.086 -0.3389  0.5680 -0.2204
 5180TIP3    H137031   6.758   0.936  15.998 -0.1256 -1.2508 -0.3948
 5180TIP3    H237032   6.768   0.847  16.120 -1.7607  0.1617  0.8013
 5181TIP3   OH237033   1.962   5.418   2.781  0.0180  0.7285  0.2029
 5181TIP3    H137034   1.990   5.415   2.689 -2.8121 -0.8349 -0.7284
 5181TIP3    H237035   2.044   5.417   2.831  1.6392  0.4647 -2.2722
 5182TIP3   OH237036   4.679   6.115  12.415  0.6443  0.5457 -0.1863
 5182TIP3    H137037   4.606   6.082  12.468  0.9599  0.6431  0.3150
 5182TIP3    H237038   4.737   6.040  12.404  1.7642  1.0928  1.6337
 5183TIP3   OH237039   2.414   1.175   3.568  0.9374 -0.1538  0.1716
 5183TIP3    H137040   2.497   1.127   3.563  0.5375 -0.7704 -2.5795
 5183TIP3    H237041   2.349   1.109   3.590  0.5665 -0.7985 -2.4393
 5184TIP3   OH237042   3.786   2.450  12.101 -0.0077  0.3039 -0.6146
 5184TIP3    H137043   3.872   2.484  12.127  0.7506 -0.6704 -1.7468
 5184TIP3    H237044   3.744   2.426  12.184  1.6015 -1.0023 -0.1062
 5185TIP3   OH237045   2.314   1.503  12.435 -0.0778 -0.2069 -0.0800
 5185TIP3    H137046   2.404   1.474  12.449  0.3256 -0.4961 -2.8347
 5185TIP3    H237047   2.266   1.423  12.414 -0.5137  0.2029 -0.6665
 5186TIP3   OH237048   0.683   6.619  10.111 -0.2514  0.2357  0.4061
 5186TIP3    H137049   0.722   6.700  10.143 -1.1590  1.3400 -1.1424
 5186TIP3    H237050   0.754   6.576  10.063 -0.0337  0.5926  0.4059
 5187TIP3   OH237051   6.219   2.125   4.984  0.4804  0.0191 -0.2333
 5187TIP3    H137052   6.149   2.070   4.950 -0.2171 -0.5692  1.9923
 5187TIP3    H237053   6.175   2.191   5.037  1.5271  0.3458  0.2616
 5188TIP3   OH237054   6.169   4.933  13.322  0.5206  0.1034 -0.3025
 5188TIP3    H137055   6.080   4.960  13.299  0.3850  1.1502  1.3395
 5188TIP3    H237056   6.162   4.903  13.412  1.9417  0.8141  0.0638
 5189TIP3   OH237057   2.322   4.027  11.320 -0.0944  0.0056 -0.2862
 5189TIP3    H137058   2.331   4.073  11.403 -1.2551  1.1046 -0.7344
 5189TIP3    H237059   2.408   4.034  11.279  0.3651 -0.1878  0.6210
 5190TIP3   OH237060   1.230   5.389   4.120 -0.4728 -0.5012  0.2041
 5190TIP3    H137061   1.310   5.342   4.144 -0.4929  0.4301  2.3315
 5190TIP3    H237062   1.179   5.326   4.069  1.2840 -1.3411 -0.5848
 5191TIP3   OH237063   0.751   4.928   4.668  0.3200  0.1876 -0.0354
 5191TIP3    H137064   0.804   5.001   4.637 -0.2006  0.1247 -1.1231
 5191TIP3    H237065   0.796   4.850   4.637  0.5828  0.0560  0.6569
 5192TIP3   OH237066   4.094   5.987   1.145  0.0301  0.2793  0.7866
 5192TIP3    H137067   4.039   5.967   1.070 -0.9073 -1.8571  1.9610
 5192TIP3    H237068   4.177   5.942   1.128  0.4926  1.3126  0.2280
 5193TIP3   OH237069   4.770   5.069   2.912 -0.3070 -0.0466 -0.1947
 5193TIP3    H137070   4.766   4.998   2.849 -0.4464 -0.5036  0.3281
 5193TIP3    H237071   4.860   5.102   2.905  0.7590 -2.2626  1.7042
 5194TIP3   OH237072   4.816   3.804  16.199 -0.5378  0.1725  0.2275
 5194TIP3    H137073   4.792   3.885  16.245 -1.6980  0.9534 -1.5959
 5194TIP3    H237074   4.732   3.766  16.173  0.0111 -1.5384  0.8802
 5195TIP3   OH237075   3.876   3.985  11.123 -0.2806  0.3499 -0.3067
 5195TIP3    H137076   3.949   3.968  11.183  1.2809  2.7171 -1.4073
 5195TIP3    H237077   3.904   3.947  11.040 -1.6311 -1.2779 -0.0681
 5196TIP3   OH237078   0.205   2.688   3.373  0.7278 -0.1170  0.0404
 5196TIP3    H137079   0.110   2.675   3.380  0.8471 -0.6873  0.7501
 5196TIP3    H237080   0.216   2.781   3.354 -0.1931 -0.7323 -4.8052
 5197TIP3   OH237081   2.841   0.279  10.583  0.0921  0.3277 -0.6437
 5197TIP3    H137082   2.878   0.366  10.567  0.3978  0.5316  0.9256
 5197TIP3    H237083   2.887   0.248  10.661 -1.5434 -0.3112  0.1231
 5198TIP3   OH237084   2.861   3.010   3.222  0.2870  0.1889 -0.0765
 5198TIP3    H137085   2.844   3.000   3.128  2.6383 -1.0637 -0.4501
 5198TIP3    H237086   2.884   2.923   3.252  0.4010  0.7235  1.5083
 5199TIP3   OH237087   3.033   6.459  11.500 -0.2023  0.0544 -0.7109
 5199TIP3    H137088   2.984   6.393  11.550 -0.1520  0.8526  0.4263
 5199TIP3    H237089   3.125   6.441  11.519 -0.2251  1.1187  0.5040
 5200TIP3   OH237090   1.648   5.174  14.139 -0.3885  0.3613 -0.4787
 5200TIP3    H137091   1.601   5.226  14.074  0.0519 -0.9442 -1.9097
 5200TIP3    H237092   1.660   5.233  14.214 -0.8376  1.9464 -1.6089
 5201TIP3   OH237093   0.130   0.693  16.757 -0.9571 -0.2118 -0.5472
 5201TIP3    H137094   0.040   0.689  16.789 -0.1770  0.1850  1.9278
 5201TIP3    H237095   0.180   0.642  16.821  0.7145  0.4688 -1.2639
 5202TIP3   OH237096   5.851   3.964  12.773  0.4713  0.1110  1.1742
 5202TIP3    H137097   5.764   3.999  12.792 -0.5757 -0.7786 -1.5413
 5202TIP3    H237098   5.843   3.869  12.788  0.8484 -0.0309  0.5226
 5203TIP3   OH237099   5.008   3.341   5.095  0.5495  0.1172 -0.1528
 5203TIP3    H137100   4.957   3.416   5.064  0.9294  0.9731  1.2491
 5203TIP3    H237101   4.959   3.265   5.062 -1.7279  0.8847  1.2228
 5204TIP3   OH237102   1.685   0.930  14.842 -0.0096  0.8997  0.1846
 5204TIP3    H137103   1.741   0.982  14.900  0.9591  0.6852 -0.5427
 5204TIP3    H237104   1.737   0.917  14.763  0.6697 -2.9022  1.0647
 5205TIP3   OH237105   5.241   5.833   4.870  0.2548 -0.2232 -0.1426
 5205TIP3    H137106   5.191   5.768   4.820 -0.0684  0.8999 -1.3116
 5205TIP3    H237107   5.245   5.796   4.958 -0.6058 -1.4556 -0.5868
 5206TIP3   OH237108   5.447   3.883  15.042 -0.1946  0.0552 -0.4359
 5206TIP3    H137109   5.375   3.835  15.000 -0.7288 -0.0959  0.6320
 5206TIP3    H237110   5.523   3.864  14.986 -0.5674 -1.3320 -0.5296
 5207TIP3   OH237111   1.269   1.634   5.571 -0.1410 -0.2263 -0.2235
 5207TIP3    H137112   1.298   1.587   5.649 -1.0523  0.9099  0.8558
 5207TIP3    H237113   1.187   1.676   5.597 -0.6207 -0.0402 -1.8947
 5208TIP3   OH237114   4.958   5.346  10.630  0.1550 -0.2386 -1.0201
 5208TIP3    H137115   4.898   5.282  10.593 -2.6559  1.0516  0.8873
 5208TIP3    H237116   5.014   5.296  10.690 -2.7648 -0.9568  1.3584
 5209TIP3   OH237117   2.619   2.541   2.697 -0.6550  0.3529 -0.2424
 5209TIP3    H137118   2.607   2.459   2.649  1.0156 -0.7999  1.2001
 5209TIP3    H237119   2.711   2.565   2.682 -1.3926  2.7111 -1.6626
 5210TIP3   OH237120   4.887   4.771   6.709  0.2942 -0.2565 -0.4983
 5210TIP3    H137121   4.911   4.694   6.659  2.2848  0.3507 -0.5412
 5210TIP3    H237122   4.795   4.757   6.731  0.3212 -2.1313 -1.3850
 5211TIP3   OH237123   6.662   3.071  12.627 -0.0558  0.0064 -0.0356
 5211TIP3    H137124   6.683   2.990  12.674 -2.5239 -1.0347 -0.5533
 5211TIP3    H237125   6.666   3.048  12.535 -5.0439 -1.0552 -0.3081
 5212TIP3   OH237126   3.762   6.556  15.247  0.0920  0.5280  0.1983
 5212TIP3    H137127   3.725   6.472  15.220  0.2535  0.2195  0.9022
 5212TIP3    H237128   3.842   6.565  15.195  0.0952  0.2264  0.1479
 5213TIP3   OH237129   4.581   6.809  12.098  0.2468 -0.5777  0.3320
 5213TIP3    H137130   4.631   6.851  12.029 -0.6554 -1.3829 -0.8662
 5213TIP3    H237131   4.501   6.861  12.106  0.6395 -0.0954  1.2649
 5214TIP3   OH237132   6.525   5.627  13.317  0.0001  0.0004  0.4982
 5214TIP3    H137133   6.542   5.689  13.388  0.0429  1.0052 -0.3509
 5214TIP3    H237134   6.492   5.682  13.246 -1.3898 -1.1546  0.2032
 5215TIP3   OH237135   2.305   3.008   1.771 -0.7187 -0.1638  0.0250
 5215TIP3    H137136   2.228   3.010   1.828  0.6187  1.2406  1.9025
 5215TIP3    H237137   2.361   3.079   1.803  1.6311 -1.4969 -0.8789
 5216TIP3   OH237138   2.837   5.339  11.851 -0.5444  0.3616  0.1988
 5216TIP3    H137139   2.857   5.268  11.912  0.2403  0.6898  0.3379
 5216TIP3    H237140   2.823   5.415  11.908  0.8510  0.8264 -0.0363
 5217TIP3   OH237141   3.638   0.296   0.461  0.3855 -0.3549  0.5891
 5217TIP3    H137142   3.602   0.323   0.546 -0.0841  0.4030  0.1605
 5217TIP3    H237143   3.568   0.247   0.419 -0.1981  1.1504 -0.2594
 5218TIP3   OH237144   1.900   1.961   0.677 -0.1912 -0.5971 -0.2688
 5218TIP3    H137145   1.931   1.891   0.734 -0.3677  0.1552  0.7742
 5218TIP3    H237146   1.881   2.034   0.736  2.1943  1.1709 -1.5151
 5219TIP3   OH237147   1.466   6.395  10.208 -0.0013  0.7290 -0.0707
 5219TIP3    H137148   1.555   6.387  10.242 -0.1278  0.4829  0.2005
 5219TIP3    H237149   1.461   6.486  10.176  0.1580  0.9204  0.4441
 5220TIP3   OH237150   5.343   4.139  11.392 -0.3340  0.2766 -0.0513
 5220TIP3    H137151   5.267   4.091  11.425  0.7171  0.4089  2.8527
 5220TIP3    H237152   5.416   4.107  11.445  0.9348  2.9075 -0.0639
 5221TIP3   OH237153   6.757   5.545   5.267  0.8900  0.1921 -0.0439
 5221TIP3    H137154   6.785   5.617   5.325  0.5957 -0.0892  0.4517
 5221TIP3    H237155   6.823   5.477   5.280  0.5637 -0.0594  0.3314
 5222TIP3   OH237156   2.013   6.442   2.839  0.0181  0.2546  0.2479
 5222TIP3    H137157   2.051   6.423   2.925  1.8174  0.7042 -0.4040
 5222TIP3    H237158   2.048   6.373   2.782 -0.7020  0.2941 -0.2503
 5223TIP3   OH237159   0.894   1.559  13.207  0.0541 -0.2550  0.2937
 5223TIP3    H137160   0.836   1.632  13.187 -1.1615 -0.7729  1.7267
 5223TIP3    H237161   0.966   1.599  13.256  1.2764  0.4730 -1.9407
 5224TIP3   OH237162   2.893   5.870  13.190 -0.3158  0.0060  0.2493
 5224TIP3    H137163   2.872   5.841  13.279 -0.3435  0.6469  0.4549
 5224TIP3    H237164   2.813   5.912  13.158  0.3029  1.5957  0.6812
 5225TIP3   OH237165   1.067   6.827   5.337  0.5354  0.5737 -0.0264
 5225TIP3    H137166   1.140   6.884   5.362 -0.4188  1.2177  1.3899
 5225TIP3    H237167   1.110   6.749   5.300  1.9506  0.8897  0.8670
 5226TIP3   OH237168   2.987   2.598  10.415 -0.0591  0.4403 -0.6541
 5226TIP3    H137169   2.952   2.668  10.361 -2.0271  0.3344  0.3800
 5226TIP3    H237170   2.911   2.544  10.438  0.9254 -0.3778  0.9389
 5227TIP3   OH237171   4.037   4.706   2.578 -0.5202 -0.2621 -0.3218
 5227TIP3    H137172   4.072   4.619   2.554 -1.6867 -0.7829 -0.1909
 5227TIP3    H237173   3.952   4.687   2.617 -1.3253  1.0246 -1.3692
 5228TIP3   OH237174   2.053   5.985  16.146 -0.0093  0.3272 -0.0508
 5228TIP3    H137175   2.120   6.026  16.201  1.2215  0.6660 -1.7062
 5228TIP3    H237176   2.097   5.909  16.108 -0.2899  0.9363 -1.7042
 5229TIP3   OH237177   6.713   1.682   2.733 -0.2926 -0.7082 -0.4165
 5229TIP3    H137178   6.633   1.646   2.771  0.2449 -0.9359  0.5062
 5229TIP3    H237179   6.757   1.607   2.693 -0.7197 -0.5160 -1.2824
 5230TIP3   OH237180   4.880   2.914   2.405 -0.2388  0.0862  0.2949
 5230TIP3    H137181   4.884   2.843   2.342  1.6002  0.4179 -0.0142
 5230TIP3    H237182   4.890   2.872   2.491  0.1468 -0.0956  0.1603
 5231TIP3   OH237183   6.709   3.148   1.627 -0.1171 -0.5215  0.0522
 5231TIP3    H137184   6.667   3.195   1.698  2.9775  1.4097  0.7937
 5231TIP3    H237185   6.784   3.104   1.667  0.3803 -1.3112 -1.6219
 5232TIP3   OH237186   0.690   0.975   2.915 -0.3315  0.1882 -0.8761
 5232TIP3    H137187   0.674   0.936   2.829 -0.2227 -0.5057 -0.5923
 5232TIP3    H237188   0.704   0.900   2.973  0.1742  0.6645 -0.3688
 5233TIP3   OH237189   4.662   5.360   0.588  0.9784  0.7138 -0.1651
 5233TIP3    H137190   4.735   5.417   0.561  1.9508 -0.5085 -0.2097
 5233TIP3    H237191   4.598   5.420   0.626  1.5563  1.9486 -1.0540
 5234TIP3   OH237192   5.929   4.976   4.531  0.2294  0.3158  0.5223
 5234TIP3    H137193   5.862   4.949   4.594 -0.7793  0.3847 -0.4880
 5234TIP3    H237194   5.879   5.001   4.453  1.3960  1.0600 -0.0085
 5235TIP3   OH237195   3.186   3.123   5.856 -0.2548  0.6162  0.6120
 5235TIP3    H137196   3.104   3.162   5.826 -0.0205  0.5538 -0.1144
 5235TIP3    H237197   3.238   3.198   5.887 -0.2601  0.7553  0.2914
 5236TIP3   OH237198   0.318   1.765  11.802 -0.3657  0.0233 -0.2805
 5236TIP3    H137199   0.293   1.764  11.894  0.3461 -0.6917 -0.0864
 5236TIP3    H237200   0.281   1.684  11.766 -1.5956  0.8293 -0.8991
 5237TIP3   OH237201   3.136   1.056   0.878  0.0040 -0.4965  0.4495
 5237TIP3    H137202   3.125   1.148   0.851  1.1746  0.0587  1.6908
 5237TIP3    H237203   3.116   1.056   0.972 -1.9008 -1.9411  0.1011
 5238TIP3   OH237204   5.618   4.332   5.594 -0.7663  0.4272  0.2097
 5238TIP3    H137205   5.524   4.314   5.588 -0.5391 -0.8177  0.1586
 5238TIP3    H237206   5.633   4.349   5.687 -1.2102  1.7571  0.0688
 5239TIP3   OH237207   0.659   5.241   4.134  0.1302 -0.4922  0.1784
 5239TIP3    H137208   0.664   5.326   4.091 -0.1744  0.1738  1.4163
 5239TIP3    H237209   0.614   5.258   4.216  1.6030 -1.5362  1.2590
 5240TIP3   OH237210   0.659   0.892   0.278  0.0575  0.4629 -0.0150
 5240TIP3    H137211   0.646   0.921   0.368  0.4042 -1.2186  0.6251
 5240TIP3    H237212   0.573   0.859   0.252 -0.1564  1.3593 -0.4786
 5241TIP3   OH237213   0.900   5.918  13.651 -0.4947 -0.1414 -0.1969
 5241TIP3    H137214   0.855   5.838  13.621  0.2455 -1.3926  1.8227
 5241TIP3    H237215   0.992   5.893  13.655 -0.1129  1.1614 -0.4947
 5242TIP3   OH237216   4.646   0.974   5.387 -0.0146 -0.2317 -0.4899
 5242TIP3    H137217   4.705   1.025   5.333 -0.8830 -0.0448 -1.3016
 5242TIP3    H237218   4.694   0.893   5.406  0.1210 -0.5482 -2.0207
 5243TIP3   OH237219   2.482   0.715  13.452  0.6069 -0.2966 -0.6400
 5243TIP3    H137220   2.538   0.758  13.516 -1.7669  1.5072  0.3380
 5243TIP3    H237221   2.423   0.661  13.503 -0.1084 -0.3158 -1.4614
 5244TIP3   OH237222   2.567   6.481  16.374 -0.1408 -0.1679  0.0597
 5244TIP3    H137223   2.596   6.572  16.376  0.1716 -0.2815  1.8638
 5244TIP3    H237224   2.473   6.486  16.392 -0.2256 -0.1752 -0.3687
 5245TIP3   OH237225   3.973   5.542   1.878 -0.3223  0.7761 -0.4445
 5245TIP3    H137226   3.994   5.617   1.822 -1.5039 -0.4823 -2.7410
 5245TIP3    H237227   3.891   5.508   1.842  0.6582 -2.2048 -0.1722
 5246TIP3   OH237228   5.813   4.748   1.351  0.0492 -0.4068 -0.5978
 5246TIP3    H137229   5.722   4.761   1.379 -0.0090 -0.1413 -0.9074
 5246TIP3    H237230   5.862   4.815   1.398  0.1874 -0.9657  0.0753
 5247TIP3   OH237231   6.719   0.682  16.835  0.3793 -0.0118  0.7361
 5247TIP3    H137232   6.666   0.711  16.909 -2.8070 -2.3399 -0.4278
 5247TIP3    H237233   6.681   0.728  16.759 -0.2927 -1.9895 -0.1784
 5248TIP3   OH237234   4.247   6.708  14.397 -0.3065 -0.2834  0.2668
 5248TIP3    H137235   4.177   6.771  14.411  0.6682  0.7230  0.7780
 5248TIP3    H237236   4.211   6.645  14.334 -1.4356  0.5704  0.0362
 5249TIP3   OH237237   0.599   4.477  14.587  0.1752 -0.4684 -0.4243
 5249TIP3    H137238   0.598   4.388  14.552 -0.2048 -0.6055 -0.0819
 5249TIP3    H237239   0.539   4.474  14.662 -0.6342  0.3193 -1.0151
 5250TIP3   OH237240   1.843   2.553   2.601  0.3192 -0.0773 -0.1338
 5250TIP3    H137241   1.869   2.464   2.579 -0.0002 -0.5881  1.4327
 5250TIP3    H237242   1.920   2.590   2.645  0.6110  0.6040 -1.1564
 5251TIP3   OH237243   6.552   2.545  15.187 -0.4020 -0.4445 -0.2220
 5251TIP3    H137244   6.557   2.632  15.148 -2.9929  0.2691  0.7831
 5251TIP3    H237245   6.612   2.492  15.136  3.3545  2.4348  0.7246
 5252TIP3   OH237246   2.041   0.267   2.632  0.4571  0.3331 -0.8192
 5252TIP3    H137247   2.041   0.328   2.705  1.3332  1.3339 -1.6258
 5252TIP3    H237248   2.105   0.201   2.656 -0.4622 -0.2765  0.0398
 5253TIP3   OH237249   5.514   6.778   4.182  0.6417  0.2281  0.5105
 5253TIP3    H137250   5.528   6.692   4.143  0.4852 -0.3328  1.6431
 5253TIP3    H237251   5.552   6.771   4.270  1.4621  1.6107  0.2883
 5254TIP3   OH237252   4.953   0.014  12.652  0.3624  0.8542 -0.1074
 5254TIP3    H137253   4.941  -0.066  12.600  1.3128 -0.0171  0.9342
 5254TIP3    H237254   4.865   0.045  12.670 -0.0617 -0.3483 -0.0083
 5255TIP3   OH237255   4.949   4.294  11.372 -0.3940  0.1315  0.3514
 5255TIP3    H137256   4.970   4.231  11.304 -1.5348  0.4307 -0.3031
 5255TIP3    H237257   4.934   4.241  11.451  2.9024 -0.0923  0.9574
 5256TIP3   OH237258   1.383   3.802  11.636  0.4334 -0.2893  0.0672
 5256TIP3    H137259   1.320   3.811  11.565 -1.2944  0.3355  1.5832
 5256TIP3    H237260   1.395   3.708  11.647  1.7050 -0.4060 -1.7901
 5257TIP3   OH237261   2.326   2.366   2.125 -0.0991 -0.3807 -0.7197
 5257TIP3    H137262   2.389   2.426   2.165 -0.8935  0.0322 -0.0670
 5257TIP3    H237263   2.282   2.323   2.199 -0.2525 -1.0156 -1.1705
 5258TIP3   OH237264   5.165   4.578   5.203 -0.5239  0.0789  0.4428
 5258TIP3    H137265   5.145   4.611   5.290  0.5277 -0.6359  0.9685
 5258TIP3    H237266   5.236   4.515   5.216 -1.0976 -0.8784 -0.7839
 5259TIP3   OH237267   6.800   6.450  16.660  0.1521 -0.2207 -0.8825
 5259TIP3    H137268   6.787   6.359  16.633  1.3944 -0.5096 -0.5638
 5259TIP3    H237269   6.877   6.479  16.610  1.6198 -0.3084  1.2033
 5260TIP3   OH237270   6.646   6.368  11.967  0.0673  0.2202 -1.1469
 5260TIP3    H137271   6.592   6.386  11.891 -0.2054  2.1421 -0.5441
 5260TIP3    H237272   6.590   6.385  12.043  0.6630 -0.5745 -0.4920
 5261TIP3   OH237273   4.954   5.555   4.885  0.1900 -0.1329  0.4585
 5261TIP3    H137274   4.976   5.468   4.851  0.2221 -0.9274  2.3571
 5261TIP3    H237275   4.986   5.616   4.819  1.5532 -1.5183 -0.2295
 5262TIP3   OH237276   4.030   2.739  11.666 -0.7345  0.6063  0.0933
 5262TIP3    H137277   4.116   2.748  11.707 -0.5975  1.3440 -0.3445
 5262TIP3    H237278   4.049   2.732  11.572 -1.0933 -0.2688  0.0784
 5263TIP3   OH237279   5.989   4.909   1.952  0.1642  0.1771 -0.2539
 5263TIP3    H137280   5.936   4.988   1.955 -0.2662 -0.0679 -0.9763
 5263TIP3    H237281   6.009   4.889   2.043 -0.1967  0.7970 -0.0357
 5264TIP3   OH237282   4.451   5.098   2.251 -0.3463 -0.3826 -0.3527
 5264TIP3    H137283   4.482   5.092   2.341 -1.0467 -1.9788 -0.1840
 5264TIP3    H237284   4.358   5.074   2.255 -0.6928  0.6761 -1.3490
 5265TIP3   OH237285   0.176   0.841   1.903  0.0980 -0.7424  0.2897
 5265TIP3    H137286   0.249   0.894   1.934 -0.0916  1.0669 -2.0316
 5265TIP3    H237287   0.187   0.839   1.808 -1.8385 -2.0205  0.0408
 5266TIP3   OH237288   5.711   4.335   0.097  0.1533  0.0650 -0.2948
 5266TIP3    H137289   5.727   4.292   0.181 -1.2347  0.4742  0.2102
 5266TIP3    H237290   5.792   4.323   0.047  0.9615 -0.2675  1.0647
 5267TIP3   OH237291   1.878   5.105  12.900  0.4814  0.2632  0.0772
 5267TIP3    H137292   1.811   5.122  12.833 -0.8555 -0.6256  1.1377
 5267TIP3    H237293   1.873   5.010  12.914  0.2464  0.5262  1.9224
 5268TIP3   OH237294   4.379   1.805   0.816  0.1538 -0.5774 -0.0938
 5268TIP3    H137295   4.468   1.825   0.787  0.2989 -0.6177  0.3126
 5268TIP3    H237296   4.378   1.831   0.909  0.6006 -3.0977  0.6963
 5269TIP3   OH237297   1.387   4.752  15.036  0.5176  0.3941 -0.0730
 5269TIP3    H137298   1.465   4.725  15.084  0.7652 -0.7595 -1.0702
 5269TIP3    H237299   1.347   4.670  15.007 -1.0575  0.9728  0.3779
 5270TIP3   OH237300   3.783   4.748  12.578 -0.3732 -0.0466  0.1363
 5270TIP3    H137301   3.791   4.689  12.504  0.8546 -1.9585  1.7069
 5270TIP3    H237302   3.689   4.746  12.600 -0.6746  0.2123 -1.0566
 5271TIP3   OH237303   5.017   3.118  13.954 -0.0042  0.2211 -0.2489
 5271TIP3    H137304   4.949   3.162  13.902  0.3552 -0.9371 -1.7494
 5271TIP3    H237305   5.027   3.032  13.913  0.6153 -0.5781  1.4862
 5272TIP3   OH237306   6.816   5.856   1.224 -0.0642 -0.3727 -0.0021
 5272TIP3    H137307   6.908   5.877   1.242 -0.4260  0.1150  1.4239
 5272TIP3    H237308   6.791   5.916   1.154  1.2644 -1.9652 -1.9675
 5273TIP3   OH237309   2.883   6.641  16.434 -0.2059  0.3404  0.0173
 5273TIP3    H137310   2.963   6.675  16.475 -0.2499  0.3684  0.0794
 5273TIP3    H237311   2.834   6.602  16.506  1.2475 -2.6689 -0.4805
 5274TIP3   OH237312   1.636   2.474  12.088 -0.4537 -0.1785  0.1011
 5274TIP3    H137313   1.699   2.440  12.151  0.1337 -0.4106 -0.6088
 5274TIP3    H237314   1.688   2.503  12.014 -0.7879  3.2690  1.0364
 5275TIP3   OH237315   5.610   0.901  15.785 -0.9343  0.4076  0.2226
 5275TIP3    H137316   5.706   0.899  15.792 -0.8859  3.0803  1.5880
 5275TIP3    H237317   5.595   0.918  15.692  0.0303  1.8370  0.2925
 5276TIP3   OH237318   6.670   3.902  12.721 -0.3769 -0.3069  0.0027
 5276TIP3    H137319   6.702   3.813  12.739  1.2433 -0.4994 -3.1629
 5276TIP3    H237320   6.725   3.958  12.775  0.6486 -1.0793 -0.1942
 5277TIP3   OH237321   5.261   1.206   0.572 -0.2398 -0.3607 -0.1205
 5277TIP3    H137322   5.254   1.301   0.582  0.0642 -0.1449 -1.7834
 5277TIP3    H237323   5.251   1.190   0.478  1.7172 -1.7792 -0.1570
 5278TIP3   OH237324   0.187   4.735  14.515  0.7762 -0.1239 -0.3568
 5278TIP3    H137325   0.144   4.701  14.437  2.2061 -0.9171 -0.8481
 5278TIP3    H237326   0.281   4.734  14.493  1.1252  0.7592  0.9423
 5279TIP3   OH237327   5.590   6.228   2.036 -0.0941 -0.1763  0.0091
 5279TIP3    H137328   5.588   6.138   2.068 -0.1512 -0.3006 -0.3417
 5279TIP3    H237329   5.511   6.268   2.073 -0.3066 -0.3975 -0.2030
 5280TIP3   OH237330   4.340   2.922  13.646  0.4439  0.8371  0.4614
 5280TIP3    H137331   4.326   2.851  13.709  0.3607  0.5356  0.1044
 5280TIP3    H237332   4.315   2.884  13.561 -0.6467  1.6173  0.4142
 5281TIP3   OH237333   2.038   3.505   5.840  0.0371 -0.0072  0.0267
 5281TIP3    H137334   1.977   3.575   5.818 -0.6603 -0.7698 -0.5005
 5281TIP3    H237335   2.082   3.536   5.920  2.4433  2.6897 -2.1481
 5282TIP3   OH237336   0.673   0.636  11.682  0.1923  0.4053  0.1569
 5282TIP3    H137337   0.659   0.642  11.588 -0.9600  0.2110  0.2966
 5282TIP3    H237338   0.650   0.546  11.705  2.9740 -0.3558  0.2749
 5283TIP3   OH237339   2.811   1.873   5.128  0.0581  0.2268  0.5262
 5283TIP3    H137340   2.824   1.928   5.206  0.9124  0.0275  0.5372
 5283TIP3    H237341   2.750   1.922   5.074 -0.5551  0.3678  1.3258
 5284TIP3   OH237342   2.660   1.023   3.535  0.4484 -0.2945 -0.2566
 5284TIP3    H137343   2.658   1.048   3.443 -1.4560 -0.7508 -0.3810
 5284TIP3    H237344   2.621   0.935   3.537  0.8222 -0.4492  0.9395
 5285TIP3   OH237345   5.630   2.156   0.500 -0.3774  1.1190 -0.0234
 5285TIP3    H137346   5.587   2.233   0.463 -0.5206  1.3808  0.6825
 5285TIP3    H237347   5.680   2.120   0.427 -0.6397  1.6432 -0.4694
 5286TIP3   OH237348   5.816   1.823  13.452 -0.4137  0.3917  0.0684
 5286TIP3    H137349   5.747   1.770  13.411  1.2882 -0.2255 -2.1843
 5286TIP3    H237350   5.871   1.852  13.379  1.5968  1.0751  1.7482
 5287TIP3   OH237351   3.512   2.747   0.779 -0.2478  1.1169  0.2093
 5287TIP3    H137352   3.554   2.688   0.717  1.0955  0.4286  1.6946
 5287TIP3    H237353   3.512   2.832   0.736  0.0420  0.5298 -0.9828
 5288TIP3   OH237354   2.637   2.060  13.036 -0.0230  0.2013 -0.2238
 5288TIP3    H137355   2.603   2.094  12.953  1.1472  0.3905 -0.6444
 5288TIP3    H237356   2.730   2.085  13.036 -0.0557  0.4419  1.2597
 5289TIP3   OH237357   3.556   5.200   4.288  0.2017  0.2637  0.1483
 5289TIP3    H137358   3.632   5.161   4.244 -0.1496 -0.5852  0.2566
 5289TIP3    H237359   3.593   5.262   4.350  0.9071 -1.0070  1.0586
 5290TIP3   OH237360   4.130   2.698  15.506 -0.1770 -0.7467 -0.1476
 5290TIP3    H137361   4.206   2.645  15.478  0.1572 -0.5194  0.3300
 5290TIP3    H237362   4.154   2.731  15.592  0.1370  1.2092 -0.9362
 5291TIP3   OH237363   0.788   6.828   4.487  0.1422  0.7524 -0.1024
 5291TIP3    H137364   0.813   6.918   4.468  0.7802  0.4564 -0.7348
 5291TIP3    H237365   0.857   6.795   4.545 -0.1965  0.7303  0.2910
 5292TIP3   OH237366   4.972   6.342   0.181 -0.0049 -0.0083  0.1176
 5292TIP3    H137367   4.907   6.279   0.211 -0.8556 -0.7991 -3.0001
 5292TIP3    H237368   4.922   6.415   0.146  0.8492  0.5028 -0.0815
 5293TIP3   OH237369   2.610   4.892  15.247  0.4880  0.2830  0.0522
 5293TIP3    H137370   2.662   4.822  15.286  0.7781  0.6931  0.4136
 5293TIP3    H237371   2.535   4.901  15.306  0.1222 -0.1520 -0.3418
 5294TIP3   OH237372   3.248   2.535   6.505  0.4477 -0.3682 -0.3755
 5294TIP3    H137373   3.309   2.472   6.541  1.0129 -0.7990 -1.9793
 5294TIP3    H237374   3.259   2.527   6.410 -3.0476 -1.4202 -0.8142
 5295TIP3   OH237375   5.887   0.729  13.227  0.5613  0.0854 -0.3038
 5295TIP3    H137376   5.950   0.717  13.298  1.3736 -1.3135 -1.2054
 5295TIP3    H237377   5.835   0.648  13.228 -0.4982  0.7558 -0.2770
 5296TIP3   OH237378   4.787   5.148   1.524  0.1376  0.0020  0.0955
 5296TIP3    H137379   4.768   5.081   1.589 -0.1673  0.9907  1.0582
 5296TIP3    H237380   4.864   5.116   1.478  0.3549 -0.7318  0.9423
 5297TIP3   OH237381   5.745   1.400  12.022  0.0867  0.1828  0.5405
 5297TIP3    H137382   5.722   1.392  12.115 -0.2081 -0.7686  0.3917
 5297TIP3    H237383   5.670   1.364  11.976  0.7552 -0.5111 -0.0344
 5298TIP3   OH237384   2.908   2.945   4.950 -0.0746 -0.5529  0.0262
 5298TIP3    H137385   2.925   2.863   4.996 -1.1785 -0.3490  0.8454
 5298TIP3    H237386   2.876   2.918   4.863 -1.1474 -1.0246  0.5493
 5299TIP3   OH237387   5.299   6.452   2.747  0.2783 -0.1081 -0.8202
 5299TIP3    H137388   5.335   6.435   2.834  0.5744 -0.5273 -1.0220
 5299TIP3    H237389   5.207   6.474   2.762 -0.2679 -2.3395 -0.5772
 5300TIP3   OH237390   5.135   5.620  12.526  0.4376 -0.9432  0.1400
 5300TIP3    H137391   5.202   5.651  12.586  0.3270 -0.0855 -0.1691
 5300TIP3    H237392   5.074   5.571  12.581  0.7462 -0.8184  0.5930
 5301TIP3   OH237393   4.424   5.920  11.909  0.2187 -0.3423  0.2583
 5301TIP3    H137394   4.345   5.892  11.864  0.9234 -0.4501 -0.9501
 5301TIP3    H237395   4.425   5.870  11.990 -2.2856  1.5138  1.5913
 5302TIP3   OH237396   6.248   3.054   0.607  0.2000  0.4173  0.2877
 5302TIP3    H137397   6.234   3.026   0.697 -2.5483  0.5971 -0.0148
 5302TIP3    H237398   6.259   3.149   0.612 -0.6637  0.5196  0.3933
 5303TIP3   OH237399   4.710   5.416   2.247 -0.5777  0.0900 -1.0067
 5303TIP3    H137400   4.655   5.441   2.321  1.0453 -1.4897  0.8545
 5303TIP3    H237401   4.783   5.477   2.250 -0.0877 -0.4980 -0.7588
 5304TIP3   OH237402   0.742   2.008   2.151  0.2349 -0.2131 -0.1788
 5304TIP3    H137403   0.726   1.981   2.242  0.6857  0.0510 -0.0176
 5304TIP3    H237404   0.834   2.036   2.151  0.3093 -0.4542 -0.7756
 5305TIP3   OH237405   3.327   2.723   2.847 -0.0273  0.2907 -0.3836
 5305TIP3    H137406   3.249   2.681   2.884 -0.2927  0.2308 -0.9902
 5305TIP3    H237407   3.375   2.757   2.922  0.2351 -1.1768  0.1406
 5306TIP3   OH237408   3.854   1.589  11.513 -0.5645 -0.7158  0.2882
 5306TIP3    H137409   3.868   1.551  11.600 -0.1031 -3.4626 -0.8531
 5306TIP3    H237410   3.910   1.536  11.455 -0.4444  1.3503 -1.6328
 5307TIP3   OH237411   1.848   2.550  12.635  0.1980  0.1473  0.1076
 5307TIP3    H137412   1.935   2.514  12.621  0.3914 -0.1411  1.7790
 5307TIP3    H237413   1.859   2.612  12.708 -1.3286 -1.4976  1.8655
 5308TIP3   OH237414   6.045   6.005   5.898 -0.7172 -0.0962 -0.2515
 5308TIP3    H137415   5.996   6.066   5.841  2.2467  0.4992 -2.4187
 5308TIP3    H237416   6.069   5.933   5.840  1.6896  0.0937  0.4273
 5309TIP3   OH237417   2.791   0.302   2.925 -0.0688 -0.1401  0.5061
 5309TIP3    H137418   2.751   0.387   2.941 -0.0998 -0.5840  3.1488
 5309TIP3    H237419   2.732   0.259   2.863  0.5291  2.0893 -1.7589
 5310TIP3   OH237420   3.827   2.762   1.018  0.6541  0.0307  0.6105
 5310TIP3    H137421   3.915   2.771   1.056  0.3113  0.7715  1.2331
 5310TIP3    H237422   3.799   2.674   1.045  0.7278  0.2494  1.4090
 5311TIP3   OH237423   5.373   3.155   5.618 -0.1726  0.1239 -0.2453
 5311TIP3    H137424   5.377   3.096   5.543 -0.2870 -0.5536  0.2699
 5311TIP3    H237425   5.456   3.203   5.615  2.1503 -3.3093  1.9236
 5312TIP3   OH237426   2.760   1.249  12.676 -0.2493 -0.1609 -0.0142
 5312TIP3    H137427   2.743   1.296  12.758 -0.3663  0.4629 -0.3867
 5312TIP3    H237428   2.709   1.169  12.682  1.7748 -1.4359  1.6686
 5313TIP3   OH237429   3.298   4.385  14.855  0.5033  0.3082 -0.1708
 5313TIP3    H137430   3.345   4.339  14.786  1.4907  0.6101  0.2834
 5313TIP3    H237431   3.333   4.474  14.853  0.5607  0.3146  0.7239
 5314TIP3   OH237432   2.094   0.573   5.202 -0.5704  0.3052 -0.4874
 5314TIP3    H137433   2.046   0.512   5.146  0.2195 -0.6383 -0.1482
 5314TIP3    H237434   2.034   0.592   5.274 -0.6154 -0.5036 -0.3065
 5315TIP3   OH237435   2.153   1.492   2.467 -0.3704  0.3474  0.7719
 5315TIP3    H137436   2.198   1.558   2.413 -3.1270  1.4381 -0.3495
 5315TIP3    H237437   2.070   1.533   2.491 -1.2838 -1.9626  1.8240
 5316TIP3   OH237438   0.143   0.576   2.759  0.1214 -0.3406  0.1626
 5316TIP3    H137439   0.094   0.617   2.688  1.2353  1.8917  0.6029
 5316TIP3    H237440   0.114   0.623   2.838  1.1086 -0.7038  0.7580
 5317TIP3   OH237441   0.216   3.077   0.822  0.9785  0.6071 -0.3015
 5317TIP3    H137442   0.181   3.108   0.905  1.6297  1.2958 -0.2648
 5317TIP3    H237443   0.185   2.987   0.814  2.5871 -0.2164  1.7092
 5318TIP3   OH237444   2.972   6.745   0.287 -0.3113 -0.2568 -0.1147
 5318TIP3    H137445   2.952   6.835   0.264  0.0897  0.1055  0.8725
 5318TIP3    H237446   2.942   6.736   0.378 -2.1595 -1.7105 -0.7927
 5319TIP3   OH237447   1.769   0.847  15.222 -0.1141  0.1769 -0.1025
 5319TIP3    H137448   1.834   0.781  15.200  0.2702  0.2819  0.6883
 5319TIP3    H237449   1.723   0.864  15.140  0.1507 -0.6668 -0.4324
 5320TIP3   OH237450   2.852   6.150  14.630  0.2109 -0.0710  0.1109
 5320TIP3    H137451   2.834   6.243  14.646 -1.3856 -0.3254 -0.0409
 5320TIP3    H237452   2.844   6.109  14.716 -0.6761 -0.2844 -0.0594
 5321TIP3   OH237453   3.057   6.232  13.318  0.5356 -0.0545  0.0150
 5321TIP3    H137454   3.112   6.176  13.372 -1.2206 -0.9386  0.9829
 5321TIP3    H237455   3.102   6.237  13.234  1.3167 -2.0018  0.2701
 5322TIP3   OH237456   1.266   3.431  16.177 -0.2282  0.4428 -0.5554
 5322TIP3    H137457   1.274   3.456  16.084 -2.6280 -1.0948 -1.2656
 5322TIP3    H237458   1.227   3.508  16.218 -0.7949  0.5164 -1.2052
 5323TIP3   OH237459   6.707   2.056   5.798  0.4226  0.0808 -0.1025
 5323TIP3    H137460   6.730   1.976   5.845 -0.8432 -0.2286  0.0240
 5323TIP3    H237461   6.745   2.126   5.851  0.3004 -0.3570  0.5866
 5324TIP3   OH237462   5.569   6.032   5.690 -0.3961 -0.3549 -0.2800
 5324TIP3    H137463   5.629   5.976   5.640 -1.4621  0.2784 -2.4038
 5324TIP3    H237464   5.526   5.973   5.751 -1.1987 -1.8297 -2.1861
 5325TIP3   OH237465   2.257   6.549  16.436 -0.1908 -0.3358 -0.2006
 5325TIP3    H137466   2.224   6.606  16.505 -0.7590  2.1724 -2.3568
 5325TIP3    H237467   2.272   6.465  16.478  0.6459  1.3591  3.2190
 5326TIP3   OH237468   6.147   6.495   4.162  0.7940  0.3816 -0.8012
 5326TIP3    H137469   6.190   6.493   4.076  0.1487 -2.2458 -1.1534
 5326TIP3    H237470   6.055   6.513   4.141  0.4444 -1.2361 -0.8394
 5327TIP3   OH237471   4.709   0.925   4.107  0.1401 -0.1357  0.1938
 5327TIP3    H137472   4.736   0.900   4.019  1.3315  0.4355  0.3780
 5327TIP3    H237473   4.653   0.854   4.137  0.0965 -0.5457 -0.8505
 5328TIP3   OH237474   4.451   3.370  13.833  0.4738 -0.6569  0.1192
 5328TIP3    H137475   4.399   3.311  13.778 -0.1052  1.2217 -1.4490
 5328TIP3    H237476   4.507   3.417  13.771  0.4055  0.9276  1.2069
 5329TIP3   OH237477   2.291   5.854   4.267 -0.4072 -0.4007 -0.2906
 5329TIP3    H137478   2.305   5.949   4.271  0.4383 -0.4965 -0.7282
 5329TIP3    H237479   2.379   5.817   4.255 -0.7213 -1.2431 -0.0750
 5330TIP3   OH237480   6.465   3.675  13.438 -0.1671  0.5666  0.4241
 5330TIP3    H137481   6.404   3.657  13.367 -1.4741  0.7905  1.4663
 5330TIP3    H237482   6.477   3.590  13.482  1.4452  0.1960 -0.6336
 5331TIP3   OH237483   6.533   1.635  11.544  0.0039 -0.6391  0.6122
 5331TIP3    H137484   6.621   1.670  11.535 -0.7164  1.4212  1.0504
 5331TIP3    H237485   6.528   1.602  11.633 -0.2897  1.2444  1.3352
 5332TIP3   OH237486   3.873   3.700   5.899 -0.5537  0.0310 -0.4537
 5332TIP3    H137487   3.918   3.773   5.941 -1.1563 -0.1998  0.6116
 5332TIP3    H237488   3.786   3.735   5.876 -1.1037 -0.5231  0.6893
 5333TIP3   OH237489   1.741   0.062   0.929  0.2835  0.1745  0.0695
 5333TIP3    H137490   1.661   0.094   0.887  1.1683  1.8557 -0.4188
 5333TIP3    H237491   1.807   0.128   0.909  1.2747 -0.0265  2.3292
 5334TIP3   OH237492   3.717   6.413  15.729  0.0205  0.1727 -0.7973
 5334TIP3    H137493   3.641   6.360  15.705  0.6291 -0.8180 -0.5769
 5334TIP3    H237494   3.785   6.349  15.753  0.5814  1.0651  0.0525
 5335TIP3   OH237495   0.998   2.771  12.314 -0.1608 -0.2106 -0.0196
 5335TIP3    H137496   0.930   2.785  12.379  0.2238  0.5633  0.2327
 5335TIP3    H237497   1.018   2.678  12.320 -1.6604 -0.5937 -0.5862
 5336TIP3   OH237498   0.234   6.346  12.058 -0.0846 -0.1408  0.2733
 5336TIP3    H137499   0.163   6.357  11.995  1.2892 -1.3149 -1.5537
 5336TIP3    H237500   0.190   6.354  12.143 -2.0590  1.0955 -0.7711
 5337TIP3   OH237501   5.879   2.041  13.169 -0.2634 -0.1318  0.2292
 5337TIP3    H137502   5.878   2.094  13.248  1.8294  1.1801 -0.5529
 5337TIP3    H237503   5.927   2.093  13.105 -2.2793 -0.9368 -2.0989
 5338TIP3   OH237504   5.875   6.426   0.035 -0.3687  0.1611  0.1357
 5338TIP3    H137505   5.885   6.345   0.086 -1.8920  0.0200  0.2476
 5338TIP3    H237506   5.871   6.396  -0.056  2.1738  0.3990 -0.1228
 5339TIP3   OH237507   3.988   0.968  13.437  0.0601 -0.4303  0.5641
 5339TIP3    H137508   4.076   0.965  13.475  0.1633  2.3885  0.7512
 5339TIP3    H237509   4.003   0.966  13.343  0.4052  0.4841  0.5830
 5340TIP3   OH237510   5.114   1.361  10.931  0.4042 -0.3658 -0.0848
 5340TIP3    H137511   5.050   1.428  10.908  1.1955  0.4556  0.0438
 5340TIP3    H237512   5.197   1.409  10.938  1.1579 -1.5014 -0.9210
 5341TIP3   OH237513   6.252   6.831   0.974 -0.3040 -0.7995  0.7552
 5341TIP3    H137514   6.163   6.858   0.994  0.0120 -0.6683  2.0647
 5341TIP3    H237515   6.275   6.880   0.895  0.3149  3.1000  3.1080
 5342TIP3   OH237516   0.438   2.267  12.771 -0.1017 -0.1075  0.2778
 5342TIP3    H137517   0.498   2.306  12.706  0.4763 -0.5997  0.5050
 5342TIP3    H237518   0.372   2.335  12.785 -0.0491  0.1387 -0.5753
 5343TIP3   OH237519   0.612   4.528  11.288 -0.3198  0.4370  0.3837
 5343TIP3    H137520   0.587   4.620  11.292 -0.0419  0.6402 -1.4760
 5343TIP3    H237521   0.532   4.483  11.261 -0.1145  0.3229 -0.0389
 5344TIP3   OH237522   5.917   4.552   1.153 -0.1512 -0.2673 -0.3816
 5344TIP3    H137523   5.901   4.594   1.238 -0.8593 -1.3308  0.0313
 5344TIP3    H237524   5.834   4.511   1.130  1.0037 -3.2315  0.2790
 5345TIP3   OH237525   4.792   2.565  11.683 -0.0844 -0.2192 -0.2772
 5345TIP3    H137526   4.848   2.581  11.607  1.5446 -1.1390  0.6875
 5345TIP3    H237527   4.815   2.477  11.712 -1.4114 -0.2786  0.7093
 5346TIP3   OH237528   4.600   0.622  15.621 -1.0874  0.2390 -0.0804
 5346TIP3    H137529   4.560   0.709  15.623 -2.2088 -0.1639 -2.0939
 5346TIP3    H237530   4.541   0.570  15.566  0.5797 -1.2580 -0.5401
 5347TIP3   OH237531   1.062   2.426   0.177  0.2771 -0.1833 -0.6663
 5347TIP3    H137532   1.144   2.402   0.218 -1.2518 -2.4935  1.2725
 5347TIP3    H237533   1.069   2.392   0.087  1.1984 -0.9428 -0.3206
 5348TIP3   OH237534   3.351   6.539   3.354  0.5548  0.7707  0.2645
 5348TIP3    H137535   3.446   6.547   3.369  0.5654  0.0379  0.6246
 5348TIP3    H237536   3.312   6.548   3.441  0.4151 -0.5485  0.3588
 5349TIP3   OH237537   3.757   5.928   0.470 -0.1191  0.1784  0.4662
 5349TIP3    H137538   3.834   5.952   0.522  1.0703  0.3006 -1.2539
 5349TIP3    H237539   3.793   5.884   0.393 -1.8138 -0.1077 -0.2101
 5350TIP3   OH237540   2.526   3.901  15.338  0.6347  0.1691 -0.2548
 5350TIP3    H137541   2.548   3.994  15.344  0.1152  0.3641 -1.1394
 5350TIP3    H237542   2.483   3.893  15.253 -0.7042 -0.5989  0.4711
 5351TIP3   OH237543   0.089   5.020   4.985 -0.0535  0.6982 -0.8365
 5351TIP3    H137544   0.086   4.979   4.898 -1.4721 -1.3487  0.0885
 5351TIP3    H237545   0.142   5.099   4.972  0.6323 -0.0543 -3.3241
 5352TIP3   OH237546   0.614   6.102   0.945  0.0667  0.1086 -0.2915
 5352TIP3    H137547   0.597   6.179   0.890  0.6222 -0.1832 -0.8810
 5352TIP3    H237548   0.555   6.035   0.912  3.0467 -1.3822 -3.3182
 5353TIP3   OH237549   1.206   4.607   0.095 -1.0378  0.2149  0.1323
 5353TIP3    H137550   1.122   4.646   0.117 -1.6793 -0.2775 -1.3258
 5353TIP3    H237551   1.236   4.656   0.018 -1.3190 -1.3754 -1.0453
 5354TIP3   OH237552   3.268   6.752  12.945 -0.2400 -0.4632 -0.9870
 5354TIP3    H137553   3.259   6.841  12.978 -1.4097 -0.6360 -0.8093
 5354TIP3    H237554   3.362   6.741  12.931 -0.0689  0.7325 -0.8465
 5355TIP3   OH237555   6.378   0.460  16.803  0.1827 -0.6702  0.2344
 5355TIP3    H137556   6.339   0.464  16.890 -0.0665 -1.0570  0.1380
 5355TIP3    H237557   6.461   0.413  16.815 -0.6132 -2.1856 -0.0121
 5356TIP3   OH237558   3.514   4.102  14.126  0.6117 -0.0090  0.0401
 5356TIP3    H137559   3.555   4.044  14.190  0.4706  1.4997  1.5790
 5356TIP3    H237560   3.553   4.188  14.143 -0.5069  0.7347 -0.9467
 5357TIP3   OH237561   3.879   0.821  10.890  0.1137 -0.0811 -0.4805
 5357TIP3    H137562   3.877   0.754  10.822  0.5506 -0.2313 -0.3437
 5357TIP3    H237563   3.786   0.834  10.913 -0.0861  0.4292 -1.5468
 5358TIP3   OH237564   3.289   4.060   7.250 -0.1818 -0.1455  0.1524
 5358TIP3    H137565   3.198   4.043   7.273 -0.6108  1.4849 -0.2589
 5358TIP3    H237566   3.286   4.084   7.157  0.5064  1.0321  0.4142
 5359TIP3   OH237567   6.603   6.664   5.981  0.6369  0.3411  0.1721
 5359TIP3    H137568   6.519   6.685   6.023  0.6323 -0.2481  0.4619
 5359TIP3    H237569   6.660   6.638   6.053  1.4232  1.8157  0.1119
 5360TIP3   OH237570   0.543   4.844  12.492 -0.1987 -0.5633 -0.0481
 5360TIP3    H137571   0.577   4.762  12.455 -1.9344 -1.2051 -0.3501
 5360TIP3    H237572   0.543   4.829  12.586  2.7751  0.4809  0.2035
 5361TIP3   OH237573   3.379   1.499   3.829 -0.0041  0.3297  0.6643
 5361TIP3    H137574   3.376   1.562   3.757 -1.9617 -1.5554 -1.0329
 5361TIP3    H237575   3.463   1.455   3.820  0.8374  1.7674  1.1136
 5362TIP3   OH237576   3.571   5.477  17.100 -0.0359 -0.2693  0.5611
 5362TIP3    H137577   3.562   5.419  17.025 -1.1941  0.3138  0.2136
 5362TIP3    H237578   3.536   5.428  17.174  0.8243 -0.7295  0.6801
 5363TIP3   OH237579   5.796   3.895  11.307 -0.1219 -0.1490  0.4501
 5363TIP3    H137580   5.814   3.891  11.213 -0.7675  1.7279  0.2127
 5363TIP3    H237581   5.868   3.947  11.343 -1.6442  2.0837  0.4284
 5364TIP3   OH237582   6.216   2.391   0.907  0.1471  0.4021  0.8192
 5364TIP3    H137583   6.283   2.448   0.870  0.1514  0.0912  0.3362
 5364TIP3    H237584   6.212   2.415   0.999  0.2834  1.0452  0.6612
 5365TIP3   OH237585   2.830   1.987   1.196  0.2630 -0.2870  0.2114
 5365TIP3    H137586   2.824   1.893   1.182 -0.0267 -0.2936  0.3871
 5365TIP3    H237587   2.833   1.997   1.291  0.6828 -0.1420  0.1878
 5366TIP3   OH237588   3.228   5.808  10.547  0.3451  1.0252 -0.1568
 5366TIP3    H137589   3.136   5.789  10.561  0.6012 -0.0571  0.1427
 5366TIP3    H237590   3.235   5.903  10.561 -0.6569  1.0703  0.1175
 5367TIP3   OH237591   6.237   1.480   1.688 -0.1829  0.1177 -0.4596
 5367TIP3    H137592   6.306   1.508   1.748  0.1514  0.2180 -0.8771
 5367TIP3    H237593   6.212   1.393   1.719 -0.9266  0.6967  0.5869
 5368TIP3   OH237594   1.943   4.370   3.258 -0.0256 -0.1171  0.3957
 5368TIP3    H137595   1.976   4.363   3.168  0.6741  0.4407  0.5962
 5368TIP3    H237596   1.848   4.373   3.248 -0.0272 -1.4942 -0.2185
 5369TIP3   OH237597   2.772   6.687   5.618  0.4612  0.5931 -0.1026
 5369TIP3    H137598   2.832   6.723   5.684  1.9583 -0.1427 -0.9914
 5369TIP3    H237599   2.803   6.724   5.535  1.4578 -1.8561 -0.9286
 5370TIP3   OH237600   4.748   1.199   1.418  0.4185 -0.3258 -0.1245
 5370TIP3    H137601   4.685   1.240   1.358 -1.6794 -0.9986  1.4794
 5370TIP3    H237602   4.767   1.267   1.483 -0.5521 -0.8157  0.7131
 5371TIP3   OH237603   3.703   5.884  16.033 -0.2519  0.2923 -0.0451
 5371TIP3    H137604   3.712   5.973  15.999  0.5109  1.5752  3.1202
 5371TIP3    H237605   3.637   5.891  16.102  1.0396 -1.1715  1.4354
 5372TIP3   OH237606   3.724   4.503   2.027 -0.3438 -0.2526  0.1042
 5372TIP3    H137607   3.755   4.558   2.099  0.4347 -0.6502  0.0865
 5372TIP3    H237608   3.773   4.533   1.951  0.5997 -1.3884  0.2258
 5373TIP3   OH237609   1.137   5.041   3.638 -0.1939  0.1502 -0.1052
 5373TIP3    H137610   1.107   4.981   3.570  0.2358  0.1858 -0.3263
 5373TIP3    H237611   1.182   5.111   3.591  0.6982 -0.1699  0.2467
 5374TIP3   OH237612   4.828   6.753   1.267 -0.0356 -0.3582 -0.0122
 5374TIP3    H137613   4.844   6.737   1.360  0.9461 -0.9168 -0.2633
 5374TIP3    H237614   4.915   6.753   1.227 -0.3987  0.5502 -0.8337
 5375TIP3   OH237615   0.658   6.226   6.479  0.2014  0.1725  0.3562
 5375TIP3    H137616   0.701   6.311   6.484  0.5847  0.0165 -0.1927
 5375TIP3    H237617   0.723   6.164   6.510 -0.6709  0.2358  2.4866
 5376TIP3   OH237618   1.138   1.272   0.570  0.4536 -0.4598 -0.2143
 5376TIP3    H137619   1.135   1.229   0.655  0.3422 -1.5238 -0.7422
 5376TIP3    H237620   1.051   1.311   0.560  1.3371  2.1281  1.3595
 5377TIP3   OH237621   3.827   6.015  16.568  0.5388 -0.1507 -0.4855
 5377TIP3    H137622   3.780   6.083  16.616  1.6505 -1.4464  2.6808
 5377TIP3    H237623   3.806   6.032  16.476 -1.3652  2.7870  0.3556
 5378TIP3   OH237624   4.477   4.502  16.123 -0.6583  0.5363 -0.2281
 5378TIP3    H137625   4.571   4.519  16.132 -0.0325 -2.0979 -0.9093
 5378TIP3    H237626   4.436   4.588  16.132  1.5946  1.4619  2.5495
 5379TIP3   OH237627   0.164   0.180   4.003  0.0093  0.0955 -0.5438
 5379TIP3    H137628   0.077   0.194   3.965  0.7626  0.1961 -2.3473
 5379TIP3    H237629   0.148   0.127   4.081 -1.8268  1.6687  0.2061
 5380TIP3   OH237630   2.942   0.738   3.851  0.3951 -0.3723 -0.9288
 5380TIP3    H137631   2.849   0.741   3.826 -0.0296 -0.6284  0.5150
 5380TIP3    H237632   2.966   0.646   3.840 -0.2033 -0.7787  0.9327
 5381TIP3   OH237633   0.674   5.878   6.234 -0.0264 -0.4525  0.3763
 5381TIP3    H137634   0.701   5.862   6.325 -1.3559 -3.7630  0.3144
 5381TIP3    H237635   0.580   5.895   6.240  0.2324  1.4761 -0.2645
 5382TIP3   OH237636   4.668   6.037  15.317 -0.6153 -0.5893 -0.4155
 5382TIP3    H137637   4.633   6.121  15.345 -0.9909 -0.3212 -1.6299
 5382TIP3    H237638   4.758   6.057  15.290 -0.3762 -0.7743  0.2313
 5383TIP3   OH237639   0.243   5.912   0.956  0.7665 -0.3592 -0.1566
 5383TIP3    H137640   0.326   5.914   0.909  1.5910  0.1672  1.2643
 5383TIP3    H237641   0.200   5.994   0.932  1.7008  0.4595  0.8496
 5384TIP3   OH237642   4.251   3.648   2.870 -0.3495  0.1999 -0.3588
 5384TIP3    H137643   4.191   3.612   2.936 -0.2749  0.2734 -0.2499
 5384TIP3    H237644   4.216   3.617   2.787 -0.0346 -0.4874 -0.2378
 5385TIP3   OH237645   1.036   3.865   3.159  0.3017  0.5225  0.0660
 5385TIP3    H137646   1.092   3.895   3.087 -1.8394  1.5239 -1.3230
 5385TIP3    H237647   0.978   3.939   3.176 -1.0138 -0.6601  0.9618
 5386TIP3   OH237648   4.410   2.220  13.547 -0.0359 -1.1140  0.3777
 5386TIP3    H137649   4.464   2.275  13.491 -0.7710 -1.7727 -1.0323
 5386TIP3    H237650   4.440   2.240  13.636  0.3023  0.9126 -0.1305
 5387TIP3   OH237651   3.020   0.041   3.200 -0.0994  0.2984 -0.5032
 5387TIP3    H137652   3.100  -0.011   3.197  0.8766  1.7029  0.0170
 5387TIP3    H237653   2.951  -0.020   3.177  1.0003 -1.1890 -0.0061
 5388TIP3   OH237654   5.353   4.207   4.927 -0.0162  0.4070 -0.4661
 5388TIP3    H137655   5.335   4.144   4.997 -0.2037 -0.1464 -0.9913
 5388TIP3    H237656   5.435   4.249   4.952 -0.3001  0.5236  0.2917
 5389TIP3   OH237657   1.684   4.902  14.102 -0.5201  0.6435  0.4678
 5389TIP3    H137658   1.761   4.912  14.045 -1.1052  0.7722 -0.3136
 5389TIP3    H237659   1.656   4.992  14.120 -0.6522  0.5895  0.5331
 5390TIP3   OH237660   0.731   1.055   2.622 -0.4322  0.1021 -0.5958
 5390TIP3    H137661   0.753   1.084   2.533  2.5981 -0.5065 -0.1385
 5390TIP3    H237662   0.699   0.966   2.611 -1.6556  0.5896 -1.1913
 5391TIP3   OH237663   6.517   4.817   4.033 -0.2912  0.1496 -0.0134
 5391TIP3    H137664   6.553   4.895   4.076 -1.8840 -0.2815  2.2694
 5391TIP3    H237665   6.573   4.804   3.956  0.4778  3.0814 -0.0662
 5392TIP3   OH237666   4.526   3.366  13.577  0.2761 -0.1324  0.1989
 5392TIP3    H137667   4.542   3.276  13.550  0.1747 -0.2370  0.4818
 5392TIP3    H237668   4.567   3.420  13.510 -0.6281 -0.3826 -0.5804
 5393TIP3   OH237669   2.120   5.444   5.597 -0.1318  0.4943  0.2713
 5393TIP3    H137670   2.029   5.423   5.579 -0.0050 -1.3230  1.5499
 5393TIP3    H237671   2.117   5.504   5.671 -0.2635 -0.4610  1.0485
 5394TIP3   OH237672   2.584   3.508   5.420  0.2301 -0.0813  0.7166
 5394TIP3    H137673   2.551   3.536   5.506  1.0294  0.2162  0.9358
 5394TIP3    H237674   2.581   3.587   5.366  2.7104  0.5887  1.4017
 5395TIP3   OH237675   5.799   0.182   2.815  0.4345  0.1657 -0.2362
 5395TIP3    H137676   5.729   0.231   2.858 -0.4907  0.3557 -1.8919
 5395TIP3    H237677   5.868   0.177   2.881 -0.6250  1.0853  0.9999
 5396TIP3   OH237678   4.387   4.967   2.768  0.2758  0.0228 -0.0371
 5396TIP3    H137679   4.298   4.947   2.738  0.8085  0.5871 -2.1301
 5396TIP3    H237680   4.411   4.893   2.823 -0.7484 -1.1265 -1.0780
 5397TIP3   OH237681   1.898   4.353   5.910 -0.1926  0.1232 -0.7940
 5397TIP3    H137682   1.848   4.365   5.991  0.0344 -0.4587 -0.5606
 5397TIP3    H237683   1.868   4.423   5.853  0.0804  0.9251  0.0135
 5398TIP3   OH237684   3.205   5.975  11.528 -0.1400  0.2848 -0.0816
 5398TIP3    H137685   3.271   5.908  11.512  0.3345  0.9269 -0.8498
 5398TIP3    H237686   3.242   6.055  11.493 -1.2567  0.6913 -0.3833
 5399TIP3   OH237687   0.827   3.972  11.841 -0.1572 -0.3053 -0.0173
 5399TIP3    H137688   0.772   4.018  11.903 -0.9030  1.7995 -2.0727
 5399TIP3    H237689   0.776   3.895  11.815 -1.2347  0.4775 -0.2956
 5400TIP3   OH237690   2.672   5.972  12.737  0.4229 -0.7722  0.2570
 5400TIP3    H137691   2.623   6.035  12.788 -1.8434 -1.1520 -1.3002
 5400TIP3    H237692   2.636   5.978  12.649  2.2634 -2.0808 -0.6774
 5401TIP3   OH237693   5.867   4.158   5.278  0.0702 -0.0387  0.4465
 5401TIP3    H137694   5.833   4.153   5.367 -1.3074 -0.2728 -0.0755
 5401TIP3    H237695   5.800   4.204   5.228  0.1454 -1.1944 -0.7801
 5402TIP3   OH237696   5.810   4.297  10.348  0.2431 -0.1870  0.2879
 5402TIP3    H137697   5.843   4.386  10.336  0.7387 -0.5491 -1.2069
 5402TIP3    H237698   5.884   4.249  10.383  1.0124 -0.7040 -1.8784
 5403TIP3   OH237699   5.713   0.443  14.356  0.9023  0.4180 -0.3003
 5403TIP3    H137700   5.716   0.349  14.372  2.5553  0.3435 -0.8994
 5403TIP3    H237701   5.785   0.479  14.407 -1.5051  1.8404  2.4236
 5404TIP3   OH237702   6.316   4.249  11.556 -0.2709 -0.5870 -0.7452
 5404TIP3    H137703   6.398   4.254  11.606 -0.4984 -0.4815 -0.3831
 5404TIP3    H237704   6.255   4.203  11.614 -0.7627  0.2042 -0.6184
 5405TIP3   OH237705   4.943   0.048   2.554  0.1666  0.3662 -0.3982
 5405TIP3    H137706   4.885   0.051   2.478 -1.1149  0.1242  0.5423
 5405TIP3    H237707   4.910   0.116   2.613  0.9652  0.3654  0.0665
 5406TIP3   OH237708   0.011   2.341   3.678 -0.0066  0.2504 -0.1593
 5406TIP3    H137709  -0.060   2.348   3.742 -0.1265 -1.4836 -0.0347
 5406TIP3    H237710   0.038   2.249   3.683  2.0076  0.7904 -0.4885
 5407TIP3   OH237711   3.678   5.555  15.613 -0.2622 -0.3869 -0.0969
 5407TIP3    H137712   3.607   5.614  15.638  0.6104  0.1373  1.2704
 5407TIP3    H237713   3.753   5.612  15.600  0.2657 -1.0642 -0.1023
 5408TIP3   OH237714   1.159   1.336  14.062  0.3567 -0.3364 -0.0773
 5408TIP3    H137715   1.105   1.261  14.038 -0.0062  0.2705 -1.1984
 5408TIP3    H237716   1.192   1.314  14.149 -2.0649 -0.5013  0.8570
 5409TIP3   OH237717   5.422   4.599  16.631 -0.1268 -0.0709  0.2085
 5409TIP3    H137718   5.361   4.554  16.573 -0.8458 -1.1668  1.7416
 5409TIP3    H237719   5.508   4.563  16.609 -0.6836 -2.2314  1.3631
 5410TIP3   OH237720   2.182   2.010  12.320 -0.4030 -0.3590  0.0502
 5410TIP3    H137721   2.265   2.052  12.297 -0.4450  0.6265  1.5605
 5410TIP3    H237722   2.182   1.928  12.272  0.2442  0.8088 -2.0795
 5411TIP3   OH237723   0.128   5.536  15.226  0.0862 -0.2425  0.3839
 5411TIP3    H137724   0.131   5.469  15.293 -0.3267 -0.9083 -0.2468
 5411TIP3    H237725   0.127   5.619  15.274  0.8502 -0.6728  1.1627
 5412TIP3   OH237726   1.367   2.163  12.905  0.7144  0.5619  0.3295
 5412TIP3    H137727   1.379   2.218  12.827 -0.1167  0.7421  0.3211
 5412TIP3    H237728   1.421   2.205  12.972  1.9542  0.0461 -0.2990
 5413TIP3   OH237729   3.377   2.699  13.715  0.3500  0.4769 -0.0810
 5413TIP3    H137730   3.445   2.632  13.720 -1.5276 -1.5283  0.4608
 5413TIP3    H237731   3.373   2.723  13.623  0.2197 -1.1889 -0.5575
 5414TIP3   OH237732   0.940   6.805  12.682 -0.0745 -0.3392  0.1099
 5414TIP3    H137733   0.978   6.864  12.617 -0.8814  1.4538  1.2070
 5414TIP3    H237734   0.895   6.738  12.630  1.0320 -0.1439 -1.1650
 5415TIP3   OH237735   5.806   4.696  12.764 -0.1051  0.0871 -0.2533
 5415TIP3    H137736   5.861   4.638  12.816 -0.8493  0.3653  0.8870
 5415TIP3    H237737   5.845   4.694  12.677 -0.5141 -2.6850 -0.4702
 5416TIP3   OH237738   1.571   3.896   1.975 -0.0587 -0.3010  0.0602
 5416TIP3    H137739   1.482   3.930   1.983 -0.3243 -0.7033 -0.9993
 5416TIP3    H237740   1.607   3.901   2.063 -2.1937 -3.0531  1.2508
 5417TIP3   OH237741   6.175   0.094   0.433 -0.4026  0.0421  0.0520
 5417TIP3    H137742   6.120   0.086   0.354  0.8781 -0.6444 -0.8123
 5417TIP3    H237743   6.218   0.008   0.440 -0.7872 -0.0318  1.7427
 5418TIP3   OH237744   1.187   3.781   2.028  0.2734  0.6581 -0.2781
 5418TIP3    H137745   1.174   3.792   1.933  0.5048 -0.6104 -0.4757
 5418TIP3    H237746   1.133   3.705   2.050 -0.8255  1.7168  0.8810
 5419TIP3   OH237747   5.839   5.209   1.696  0.0595 -0.1525 -0.0085
 5419TIP3    H137748   5.754   5.204   1.652 -0.4190 -2.9083  1.0187
 5419TIP3    H237749   5.819   5.197   1.788  1.3452  2.4304  0.6971
 5420TIP3   OH237750   2.440   5.608  13.099 -0.0956  0.1015  0.0117
 5420TIP3    H137751   2.431   5.516  13.125  1.5935 -0.0008  0.3598
 5420TIP3    H237752   2.431   5.658  13.180  2.3903 -0.0298  0.4415
 5421TIP3   OH237753   6.192   4.752   2.642  0.2994  0.0580  0.1072
 5421TIP3    H137754   6.120   4.721   2.696 -0.2628 -0.8894 -1.1185
 5421TIP3    H237755   6.171   4.844   2.624  0.3122  0.2767  1.1602
 5422TIP3   OH237756   1.120   2.056  13.754  0.5718 -0.1161  0.1907
 5422TIP3    H137757   1.152   2.122  13.816  0.8488  0.7907 -0.8871
 5422TIP3    H237758   1.028   2.045  13.778  0.9304 -0.6107  1.4614
 5423TIP3   OH237759   6.505   2.851   2.245  0.1984 -0.2186  0.1771
 5423TIP3    H137760   6.566   2.800   2.192  0.1122 -0.2785  0.1345
 5423TIP3    H237761   6.421   2.806   2.234 -0.2157  0.8118 -1.1025
 5424TIP3   OH237762   2.472   1.145  15.223  0.1414 -0.3567 -0.2034
 5424TIP3    H137763   2.379   1.150  15.202  0.5448 -1.6927 -2.6653
 5424TIP3    H237764   2.490   1.052  15.235  1.0212 -0.0531  1.0796
 5425TIP3   OH237765   5.286   2.352   1.014  0.4973  0.2507 -0.4199
 5425TIP3    H137766   5.316   2.428   1.064 -3.1044  2.0874 -0.7133
 5425TIP3    H237767   5.269   2.386   0.926  2.3031 -1.8380 -1.6708
 5426TIP3   OH237768   3.537   1.764  11.391 -0.0593 -0.0964  0.0742
 5426TIP3    H137769   3.533   1.746  11.485  0.3559 -0.5238  0.0129
 5426TIP3    H237770   3.606   1.829  11.382 -1.0134  0.9670  0.2068
 5427TIP3   OH237771   5.095   0.853  11.282 -0.0731 -0.0871  0.1253
 5427TIP3    H137772   5.000   0.848  11.269  0.1326  0.0346 -1.6337
 5427TIP3    H237773   5.109   0.821  11.371 -1.7024 -0.6865  0.1927
 5428TIP3   OH237774   6.313   0.068   4.078 -0.0207 -0.3574 -0.2031
 5428TIP3    H137775   6.310  -0.027   4.072 -1.6319 -0.3412 -0.0779
 5428TIP3    H237776   6.361   0.085   4.159  1.1784 -1.0231 -0.7535
 5429TIP3   OH237777   1.098   5.195   3.941 -0.3784  0.5021  0.4734
 5429TIP3    H137778   1.047   5.120   3.913 -2.0161  0.4103  3.3181
 5429TIP3    H237779   1.108   5.248   3.862  0.4948 -2.4168 -1.5351
 5430TIP3   OH237780   1.584   2.640   6.227 -0.8771  0.4443 -0.4012
 5430TIP3    H137781   1.501   2.596   6.242 -1.5297  1.1778 -1.6366
 5430TIP3    H237782   1.600   2.691   6.306 -0.7078 -1.0458  0.5513
 5431TIP3   OH237783   3.045   4.912  11.648  0.0021 -0.5483  0.0574
 5431TIP3    H137784   3.049   4.923  11.743 -0.4613 -1.0436  0.1386
 5431TIP3    H237785   3.112   4.972  11.614  0.1683 -0.3662  0.6923
 5432TIP3   OH237786   0.897   3.266  10.702  0.5788  0.0286 -0.3298
 5432TIP3    H137787   0.826   3.217  10.661  0.1073 -0.7403  1.2894
 5432TIP3    H237788   0.892   3.242  10.795  1.1690  2.1636  0.3190
 5433TIP3   OH237789   3.850   4.329  12.632 -0.5356  0.0629 -0.2416
 5433TIP3    H137790   3.796   4.251  12.618  1.7204 -1.7699  0.7213
 5433TIP3    H237791   3.859   4.368  12.545 -0.7945 -1.3744 -0.9340
 5434TIP3   OH237792   4.791   0.290  15.090  0.4726  0.3755  0.4947
 5434TIP3    H137793   4.796   0.258  15.180  3.9666 -0.8913  0.0086
 5434TIP3    H237794   4.796   0.385  15.099  2.1889  0.2346  1.6972
 5435TIP3   OH237795   6.335   3.248  13.795  0.1211 -0.3914 -0.2771
 5435TIP3    H137796   6.261   3.276  13.849 -0.6464  2.0688 -2.3568
 5435TIP3    H237797   6.311   3.161  13.765 -0.6176 -0.7495  1.2513
 5436TIP3   OH237798   2.141   5.809  16.867  0.4142 -0.4998  0.3973
 5436TIP3    H137799   2.229   5.781  16.843  0.7140 -0.1053  1.0306
 5436TIP3    H237800   2.094   5.727  16.885  0.9531 -0.6579  1.0968
 5437TIP3   OH237801   2.120   2.578   5.912 -0.6448  0.5240 -0.2712
 5437TIP3    H137802   2.101   2.497   5.960  0.5440  0.9526  0.9997
 5437TIP3    H237803   2.157   2.548   5.829 -2.2452 -0.2322 -0.7558
 5438TIP3   OH237804   3.110   3.318   2.353  0.0267 -0.1164  0.1555
 5438TIP3    H137805   3.134   3.356   2.438 -0.2938  0.3042  0.0584
 5438TIP3    H237806   3.067   3.389   2.306 -0.3926 -0.5415 -0.1098
 5439TIP3   OH237807   0.852   4.181   3.829  0.4969  0.1179  0.1718
 5439TIP3    H137808   0.931   4.188   3.776  0.9936 -1.4071  0.6607
 5439TIP3    H237809   0.877   4.216   3.915  0.7112 -0.5627  0.3893
 5440TIP3   OH237810   6.437   0.741  12.445 -0.1220 -0.5485 -0.2339
 5440TIP3    H137811   6.426   0.826  12.402  0.9502 -0.0981  0.3232
 5440TIP3    H237812   6.381   0.681  12.396 -3.3704  1.0426  1.2250
 5441TIP3   OH237813   5.387   2.790   5.205  0.1621  0.5793 -0.3092
 5441TIP3    H137814   5.442   2.726   5.160 -0.9271 -1.2692  0.8325
 5441TIP3    H237815   5.367   2.856   5.139  2.3991  0.4596 -1.1835
 5442TIP3   OH237816   6.112   0.552   3.407 -0.0047 -0.4104 -0.3677
 5442TIP3    H137817   6.150   0.502   3.480  0.7375  0.6858  0.0222
 5442TIP3    H237818   6.022   0.521   3.401  0.2102 -1.2106  0.3935
 5443TIP3   OH237819   3.951   3.866   2.487 -0.1559 -0.2725 -0.3396
 5443TIP3    H137820   3.931   3.825   2.571  0.0861 -0.9501 -0.6062
 5443TIP3    H237821   3.886   3.936   2.478  0.1249  0.1331  0.6409
 5444TIP3   OH237822   6.200   2.634   1.384  0.0025  0.3495  0.4117
 5444TIP3    H137823   6.249   2.638   1.466 -2.1436 -0.1815  1.8022
 5444TIP3    H237824   6.239   2.561   1.336  1.3999  0.7739  0.8418
 5445TIP3   OH237825   4.051   1.771   0.149  0.3178 -0.0426  0.7096
 5445TIP3    H137826   4.023   1.681   0.165 -1.2603  0.4210  0.7196
 5445TIP3    H237827   4.124   1.784   0.208  0.7387 -1.3942  0.5227
 5446TIP3   OH237828   4.376   2.496  15.720 -0.2604  0.7740 -0.1498
 5446TIP3    H137829   4.381   2.582  15.761 -0.2801 -0.1238  1.8152
 5446TIP3    H237830   4.468   2.468  15.712 -0.3004  0.5858  0.0616
 5447TIP3   OH237831   5.697   5.695  13.894  0.1639  0.0700 -0.3581
 5447TIP3    H137832   5.603   5.697  13.907  0.3756  2.2414  1.3864
 5447TIP3    H237833   5.726   5.615  13.938 -0.6856  0.2793  0.6179
 5448TIP3   OH237834   4.969   4.508   1.551 -0.0823  0.5340  0.2389
 5448TIP3    H137835   5.049   4.534   1.504 -1.3350  0.3632 -2.1779
 5448TIP3    H237836   4.900   4.563   1.513 -1.4462 -0.7056  0.8041
 5449TIP3   OH237837   5.254   2.774  11.522  0.2519 -0.2027  0.3222
 5449TIP3    H137838   5.304   2.825  11.585 -1.1971  2.0477 -0.2426
 5449TIP3    H237839   5.216   2.702  11.573  2.8777 -1.2194  0.9999
 5450TIP3   OH237840   2.850   4.395  14.717 -0.2492 -0.4544  0.6749
 5450TIP3    H137841   2.900   4.473  14.741 -1.8943  0.4143  1.3862
 5450TIP3    H237842   2.879   4.328  14.779  0.7811 -0.2937  0.3963
 5451TIP3   OH237843   4.702   4.602   6.003 -0.3514  0.0286 -0.2455
 5451TIP3    H137844   4.781   4.655   6.017 -1.2407  1.0322  1.2733
 5451TIP3    H237845   4.684   4.609   5.909  2.4109 -1.8157 -1.0281
 5452TIP3   OH237846   4.381   5.092  15.323  0.0671 -0.1961 -0.0853
 5452TIP3    H137847   4.316   5.156  15.293  1.4545  0.5080 -1.7819
 5452TIP3    H237848   4.425   5.064  15.243 -0.5479 -3.4424  0.5711
 5453TIP3   OH237849   2.159   1.930   3.965 -0.3501  0.0026 -0.0041
 5453TIP3    H137850   2.235   1.970   3.922  0.1790 -0.3427  0.6008
 5453TIP3    H237851   2.196   1.875   4.033 -1.0809 -1.2480 -0.5795
 5454TIP3   OH237852   3.351   1.141  13.210 -0.3438 -0.0664  0.4501
 5454TIP3    H137853   3.320   1.141  13.120  2.1914  0.5323 -0.5041
 5454TIP3    H237854   3.402   1.060  13.217  0.4298  0.4462  0.9511
 5455TIP3   OH237855   5.377   6.615   2.022 -0.0899 -0.3115  0.5096
 5455TIP3    H137856   5.328   6.545   1.978  2.3059 -1.3281 -0.7352
 5455TIP3    H237857   5.317   6.648   2.089 -2.5040 -1.3032 -1.0287
 5456TIP3   OH237858   4.879   3.179   4.870 -0.2711  0.1192 -0.3713
 5456TIP3    H137859   4.893   3.271   4.849  0.7143 -0.0051 -0.3357
 5456TIP3    H237860   4.828   3.145   4.797  0.5671  0.3791 -1.1005
 5457TIP3   OH237861   4.423   6.531   4.235  0.3265  0.5589  0.0694
 5457TIP3    H137862   4.418   6.440   4.208  3.1123  0.3345  0.0731
 5457TIP3    H237863   4.428   6.528   4.331  0.4618  0.7188  0.0682
 5458TIP3   OH237864   5.374   5.639   3.550 -0.5913  0.1307 -0.1038
 5458TIP3    H137865   5.457   5.638   3.598 -1.4063  2.3793  1.5041
 5458TIP3    H237866   5.344   5.548   3.553  2.7575 -1.2370 -2.6649
 5459TIP3   OH237867   0.938   0.525  12.307 -0.5853 -0.6516 -0.6013
 5459TIP3    H137868   0.900   0.536  12.220  0.2517  1.9578 -0.7108
 5459TIP3    H237869   0.874   0.563  12.367  0.8766  2.0929 -0.6225
 5460TIP3   OH237870   5.213   3.150  11.561  0.7664  0.3773 -0.1043
 5460TIP3    H137871   5.187   3.167  11.471  1.2579  1.6901 -0.0300
 5460TIP3    H237872   5.137   3.176  11.613  1.4153  2.2463 -0.0092
 5461TIP3   OH237873   5.222   6.075  16.664 -0.1106  0.0629  0.0441
 5461TIP3    H137874   5.140   6.052  16.620 -0.2000 -0.5573  0.5215
 5461TIP3    H237875   5.212   6.040  16.753 -0.1572  1.7570  0.7493
 5462TIP3   OH237876   2.581   2.164  12.036 -0.0500 -0.1986 -0.2057
 5462TIP3    H137877   2.629   2.151  11.954 -0.1991 -2.0212 -0.0320
 5462TIP3    H237878   2.530   2.084  12.047 -0.1074  0.0467  1.6221
 5463TIP3   OH237879   2.204   1.086   4.238  0.2280 -0.0700 -0.0085
 5463TIP3    H137880   2.206   1.041   4.153 -0.6096 -1.2111  0.5372
 5463TIP3    H237881   2.251   1.168   4.223  0.4353 -0.4186 -1.4701
 5464TIP3   OH237882   4.130   2.749   3.276  0.3764  0.3557 -0.2442
 5464TIP3    H137883   4.091   2.749   3.188  0.0621 -1.1532 -0.1247
 5464TIP3    H237884   4.222   2.773   3.261  0.2657  0.3595 -0.9499
 5465TIP3   OH237885   5.258   0.423  13.119 -0.0699 -0.0288  0.3450
 5465TIP3    H137886   5.181   0.449  13.068  0.3819  1.0541  0.1944
 5465TIP3    H237887   5.299   0.354  13.067  0.1500  0.7614 -0.5740
 5466TIP3   OH237888   1.385   0.423  16.430  0.1525  0.3305  0.2755
 5466TIP3    H137889   1.464   0.460  16.469 -0.1144  0.3131  0.8380
 5466TIP3    H237890   1.332   0.395  16.505  1.3557 -3.4080 -0.0598
 5467TIP3   OH237891   0.081   0.556   0.859  0.0610  0.8796 -0.1580
 5467TIP3    H137892  -0.008   0.588   0.846 -0.1489  0.3713  0.0168
 5467TIP3    H237893   0.073   0.461   0.859  0.7577  0.7974 -1.2745
 5468TIP3   OH237894   3.638   3.756   5.753 -0.1092 -0.3789  0.3729
 5468TIP3    H137895   3.607   3.744   5.664  0.2445 -1.6913  0.4068
 5468TIP3    H237896   3.608   3.844   5.777 -0.5605 -0.1667 -0.8806
 5469TIP3   OH237897   3.292   2.353   1.827  0.3453  0.0205 -0.3298
 5469TIP3    H137898   3.283   2.338   1.733  1.2160 -0.0657 -0.4069
 5469TIP3    H237899   3.384   2.335   1.845 -0.0757 -1.1717  0.7517
 5470TIP3   OH237900   4.044   5.328   0.945  0.5210 -0.7068 -0.4849
 5470TIP3    H137901   4.081   5.407   0.908  1.1070 -1.1478 -0.8540
 5470TIP3    H237902   4.006   5.282   0.871 -1.9336  0.3168  0.0317
 5471TIP3   OH237903   1.912   3.686  12.853 -0.0047  0.2070 -0.2339
 5471TIP3    H137904   1.833   3.738  12.836 -0.1636  0.4621  1.1630
 5471TIP3    H237905   1.881   3.612  12.906  1.1775  2.4766  4.0811
 5472TIP3   OH237906   1.820   2.266   2.571 -0.2744 -0.3078  0.5772
 5472TIP3    H137907   1.863   2.221   2.643 -0.7704  1.3222  1.9592
 5472TIP3    H237908   1.788   2.196   2.514  2.0643 -1.5847  0.7483
 5473TIP3   OH237909   1.965   2.048   3.798 -0.3908  0.9033  0.4805
 5473TIP3    H137910   2.026   2.010   3.860 -0.8170 -0.9814 -0.1974
 5473TIP3    H237911   2.019   2.069   3.721 -0.5774 -1.0864 -0.2546
 5474TIP3   OH237912   6.544   5.232   6.450  0.6643 -0.1522 -0.5931
 5474TIP3    H137913   6.598   5.254   6.526  0.5472 -1.7095 -0.0122
 5474TIP3    H237914   6.504   5.148   6.473 -1.3828  0.5585 -1.3365
 5475TIP3   OH237915   4.757   1.927   1.569 -1.1285  0.3453 -0.2572
 5475TIP3    H137916   4.715   1.872   1.502  0.0888  0.0947 -0.8517
 5475TIP3    H237917   4.815   1.985   1.519  1.3354 -1.1838  0.6277
 5476TIP3   OH237918   6.854   3.300   1.438 -0.1374 -0.2237  0.0261
 5476TIP3    H137919   6.785   3.267   1.495 -0.5739 -0.5539 -0.6828
 5476TIP3    H237920   6.924   3.236   1.445 -0.5761 -0.7844 -0.5469
 5477TIP3   OH237921   1.878   6.842  15.950 -0.0605  0.4962 -0.4687
 5477TIP3    H137922   1.914   6.916  15.901  0.3271  0.3289 -0.4455
 5477TIP3    H237923   1.873   6.771  15.885 -0.7709  0.6453 -0.5790
 5478TIP3   OH237924   3.832   0.802   3.434 -0.0346  0.0001 -0.1565
 5478TIP3    H137925   3.753   0.820   3.486 -2.5188 -2.3044 -2.7711
 5478TIP3    H237926   3.899   0.782   3.499 -1.7725  1.2655  2.2001
 5479TIP3   OH237927   3.177   5.895  11.965 -0.0121  0.1982 -0.0962
 5479TIP3    H137928   3.268   5.923  11.954  0.0252 -0.5660 -2.2238
 5479TIP3    H237929   3.155   5.919  12.055  2.6510 -0.6490  0.8717
 5480TIP3   OH237930   3.061   4.756   2.998 -0.6236  0.8320 -0.3581
 5480TIP3    H137931   3.112   4.678   3.020 -1.0888  0.6418  0.0542
 5480TIP3    H237932   3.112   4.828   3.035 -0.4369  0.6854 -0.3219
 5481TIP3   OH237933   2.884   0.884   2.573  0.0047  0.2681 -0.2731
 5481TIP3    H137934   2.885   0.975   2.605  2.2293 -0.8424  3.3837
 5481TIP3    H237935   2.968   0.872   2.530  0.6063 -0.5811  1.0962
 5482TIP3   OH237936   2.061   5.950   2.268  0.0161  0.0002 -0.5566
 5482TIP3    H137937   2.034   5.863   2.298 -2.1398  0.5853 -0.6841
 5482TIP3    H237938   2.119   5.932   2.194 -0.9839 -1.3316 -1.0582
 5483TIP3   OH237939   6.202   0.356   3.584  0.5191 -0.0151  0.7675
 5483TIP3    H137940   6.286   0.314   3.565  0.7886  0.2419  1.3753
 5483TIP3    H237941   6.200   0.366   3.679 -0.3300 -0.2752  0.7846
 5484TIP3   OH237942   5.266   6.772  13.820 -0.3922  0.2901 -0.3913
 5484TIP3    H137943   5.225   6.798  13.738  0.9004  1.9400 -0.5643
 5484TIP3    H237944   5.337   6.835  13.833  0.4181 -0.8674  1.2114
 5485TIP3   OH237945   2.225   3.466  16.680  0.0487  0.4035 -0.1085
 5485TIP3    H137946   2.196   3.376  16.672  0.6859  0.2898 -1.3234
 5485TIP3    H237947   2.233   3.480  16.775  0.0618 -0.8383  0.0917
 5486TIP3   OH237948   4.718   1.618  16.168 -0.2266  0.2206  0.1823
 5486TIP3    H137949   4.694   1.639  16.078  0.1222  0.8558  0.2325
 5486TIP3    H237950   4.656   1.667  16.222 -2.1415 -2.1752  0.3086
 5487TIP3   OH237951   0.709   3.839   4.967 -0.1305 -0.1306 -0.5159
 5487TIP3    H137952   0.658   3.837   4.886 -0.0076 -1.2903 -0.5760
 5487TIP3    H237953   0.710   3.749   4.997  1.5038 -0.0536 -0.2634
 5488TIP3   OH237954   2.369   5.210   6.233 -0.3442 -0.4221  0.3513
 5488TIP3    H137955   2.451   5.160   6.230 -0.5607 -0.8129  0.8105
 5488TIP3    H237956   2.381   5.280   6.168  0.8723  0.3495  1.3770
 5489TIP3   OH237957   6.164   4.149   2.688  0.0773 -0.2805 -0.3752
 5489TIP3    H137958   6.176   4.186   2.600 -0.6784 -1.8249 -1.1797
 5489TIP3    H237959   6.073   4.168   2.710  0.5365  0.9891  0.5500
 5490TIP3   OH237960   2.563   3.836   4.794 -0.4657  0.1356 -0.0815
 5490TIP3    H137961   2.560   3.820   4.699  1.3021 -4.1201  0.3239
 5490TIP3    H237962   2.482   3.797   4.827 -0.4085  0.3221  0.2769
 5491TIP3   OH237963   4.424   5.421  16.336  0.3083  0.5911 -0.7840
 5491TIP3    H137964   4.350   5.377  16.294 -0.3707  0.5563  0.3872
 5491TIP3    H237965   4.498   5.362  16.322 -0.5238 -0.8492  0.5283
 5492TIP3   OH237966   3.466   0.495  10.457  0.2296  0.0548 -0.2833
 5492TIP3    H137967   3.410   0.453  10.523  1.1678 -0.2280  0.3563
 5492TIP3    H237968   3.531   0.543  10.509  0.5639  0.3941 -1.0098
 5493TIP3   OH237969   4.408   5.420   6.025  0.2850  0.3076 -0.5230
 5493TIP3    H137970   4.448   5.490   6.077 -0.5301 -0.6394  1.4632
 5493TIP3    H237971   4.409   5.344   6.082 -1.0947 -0.6794 -1.7428
 5494TIP3   OH237972   4.157   1.804  16.246  0.0329 -0.2496 -0.3897
 5494TIP3    H137973   4.208   1.749  16.186 -1.1308 -0.7116 -0.9913
 5494TIP3    H237974   4.068   1.770  16.240 -0.1672 -0.1171  1.4136
 5495TIP3   OH237975   0.092   3.941   4.473  0.3559 -0.0331  0.3286
 5495TIP3    H137976  -0.002   3.955   4.468  0.4125 -0.1608 -2.1813
 5495TIP3    H237977   0.101   3.846   4.484  0.2225  0.0946  1.7874
 5496TIP3   OH237978   0.205   1.858  12.310 -0.0644  0.1775 -0.0856
 5496TIP3    H137979   0.118   1.853  12.350 -0.4593  0.9302 -0.8193
 5496TIP3    H237980   0.265   1.870  12.383 -0.7564  1.3433  0.3077
 5497TIP3   OH237981   2.455   6.217  16.152  0.2220  0.0659 -0.3399
 5497TIP3    H137982   2.490   6.280  16.089  1.1817 -0.8289 -0.7292
 5497TIP3    H237983   2.532   6.175  16.189 -0.4097 -1.1582 -0.3693
 5498TIP3   OH237984   3.206   5.968   4.544 -0.2874 -0.2960  0.7724
 5498TIP3    H137985   3.299   5.954   4.563 -0.1877 -0.6992 -0.0063
 5498TIP3    H237986   3.164   5.886   4.569 -0.2770 -0.5127  0.0898
 5499TIP3   OH237987   3.441   5.772   0.309  0.0937 -0.1479  0.5073
 5499TIP3    H137988   3.477   5.697   0.357 -1.0262 -2.3060 -1.8229
 5499TIP3    H237989   3.388   5.818   0.374 -0.1558 -2.0732  1.7591
 5500TIP3   OH237990   3.227   6.766   2.062  0.8845  0.6192 -0.4768
 5500TIP3    H137991   3.209   6.810   1.978  2.7743  0.6372 -0.9097
 5500TIP3    H237992   3.268   6.684   2.038  0.6363  0.2130  0.4386
 5501TIP3   OH237993   1.789   4.784   6.123  0.1534 -0.1427  0.1957
 5501TIP3    H137994   1.706   4.815   6.086  0.4009 -0.3799 -0.5821
 5501TIP3    H237995   1.814   4.853   6.186  0.1751  0.7465 -0.7552
 5502TIP3   OH237996   0.049   5.316   5.299  0.4387  0.1795 -0.6157
 5502TIP3    H137997   0.055   5.232   5.344  0.9052  1.6372  2.2365
 5502TIP3    H237998   0.139   5.343   5.285  0.2989 -0.0114 -2.1048
 5503TIP3   OH237999   1.650   5.012  11.777  0.1761  0.3228  0.1907
 5503TIP3    H138000   1.652   4.953  11.702  0.7017 -0.7293  1.0002
 5503TIP3    H238001   1.564   5.000  11.816  0.0744  0.5191  0.0262
 5504TIP3   OH238002   6.088   0.009  12.928 -0.4324 -0.0853 -0.1190
 5504TIP3    H138003   6.065   0.007  12.836 -0.2830 -0.1989 -0.1549
 5504TIP3    H238004   6.005  -0.002  12.974 -0.3543 -1.3406 -0.2496
 5505TIP3   OH238005   2.602   5.651   5.255 -0.2311  0.6596  0.0016
 5505TIP3    H138006   2.606   5.743   5.231 -0.0342  0.6118 -0.1592
 5505TIP3    H238007   2.622   5.604   5.173 -0.5245  0.4716  0.0367
 5506TIP3   OH238008   3.273   5.214  11.684 -0.2002  0.0538  0.5181
 5506TIP3    H138009   3.290   5.283  11.620 -0.2038 -0.7662 -0.3983
 5506TIP3    H238010   3.180   5.193  11.673  0.2722 -1.5583 -0.7528
 5507TIP3   OH238011   3.664   5.020   2.560 -0.2459  0.4023  0.2266
 5507TIP3    H138012   3.570   5.007   2.552 -0.3357 -0.6669  2.2498
 5507TIP3    H238013   3.680   5.106   2.521 -1.7935 -0.0516 -1.4994
 5508TIP3   OH238014   6.380   6.130  13.721 -0.2025 -0.0931 -0.3334
 5508TIP3    H138015   6.337   6.175  13.648  5.7929  3.6770 -2.3280
 5508TIP3    H238016   6.455   6.086  13.681  2.8149  1.2474  3.1612
 5509TIP3   OH238017   3.016   0.152   4.037  0.0496  0.2343 -0.1719
 5509TIP3    H138018   2.950   0.154   4.106  0.6634  1.5316  0.4001
 5509TIP3    H238019   3.080   0.217   4.063  1.6928 -1.1529 -0.6037
 5510TIP3   OH238020   6.014   0.368   0.606 -0.0609 -0.0758 -0.4208
 5510TIP3    H138021   5.920   0.382   0.619 -0.0207  1.4202 -1.4708
 5510TIP3    H238022   6.056   0.419   0.676 -0.0067 -0.4840 -0.1484
 5511TIP3   OH238023   5.319   2.570   1.186 -0.3478  0.6827 -1.0245
 5511TIP3    H138024   5.314   2.656   1.146  2.4803  1.2222 -0.3756
 5511TIP3    H238025   5.384   2.578   1.255  0.5122 -2.1304 -1.3625
 5512TIP3   OH238026   4.964   2.526   5.715  0.0863 -0.0639 -0.4102
 5512TIP3    H138027   4.921   2.531   5.800 -0.3146 -0.8126 -0.5594
 5512TIP3    H238028   4.956   2.614   5.679  2.2393  0.8995  1.2462
 5513TIP3   OH238029   1.379   6.499   2.926 -0.2419 -0.0752 -0.4437
 5513TIP3    H138030   1.426   6.439   2.983  0.0311  2.3391  2.0514
 5513TIP3    H238031   1.443   6.565   2.902 -0.8637 -0.0133 -2.0772
 5514TIP3   OH238032   0.025   4.968   2.828  0.5216  0.0894  0.4649
 5514TIP3    H138033   0.009   4.918   2.748 -0.3957  1.8959 -0.5456
 5514TIP3    H238034   0.119   4.986   2.826  0.6113 -0.3900  0.1158
 5515TIP3   OH238035   2.093   3.689  16.581  0.2643 -0.3440  0.1045
 5515TIP3    H138036   2.068   3.667  16.491 -0.7617 -0.3940  0.3902
 5515TIP3    H238037   2.123   3.606  16.619 -0.3698 -0.5607  0.1422
 5516TIP3   OH238038   0.055   4.147   5.256 -0.3349  0.1890 -0.2181
 5516TIP3    H138039   0.054   4.084   5.328  0.4474  1.0255  0.5493
 5516TIP3    H238040   0.069   4.093   5.178 -0.0850 -0.6312  0.3728
 5517TIP3   OH238041   5.701   0.708   5.334 -0.3789 -0.4784 -0.4016
 5517TIP3    H138042   5.640   0.701   5.260 -0.8090  1.1822 -0.2378
 5517TIP3    H238043   5.654   0.760   5.399  0.3690 -1.0950  0.6664
 5518TIP3   OH238044   1.632   1.079   5.511 -0.0219  0.3049  0.3983
 5518TIP3    H138045   1.547   1.105   5.476  0.3388  0.7220 -0.1778
 5518TIP3    H238046   1.675   1.161   5.534 -0.2999  0.0391  1.9822
 5519TIP3   OH238047   6.023   4.524   1.585 -0.9802  0.5455 -0.0613
 5519TIP3    H138048   5.966   4.454   1.617  0.5045 -0.8705 -0.4236
 5519TIP3    H238049   6.013   4.594   1.649 -0.4427 -1.0258  1.8504
 5520TIP3   OH238050   4.915   2.755   4.717  0.9995 -0.2119  0.1438
 5520TIP3    H138051   4.990   2.787   4.767  2.9926 -1.0881 -2.0785
 5520TIP3    H238052   4.933   2.662   4.703 -0.1889 -0.3023 -0.9996
 5521TIP3   OH238053   1.220   6.581  14.493 -0.0584 -0.0076 -0.4037
 5521TIP3    H138054   1.307   6.558  14.461  0.5946 -1.0744  1.9161
 5521TIP3    H238055   1.234   6.658  14.549 -0.2875 -1.0222  1.1358
 5522TIP3   OH238056   2.983   5.633  16.312 -0.6013 -0.1678  0.0171
 5522TIP3    H138057   2.985   5.678  16.396 -2.6572  0.7450 -0.3537
 5522TIP3    H238058   2.891   5.635  16.286  0.1141  0.5920 -2.7851
 5523TIP3   OH238059   3.952   6.440   2.996 -0.2184 -0.1652 -0.4018
 5523TIP3    H138060   3.873   6.442   3.050  0.1617 -0.8395  0.2010
 5523TIP3    H238061   3.920   6.423   2.907 -0.7406 -0.6245 -0.1319
 5524TIP3   OH238062   4.517   2.708  16.972  0.3993 -0.1909  0.8621
 5524TIP3    H138063   4.609   2.680  16.968  0.7785  0.8647  1.5543
 5524TIP3    H238064   4.521   2.803  16.958 -0.6586 -0.2194  0.2951
 5525TIP3   OH238065   4.598   4.568   2.902 -0.5641 -0.3804 -0.2306
 5525TIP3    H138066   4.687   4.535   2.908 -1.1965 -2.0435  0.4999
 5525TIP3    H238067   4.542   4.490   2.909 -2.0863  0.6243 -0.5651
 5526TIP3   OH238068   6.390   5.375   1.495 -0.8288  0.7140  0.1960
 5526TIP3    H138069   6.306   5.363   1.451 -1.7238 -0.2087  2.0266
 5526TIP3    H238070   6.433   5.290   1.490 -1.5541  0.1664  2.1786
 5527TIP3   OH238071   2.919   6.210  11.858 -0.6963 -0.1141 -0.4649
 5527TIP3    H138072   2.984   6.229  11.790  0.4008  1.3194  0.9043
 5527TIP3    H238073   2.866   6.290  11.862  0.5660  0.6899  1.7244
 5528TIP3   OH238074   0.295   4.599   6.026  0.4866 -0.2781  0.0115
 5528TIP3    H138075   0.269   4.526   6.082 -2.6850  0.0358 -0.8473
 5528TIP3    H238076   0.326   4.666   6.086  1.5058 -1.5724  0.9713
 5529TIP3   OH238077   6.071   1.881   0.996 -0.3474 -0.1040  0.0817
 5529TIP3    H138078   6.062   1.943   0.924  1.8448 -1.1399 -1.1778
 5529TIP3    H238079   6.125   1.927   1.061 -0.5015  0.0480  0.1033
 5530TIP3   OH238080   0.262   4.277  13.588  0.4531  0.6197 -0.3845
 5530TIP3    H138081   0.262   4.372  13.596  0.5704  0.5809  0.1048
 5530TIP3    H238082   0.353   4.255  13.567  0.4476  0.6065 -0.3949
 5531TIP3   OH238083   2.115   1.740   0.459  0.3377  0.5320 -0.4124
 5531TIP3    H138084   2.163   1.793   0.523  1.3009  0.8607 -1.3998
 5531TIP3    H238085   2.045   1.798   0.428 -0.3061  0.2804  0.5227
 5532TIP3   OH238086   0.270   4.371   3.823  0.6918  0.3423  0.3196
 5532TIP3    H138087   0.200   4.402   3.880  1.3482  2.2805  0.1785
 5532TIP3    H238088   0.313   4.302   3.873  1.6590  2.3923  2.5768
 5533TIP3   OH238089   4.426   0.270   1.194  0.1612 -0.4491  0.2159
 5533TIP3    H138090   4.504   0.238   1.148 -0.0150  1.3494 -1.4454
 5533TIP3    H238091   4.361   0.201   1.181  0.6283 -0.7172 -0.7929
 5534TIP3   OH238092   2.816   4.912  13.807  0.6308 -0.4383  0.1769
 5534TIP3    H138093   2.838   4.838  13.750 -2.0884 -0.2491 -1.3256
 5534TIP3    H238094   2.798   4.872  13.892  1.9689 -1.0996  0.1712
 5535TIP3   OH238095   2.724   2.458  12.573  0.5152 -0.0837  0.4103
 5535TIP3    H138096   2.809   2.426  12.603  0.7657  1.0071  0.9308
 5535TIP3    H238097   2.666   2.383  12.580  1.5287 -0.9734 -0.3877
 5536TIP3   OH238098   1.203   2.311  17.086 -0.9016  0.1363  0.0209
 5536TIP3    H138099   1.271   2.361  17.041  1.2337 -0.4569  2.3682
 5536TIP3    H238100   1.200   2.227  17.039 -1.2642  0.7893 -1.1512
 5537TIP3   OH238101   1.114   1.744   3.069 -0.4088  0.4486  0.3676
 5537TIP3    H138102   1.196   1.781   3.100  0.1820 -0.0857 -0.4914
 5537TIP3    H238103   1.140   1.666   3.019 -1.3659  0.6756 -0.5400
 5538TIP3   OH238104   1.197   5.725   4.509  0.5912  0.2851 -0.1072
 5538TIP3    H138105   1.243   5.806   4.486  1.1025  0.5332  1.6315
 5538TIP3    H238106   1.251   5.656   4.473  0.0098  0.6948 -1.8481
 5539TIP3   OH238107   6.584   3.377  10.743 -0.0669  0.4647  0.9624
 5539TIP3    H138108   6.559   3.469  10.744 -0.7963  0.2997 -0.1454
 5539TIP3    H238109   6.663   3.374  10.689 -1.9640  0.0502 -1.9831
 5540TIP3   OH238110   0.681   3.672  15.744 -0.0359 -0.4916 -0.5386
 5540TIP3    H138111   0.715   3.748  15.696  0.1492 -1.5818 -2.2493
 5540TIP3    H238112   0.758   3.634  15.787  0.1420 -0.5138 -0.8737
 5541TIP3   OH238113   5.855   1.365  16.689  0.2687  0.6659 -0.5923
 5541TIP3    H138114   5.913   1.429  16.730  0.4798  0.9294 -1.2909
 5541TIP3    H238115   5.910   1.322  16.624 -0.2975  0.8554 -1.1988
 5542TIP3   OH238116   5.316   5.867  11.887  0.6103  0.6539  0.2496
 5542TIP3    H138117   5.273   5.902  11.809  0.8808  1.5154  0.4735
 5542TIP3    H238118   5.244   5.842  11.945  0.4067 -0.2206 -0.3640
 5543TIP3   OH238119   5.528   3.656   2.567  0.0883 -0.1503 -0.1951
 5543TIP3    H138120   5.573   3.603   2.501  2.4693  1.5629 -0.1016
 5543TIP3    H238121   5.532   3.746   2.533  0.0237  0.5565  1.5403
 5544TIP3   OH238122   5.974   0.339  14.552 -0.3128 -0.4712  0.2367
 5544TIP3    H138123   5.971   0.425  14.510 -0.2589 -1.1869 -1.2729
 5544TIP3    H238124   6.040   0.348  14.620  3.5606 -0.6467 -3.1279
 5545TIP3   OH238125   6.463   0.123  11.571 -0.2301  0.4884  0.0718
 5545TIP3    H138126   6.444   0.114  11.664 -0.7635  0.5630 -0.0302
 5545TIP3    H238127   6.498   0.038  11.545 -0.7615  0.2339  0.1796
 5546TIP3   OH238128   4.191   6.436   4.673  0.2758  0.1625 -0.2998
 5546TIP3    H138129   4.231   6.364   4.721 -0.9683 -0.5915 -0.3626
 5546TIP3    H238130   4.258   6.463   4.611  1.5590  0.5182  1.1697
 5547TIP3   OH238131   5.117   1.595  15.970  0.0852  0.3741  0.2491
 5547TIP3    H138132   5.075   1.542  16.038  0.1456 -1.4780 -1.0678
 5547TIP3    H238133   5.048   1.611  15.906  0.9533 -1.6346 -1.3189
 5548TIP3   OH238134   0.275   5.643  14.165 -0.1268  0.5258 -0.0236
 5548TIP3    H138135   0.233   5.561  14.141 -1.8483  0.5309  2.5771
 5548TIP3    H238136   0.341   5.618  14.230  0.8235  1.0178 -0.7681
 5549TIP3   OH238137   5.705   2.125   4.601 -0.8573 -0.1532  0.0029
 5549TIP3    H138138   5.731   2.075   4.679  0.5139  1.5686  0.7073
 5549TIP3    H238139   5.636   2.184   4.632 -0.3984  0.4482 -0.0908
 5550TIP3   OH238140   2.156   1.353   3.841 -0.1083  0.6060 -0.3203
 5550TIP3    H138141   2.198   1.287   3.895  0.1994  1.0315 -0.0390
 5550TIP3    H238142   2.067   1.320   3.828  0.0048  0.1999 -0.0771
 5551TIP3   OH238143   5.732   3.577  16.692 -0.2843 -0.0945  0.5627
 5551TIP3    H138144   5.718   3.483  16.701  0.3223 -0.5033 -1.9200
 5551TIP3    H238145   5.718   3.594  16.599  0.8023  2.0595  0.7363
 5552TIP3   OH238146   6.018   6.414   0.668  0.3695 -0.0586  0.0602
 5552TIP3    H138147   5.925   6.436   0.659  0.1270 -1.4345 -1.0894
 5552TIP3    H238148   6.021   6.359   0.746  0.1833 -0.2172 -0.0439
 5553TIP3   OH238149   2.864   1.334  13.447  0.4439  0.0961 -0.1381
 5553TIP3    H138150   2.843   1.242  13.438  0.0765  0.1361  0.2909
 5553TIP3    H238151   2.944   1.346  13.396  0.0931 -0.3073 -0.7829
 5554TIP3   OH238152   0.229   1.988  14.342 -0.0882  0.2633 -0.4658
 5554TIP3    H138153   0.222   2.074  14.302 -2.4190  0.4676  0.2277
 5554TIP3    H238154   0.269   1.933  14.274  0.4381  1.6423 -1.3065
 5555TIP3   OH238155   3.769   3.689   1.510 -0.2299 -0.0548  0.5178
 5555TIP3    H138156   3.691   3.682   1.566 -2.3246  0.5835 -2.1095
 5555TIP3    H238157   3.791   3.782   1.511 -0.3573 -0.0217  0.1671
 5556TIP3   OH238158   2.334   3.168  12.265  0.2713 -0.0736  0.4733
 5556TIP3    H138159   2.292   3.165  12.179 -1.1577  0.6454  1.1159
 5556TIP3    H238160   2.428   3.159  12.247 -0.0121  0.0442 -1.1431
 5557TIP3   OH238161   1.140   3.613   6.095 -0.0815  0.0718  0.0355
 5557TIP3    H138162   1.119   3.538   6.040 -0.1392 -0.2425  0.4822
 5557TIP3    H238163   1.058   3.662   6.101  0.5205  1.5603 -2.3145
 5558TIP3   OH238164   3.950   0.477   0.483  0.2870  0.0362  0.1150
 5558TIP3    H138165   4.020   0.527   0.442  0.2279 -0.6587 -0.8694
 5558TIP3    H238166   3.983   0.454   0.570  0.8878  0.5125  0.0145
 5559TIP3   OH238167   3.271   4.293  16.019  0.2184  0.4049 -0.5420
 5559TIP3    H138168   3.283   4.302  16.114  1.6623  0.5790 -0.7255
 5559TIP3    H238169   3.312   4.371  15.982 -0.7879  0.5930 -1.2998
 5560TIP3   OH238170   5.797   1.953   4.420 -0.3045 -0.0996 -0.3065
 5560TIP3    H138171   5.813   1.879   4.478 -2.0859  1.0156  1.7526
 5560TIP3    H238172   5.794   2.029   4.478 -0.8274  1.2730 -2.0413
 5561TIP3   OH238173   4.032   2.976  16.553 -0.3145 -0.9449 -0.2231
 5561TIP3    H138174   4.012   3.060  16.595 -0.8054 -0.2331 -1.7867
 5561TIP3    H238175   4.120   2.988  16.517 -0.2573 -1.2155 -0.1720
 5562TIP3   OH238176   5.090   4.160  12.378  0.6344 -0.6506 -0.1654
 5562TIP3    H138177   5.069   4.193  12.290  1.7421  0.7793  0.0669
 5562TIP3    H238178   5.031   4.085  12.390  0.0248 -0.4986 -1.8743
 5563TIP3   OH238179   5.779   1.719  12.455  0.2300 -0.2145  0.1467
 5563TIP3    H138180   5.780   1.687  12.545  0.1428 -0.3645  0.0951
 5563TIP3    H238181   5.738   1.805  12.461  0.3872 -0.1459  0.2748
 5564TIP3   OH238182   2.465   1.225  13.960  1.1143  0.5348 -0.1132
 5564TIP3    H138183   2.553   1.195  13.985  1.0484  0.3070 -0.1523
 5564TIP3    H238184   2.449   1.182  13.876  0.1237 -1.1247  0.8604
 5565TIP3   OH238185   3.595   4.388   6.599 -0.0230  0.1785  0.2660
 5565TIP3    H138186   3.603   4.377   6.504  1.2537 -1.2675  0.4968
 5565TIP3    H238187   3.685   4.378   6.632 -0.2926  1.5511  1.5762
 5566TIP3   OH238188   0.104   1.079   0.186  0.2991  0.3863 -0.1714
 5566TIP3    H138189   0.010   1.070   0.201  0.5933 -0.8932  1.2076
 5566TIP3    H238190   0.135   0.990   0.170  1.0543  0.9834 -2.3505
 5567TIP3   OH238191   2.543   6.555  12.967 -0.3589  0.0830 -0.0340
 5567TIP3    H138192   2.568   6.642  12.933  0.8541 -0.2239  0.0163
 5567TIP3    H238193   2.529   6.502  12.889  1.3986 -0.3390 -0.1012
 5568TIP3   OH238194   5.350   1.658   3.914 -0.3815  0.1330  0.4007
 5568TIP3    H138195   5.255   1.656   3.909 -0.3161 -0.2075 -1.8978
 5568TIP3    H238196   5.375   1.568   3.938 -0.6221 -0.0148  0.1024
 5569TIP3   OH238197   4.943   3.878   3.945  0.0767 -0.3184 -0.4160
 5569TIP3    H138198   4.974   3.788   3.952  1.7448  0.1235 -1.5527
 5569TIP3    H238199   5.022   3.930   3.934 -0.9855  0.9829 -2.5892
 5570TIP3   OH238200   0.391   0.878   5.591 -0.4873 -0.3835  0.1221
 5570TIP3    H138201   0.331   0.899   5.519 -0.4287 -1.5861 -0.2956
 5570TIP3    H238202   0.333   0.850   5.663 -0.5066  0.1710  0.3318
 5571TIP3   OH238203   0.886   5.027  11.775 -0.1420 -0.1900 -1.0271
 5571TIP3    H138204   0.904   4.933  11.780 -0.6702 -0.3171 -1.3552
 5571TIP3    H238205   0.791   5.031  11.762 -0.0960  0.3860 -1.1761
 5572TIP3   OH238206   3.792   5.332  13.398  0.8758  0.6366 -0.3050
 5572TIP3    H138207   3.696   5.325  13.404  1.0236 -2.2253  0.2583
 5572TIP3    H238208   3.809   5.348  13.305 -0.1356  1.2269 -0.4005
 5573TIP3   OH238209   6.646   6.259  13.628  0.6358 -0.6720  0.2230
 5573TIP3    H138210   6.717   6.318  13.602  0.2586 -1.0145 -1.7316
 5573TIP3    H238211   6.578   6.316  13.663  1.2951 -0.2172  0.7990
 5574TIP3   OH238212   5.105   3.688   1.046  0.5068 -0.1635 -0.2327
 5574TIP3    H138213   5.189   3.687   1.093  0.0539 -0.5545  0.5923
 5574TIP3    H238214   5.080   3.780   1.043  0.0363 -0.2193  1.2446
 5575TIP3   OH238215   2.042   0.712  16.765 -0.3191 -0.4929  0.7070
 5575TIP3    H138216   2.129   0.675  16.749  0.2057 -0.0566  2.3407
 5575TIP3    H238217   1.986   0.636  16.780 -0.2256 -0.7746 -0.2934
 5576TIP3   OH238218   5.147   5.825  15.104  0.1669  0.3446 -0.0408
 5576TIP3    H138219   5.183   5.773  15.176  0.2902 -0.7852 -0.8784
 5576TIP3    H238220   5.063   5.783  15.085 -0.1448  1.0156 -0.1431
 5577TIP3   OH238221   6.248   3.866  16.003 -0.2741  0.2538 -1.0368
 5577TIP3    H138222   6.311   3.915  16.056  0.0084 -0.8831 -0.2996
 5577TIP3    H238223   6.215   3.931  15.940 -0.1314  1.4715  0.0875
 5578TIP3   OH238224   1.019   3.142   4.903 -0.0546  0.1505  0.2180
 5578TIP3    H138225   1.034   3.237   4.898 -0.2270  0.1534 -0.2867
 5578TIP3    H238226   0.966   3.122   4.826  0.7906 -0.5103 -0.2027
 5579TIP3   OH238227   4.189   6.351   0.290  0.0395  0.0930  0.7882
 5579TIP3    H138228   4.120   6.350   0.356 -0.0664 -1.0524  0.6802
 5579TIP3    H238229   4.268   6.372   0.338 -0.5123  2.6592  0.7313
 5580TIP3   OH238230   2.858   2.260  16.026  0.4481  0.0970 -0.2671
 5580TIP3    H138231   2.943   2.216  16.025 -0.1014 -1.0294  0.6748
 5580TIP3    H238232   2.814   2.227  15.947 -0.9836 -3.2652  1.7259
 5581TIP3   OH238233   5.086   6.148   4.861 -0.5076  0.6759  0.0313
 5581TIP3    H138234   5.145   6.074   4.880 -0.7509  0.3402 -0.4961
 5581TIP3    H238235   5.040   6.121   4.781 -2.2178  0.4260  1.0663
 5582TIP3   OH238236   5.456   0.616  12.419 -0.2393 -0.2975 -0.5227
 5582TIP3    H138237   5.374   0.571  12.439 -0.3291  0.2385  0.4093
 5582TIP3    H238238   5.434   0.709  12.426  0.3807 -0.1452 -0.5402
 5583TIP3   OH238239   1.180   0.458  14.467  0.5656  0.5959  0.0083
 5583TIP3    H138240   1.102   0.409  14.439  0.9388 -0.8706  1.3422
 5583TIP3    H238241   1.253   0.411  14.427  0.8228  1.5640 -0.6905
 5584TIP3   OH238242   0.513   1.073   3.487 -0.3091 -0.0105 -0.3996
 5584TIP3    H138243   0.522   1.161   3.522 -1.0638  0.5077 -1.4407
 5584TIP3    H238244   0.551   1.078   3.399 -0.3681 -0.7142 -0.4703
 5585TIP3   OH238245   3.972   0.577   6.298  0.7706  0.3670  0.3544
 5585TIP3    H138246   4.060   0.568   6.336  1.1564  1.7135 -0.1760
 5585TIP3    H238247   3.925   0.500   6.329  3.0435 -2.1281 -1.8433
 5586TIP3   OH238248   5.453   0.322  11.911 -0.1003 -0.4909 -0.3283
 5586TIP3    H138249   5.421   0.330  12.001 -1.0603  0.0998 -0.6978
 5586TIP3    H238250   5.406   0.246  11.875  0.4260 -0.8451 -0.2794
 5587TIP3   OH238251   3.026   3.653   4.572  0.3529  0.1223 -0.3866
 5587TIP3    H138252   2.999   3.676   4.483 -0.6266  1.0975  0.1383
 5587TIP3    H238253   3.025   3.735   4.620 -3.3483 -0.8014  1.5804
 5588TIP3   OH238254   1.680   2.006   5.372  0.2630 -0.2042  0.4479
 5588TIP3    H138255   1.666   1.912   5.385  1.9741 -1.0802 -2.9555
 5588TIP3    H238256   1.623   2.029   5.299  1.7937  0.7363 -0.5128
 5589TIP3   OH238257   5.495   2.006   2.746  0.1182 -0.4257  0.1385
 5589TIP3    H138258   5.543   1.967   2.819 -0.0380  1.5702  1.4094
 5589TIP3    H238259   5.515   2.100   2.753  1.0042 -0.2673 -3.1040
 5590TIP3   OH238260   0.767   2.642   3.029 -0.0812  0.5690  0.0668
 5590TIP3    H138261   0.736   2.627   3.118  0.3184  1.5885  0.3934
 5590TIP3    H238262   0.690   2.672   2.982 -0.1945  0.4508  0.1732
 5591TIP3   OH238263   4.207   3.286   0.973  0.1126  0.4897  0.3931
 5591TIP3    H138264   4.272   3.356   0.980 -0.2129  0.9614 -0.9019
 5591TIP3    H238265   4.252   3.217   0.924 -0.1332  0.5286  0.1089
 5592TIP3   OH238266   1.577   1.956   6.354  0.6591 -0.6271 -0.3210
 5592TIP3    H138267   1.630   2.022   6.309  1.0669 -0.5429  0.2711
 5592TIP3    H238268   1.632   1.878   6.355  2.0053  0.2188  2.7679
 5593TIP3   OH238269   5.180   6.107   6.146 -0.2174  0.0440 -0.1081
 5593TIP3    H138270   5.092   6.111   6.184  0.3197 -1.2698  1.4042
 5593TIP3    H238271   5.193   6.194   6.109 -2.2796  0.1596 -0.7204
 5594TIP3   OH238272   4.111   4.961  12.123  0.1316 -0.1531 -0.1649
 5594TIP3    H138273   4.130   4.924  12.037 -0.3203  1.8832 -1.2050
 5594TIP3    H238274   4.160   4.906  12.184  1.9712 -0.5580 -1.8862
 5595TIP3   OH238275   5.420   1.184  13.582  0.0650 -0.5240  0.1814
 5595TIP3    H138276   5.358   1.170  13.653 -0.1277 -0.5941 -0.0006
 5595TIP3    H238277   5.458   1.098  13.566 -0.7096 -0.7341 -0.5569
 5596TIP3   OH238278   4.645   5.375  14.107 -0.2296  0.1788  0.0063
 5596TIP3    H138279   4.666   5.408  14.194  1.2655  0.3975 -0.4258
 5596TIP3    H238280   4.665   5.281  14.111 -0.1758  0.1852 -0.1114
 5597TIP3   OH238281   2.593   1.016   0.135 -1.1550 -0.4598 -0.3756
 5597TIP3    H138282   2.570   0.937   0.183  0.8316 -1.0592 -0.3061
 5597TIP3    H238283   2.624   1.077   0.202 -1.9027  0.0818 -0.5173
 5598TIP3   OH238284   2.889   3.732  12.909  0.2716 -1.1678 -0.0051
 5598TIP3    H138285   2.953   3.793  12.871 -0.0691 -1.5450 -1.2382
 5598TIP3    H238286   2.825   3.789  12.951  2.1191 -0.8027  2.5469
 5599TIP3   OH238287   2.086   5.442   5.317 -0.4077 -0.1315  0.5743
 5599TIP3    H138288   2.130   5.506   5.263  1.5025 -0.3321  1.7852
 5599TIP3    H238289   2.134   5.444   5.400 -0.6953 -2.6151  0.8768
 5600TIP3   OH238290   4.149   2.651   1.445 -0.2461 -0.5131 -0.0186
 5600TIP3    H138291   4.243   2.664   1.459  0.1361 -1.2369 -1.7040
 5600TIP3    H238292   4.140   2.558   1.426 -1.1404 -0.2311 -1.0818
 5601TIP3   OH238293   6.607   1.456  14.855 -0.2945  0.6603  0.3457
 5601TIP3    H138294   6.676   1.391  14.871  0.3777  1.5749  1.2208
 5601TIP3    H238295   6.592   1.451  14.760  0.3632 -0.1534  0.2719
 5602TIP3   OH238296   0.074   4.306  10.476  0.3579  0.4149 -0.5216
 5602TIP3    H138297   0.159   4.264  10.461 -0.1964 -0.6205 -0.8414
 5602TIP3    H238298   0.089   4.398  10.455  1.1217  0.0530 -1.6469
 5603TIP3   OH238299   2.826   3.309   6.691 -0.0570  0.2898 -0.7795
 5603TIP3    H138300   2.763   3.376   6.665 -0.2010  0.0806 -0.9652
 5603TIP3    H238301   2.859   3.273   6.609 -0.2081 -0.0822 -0.6798
 5604TIP3   OH238302   3.665   3.224  11.216  0.1079  0.0929  0.3486
 5604TIP3    H138303   3.694   3.147  11.265  2.1250  0.2135 -0.5553
 5604TIP3    H238304   3.694   3.299  11.269  0.3062  0.2168  0.0690
 5605TIP3   OH238305   2.822   5.774   1.579  0.5819  0.2462  0.1407
 5605TIP3    H138306   2.784   5.737   1.659  0.3682 -1.5092 -0.7105
 5605TIP3    H238307   2.902   5.724   1.566  1.3778  1.5186  0.0188
 5606TIP3   OH238308   5.125   4.493   2.940 -0.0188  0.1629  0.0946
 5606TIP3    H138309   5.124   4.579   2.980 -0.3428 -0.4903  1.5587
 5606TIP3    H238310   5.186   4.442   2.994 -1.7718 -1.2178  0.8769
 5607TIP3   OH238311   1.456   6.221  13.880 -0.8463  0.1939  0.4464
 5607TIP3    H138312   1.432   6.298  13.829  1.8840  0.1529 -1.1352
 5607TIP3    H238313   1.396   6.152  13.851 -1.4871  1.0172 -0.2090
 5608TIP3   OH238314   3.246   1.673  12.590 -0.2869 -0.2322 -0.1392
 5608TIP3    H138315   3.322   1.627  12.625 -0.0941  1.7107  2.2799
 5608TIP3    H238316   3.283   1.748  12.543 -0.6616  0.4329  0.6060
 5609TIP3   OH238317   0.514   4.782   4.578  0.4700 -0.3948 -0.4724
 5609TIP3    H138318   0.535   4.825   4.495  1.6572 -1.0308 -0.5247
 5609TIP3    H238319   0.586   4.805   4.636  0.8649 -1.8394 -0.3420
 5610TIP3   OH238320   2.094   6.164  12.495 -0.1446  0.1990  0.3512
 5610TIP3    H138321   2.084   6.147  12.589  1.9867 -1.0845  0.4022
 5610TIP3    H238322   2.188   6.176  12.483 -0.1457 -1.6043 -1.9181
 5611TIP3   OH238323   4.609   6.696   4.552 -0.5416 -0.6064  0.0992
 5611TIP3    H138324   4.647   6.610   4.532 -0.2904 -0.4612 -0.0410
 5611TIP3    H238325   4.632   6.751   4.478  0.3079 -0.0897  0.7257
 5612TIP3   OH238326   5.259   2.261   5.880  0.0611 -0.1419 -0.0355
 5612TIP3    H138327   5.215   2.341   5.907 -1.3754 -0.6125 -0.8324
 5612TIP3    H238328   5.218   2.192   5.933 -0.4024 -0.6249 -0.9933
 5613TIP3   OH238329   0.057   5.909   4.912  0.0313 -0.1505  0.4468
 5613TIP3    H138330   0.060   5.993   4.866 -0.5500 -0.0473  0.5922
 5613TIP3    H238331   0.037   5.846   4.843  0.5774 -0.1925  0.3176
 5614TIP3   OH238332   4.968   6.694   5.494  0.0880 -0.3144  0.5264
 5614TIP3    H138333   4.974   6.722   5.585 -0.3300  0.0443  0.4495
 5614TIP3    H238334   5.001   6.605   5.493  1.9932  0.3480  0.6981
 5615TIP3   OH238335   5.419   5.628  13.937  0.6048  0.1133  0.6625
 5615TIP3    H138336   5.377   5.575  13.870  2.9897  0.7994 -1.5592
 5615TIP3    H238337   5.360   5.702  13.951 -0.9079 -1.1021  0.9445
 5616TIP3   OH238338   6.445   6.676   5.247 -0.3390  0.0323  0.4005
 5616TIP3    H138339   6.382   6.642   5.310  0.2766 -0.6496  0.6663
 5616TIP3    H238340   6.418   6.639   5.164 -0.2882 -0.2657  0.5154
 5617TIP3   OH238341   4.448   0.360  13.609 -0.4151 -0.6056  0.0246
 5617TIP3    H138342   4.410   0.314  13.534  0.4094 -1.5699  0.1628
 5617TIP3    H238343   4.373   0.393  13.658 -1.1046 -2.4357  0.2766
 5618TIP3   OH238344   5.741   2.229  14.608 -0.1412 -0.1334 -0.0438
 5618TIP3    H138345   5.824   2.274  14.590  0.7367 -1.5715  0.2775
 5618TIP3    H238346   5.729   2.171  14.533 -1.1607  0.4331 -0.3498
 5619TIP3   OH238347   2.831   1.810   6.075  0.6473 -0.0129  0.7410
 5619TIP3    H138348   2.849   1.895   6.034 -2.0795  0.6150  0.7063
 5619TIP3    H238349   2.746   1.820   6.116  1.6449 -1.7745  3.5397
 5620TIP3   OH238350   4.667   4.086   2.907  0.1677  0.6423 -0.1141
 5620TIP3    H138351   4.762   4.081   2.906  0.2027  1.0826  0.5820
 5620TIP3    H238352   4.639   4.009   2.956  0.1292  0.1179 -0.9497
 5621TIP3   OH238353   6.719   0.780   3.715  0.1951  0.2866 -0.6127
 5621TIP3    H138354   6.782   0.776   3.643  0.6517  0.6630 -0.2376
 5621TIP3    H238355   6.650   0.838   3.682  0.8044  1.1276 -0.4485
 5622TIP3   OH238356   4.519   3.714   1.336  1.0749 -0.3864 -0.5356
 5622TIP3    H138357   4.613   3.726   1.324  0.7706  1.7941 -1.2504
 5622TIP3    H238358   4.487   3.685   1.250  1.4163 -4.1113  0.4656
 5623TIP3   OH238359   6.668   0.040   4.305 -0.5272 -0.1868  0.0164
 5623TIP3    H138360   6.703  -0.049   4.308 -0.8052 -0.2874  2.9845
 5623TIP3    H238361   6.575   0.030   4.326 -1.3095  0.5995 -2.5973
 5624TIP3   OH238362   0.968   4.779  13.609  0.2262 -0.1447 -0.7807
 5624TIP3    H138363   1.054   4.743  13.588 -0.4575 -2.6486  0.3133
 5624TIP3    H238364   0.947   4.836  13.535  1.5190 -1.8713 -2.5929
 5625TIP3   OH238365   2.368   0.626  10.785  0.5371 -0.1987  0.0139
 5625TIP3    H138366   2.288   0.679  10.777  0.9923  0.3066 -1.3033
 5625TIP3    H238367   2.439   0.685  10.758  1.1835 -1.1296 -0.3395
 5626TIP3   OH238368   5.917   2.435  16.456  0.6480  0.1895 -0.1684
 5626TIP3    H138369   5.952   2.524  16.465  4.0512 -1.0157  0.1584
 5626TIP3    H238370   5.897   2.408  16.546 -1.0478  0.7933 -0.3315
 5627TIP3   OH238371   5.674   3.035  16.513 -0.0767 -0.2960 -0.0665
 5627TIP3    H138372   5.635   3.080  16.589 -0.0281 -0.3941  0.0170
 5627TIP3    H238373   5.666   3.098  16.441  1.1306  0.3493  0.3329
 5628TIP3   OH238374   3.907   1.176   2.871 -0.0126 -0.6376 -0.5304
 5628TIP3    H138375   3.993   1.154   2.908 -0.4807 -1.1400  0.2676
 5628TIP3    H238376   3.870   1.092   2.843 -0.8932 -0.6276  0.5550
 5629TIP3   OH238377   6.072   6.636  12.539 -0.0550  0.3647  0.2781
 5629TIP3    H138378   5.990   6.591  12.519 -0.3061  0.7203  0.4818
 5629TIP3    H238379   6.109   6.589  12.613 -0.4017  0.5908  0.6002
 5630TIP3   OH238380   1.615   1.831  13.711 -0.3319 -0.4836  0.0620
 5630TIP3    H138381   1.629   1.740  13.739 -1.3302 -0.2636  1.3451
 5630TIP3    H238382   1.524   1.833  13.681  0.2875 -0.3657 -1.9416
 5631TIP3   OH238383   2.261   0.713  11.302  0.4761 -0.9585  0.3501
 5631TIP3    H138384   2.241   0.769  11.226 -4.1890 -2.1524  0.3947
 5631TIP3    H238385   2.310   0.640  11.265 -0.0429 -0.5804 -1.1957
 5632TIP3   OH238386   5.339   2.516   3.653  0.1248 -0.3865 -0.5423
 5632TIP3    H138387   5.262   2.475   3.692 -0.6162  0.9448 -0.5583
 5632TIP3    H238388   5.317   2.523   3.560 -1.4495  3.3951 -0.0774
 5633TIP3   OH238389   5.611   4.144   4.977 -0.4578 -0.3350  0.1547
 5633TIP3    H138390   5.661   4.214   5.019 -1.1759 -0.3204  1.0195
 5633TIP3    H238391   5.657   4.064   5.001  0.2379 -0.1990 -0.6542
 5634TIP3   OH238392   6.542   0.514  13.109 -0.2585  0.2189  0.1530
 5634TIP3    H138393   6.475   0.474  13.163 -0.2664 -0.1298 -0.1161
 5634TIP3    H238394   6.587   0.441  13.067  0.3256  0.4483  0.3768
 5635TIP3   OH238395   3.634   2.800   4.746 -0.3451  0.4231  0.1990
 5635TIP3    H138396   3.611   2.889   4.774  0.4538  0.1926  1.6767
 5635TIP3    H238397   3.676   2.812   4.661  0.4522  1.5514  0.7269
 5636TIP3   OH238398   0.714   0.303   1.746  0.4032 -0.1245 -0.0261
 5636TIP3    H138399   0.776   0.231   1.733 -1.0579 -1.2140 -1.2562
 5636TIP3    H238400   0.758   0.379   1.709  0.7250 -1.0243 -1.5566
 5637TIP3   OH238401   5.908   0.670   1.418  0.2676 -0.3452  0.3299
 5637TIP3    H138402   5.930   0.594   1.471 -1.2167 -2.3464 -1.7270
 5637TIP3    H238403   5.813   0.680   1.428  0.4604  1.4840  0.7837
 5638TIP3   OH238404   6.311   0.263   3.002 -0.7422  0.0802  0.0894
 5638TIP3    H138405   6.363   0.319   2.943 -0.6399 -0.0845  0.0206
 5638TIP3    H238406   6.349   0.176   2.991 -3.4889 -0.9719 -3.0387
 5639TIP3   OH238407   4.484   1.198   5.405  0.8038  0.4535 -0.1355
 5639TIP3    H138408   4.527   1.114   5.390 -0.0334  0.1528 -0.9210
 5639TIP3    H238409   4.465   1.232   5.317  0.3148  1.0393  0.1877
 5640TIP3   OH238410   6.816   0.406  12.388  0.2990  0.0012  0.2238
 5640TIP3    H138411   6.861   0.479  12.345  1.0687 -0.3391  0.4260
 5640TIP3    H238412   6.878   0.333  12.381  0.1259 -0.2609  1.2327
 5641TIP3   OH238413   0.887   2.902  12.766 -0.1693  0.4393 -0.3263
 5641TIP3    H138414   0.838   2.971  12.811  0.9269  0.0145  1.6728
 5641TIP3    H238415   0.899   2.835  12.833 -2.3081 -2.3786 -2.5052
 5642TIP3   OH238416   4.386   1.187  14.626  0.1052 -0.0217  0.4051
 5642TIP3    H138417   4.351   1.269  14.660 -1.1337  0.2366 -1.3793
 5642TIP3    H238418   4.353   1.120  14.687  0.1609  0.6615  1.2132
 5643TIP3   OH238419   2.877   1.584   0.149  0.6899 -0.1992 -0.0023
 5643TIP3    H138420   2.934   1.528   0.202 -0.0133 -0.5495  0.3878
 5643TIP3    H238421   2.853   1.529   0.074 -1.4275 -1.0758  1.2580
 5644TIP3   OH238422   4.760   0.493  16.916  0.3922  0.0576 -0.1785
 5644TIP3    H138423   4.809   0.427  16.965  0.7558  0.6609  0.2785
 5644TIP3    H238424   4.819   0.567  16.910  0.0957  0.2372 -0.9563
 5645TIP3   OH238425   2.157   4.087  12.763  0.4911  0.2872  0.3198
 5645TIP3    H138426   2.114   4.002  12.772 -0.0782  0.6442  1.0317
 5645TIP3    H238427   2.250   4.068  12.772  0.4563 -0.4052 -0.6048
 5646TIP3   OH238428   3.306   6.472  16.946 -0.3834  0.1669  0.1772
 5646TIP3    H138429   3.270   6.410  16.884  0.6707 -1.2754  0.9367
 5646TIP3    H238430   3.259   6.455  17.028 -1.2958  1.5875 -0.0237
 5647TIP3   OH238431   6.089   3.015   5.522 -0.0438 -0.3679  1.0035
 5647TIP3    H138432   6.148   3.089   5.536 -0.4647 -0.0122  0.9100
 5647TIP3    H238433   6.044   3.004   5.606  1.0219 -1.4159  1.4601
 5648TIP3   OH238434   5.534   0.521  15.207  0.3632 -0.4258  0.0997
 5648TIP3    H138435   5.561   0.584  15.139  1.3243  0.3129  1.1308
 5648TIP3    H238436   5.440   0.513  15.195 -0.0143  2.2037  0.7155
 5649TIP3   OH238437   3.132   6.623   3.157 -0.1756  0.7998 -0.6047
 5649TIP3    H138438   3.209   6.632   3.213  1.3893 -2.2819 -2.0105
 5649TIP3    H238439   3.166   6.630   3.068 -0.9012 -3.1254 -1.3670
 5650TIP3   OH238440   6.358   5.802   1.308 -0.3923 -0.6650 -0.0442
 5650TIP3    H138441   6.373   5.896   1.305  0.1437 -0.7090 -3.4451
 5650TIP3    H238442   6.271   5.792   1.346 -0.7933  1.2756 -0.3433
 5651TIP3   OH238443   1.566   4.918   6.065  0.2566  0.7790 -0.1398
 5651TIP3    H138444   1.545   5.011   6.071  1.5640  1.0847  0.1521
 5651TIP3    H238445   1.484   4.875   6.042 -0.2425  2.0744 -0.8485
 5652TIP3   OH238446   6.177   1.155  14.176 -0.0834  0.6304  0.0312
 5652TIP3    H138447   6.081   1.165  14.181 -0.1167 -0.1834  1.9889
 5652TIP3    H238448   6.199   1.099  14.250  2.1187  2.2119  0.6841
 5653TIP3   OH238449   1.413   2.525  13.986 -0.3972  0.0462  0.3669
 5653TIP3    H138450   1.449   2.438  13.972 -0.9736 -0.1644  0.1442
 5653TIP3    H238451   1.489   2.583  13.987  0.0726 -0.5684  1.4894
 5654TIP3   OH238452   1.507   3.462  11.273  0.0029  0.3686 -0.2163
 5654TIP3    H138453   1.418   3.481  11.304  0.9113  2.0828  1.5498
 5654TIP3    H238454   1.501   3.373  11.238 -1.9045 -0.4925  1.9856
 5655TIP3   OH238455   3.196   4.006   2.288 -0.3836  0.1825  0.0703
 5655TIP3    H138456   3.253   3.931   2.274 -1.0329 -0.3073 -0.0185
 5655TIP3    H238457   3.213   4.033   2.379  0.9203  0.8664 -0.3437
 5656TIP3   OH238458   2.323   2.330  13.160  0.1030  0.2191  0.2737
 5656TIP3    H138459   2.325   2.241  13.124 -1.6768 -0.5225  1.8460
 5656TIP3    H238460   2.335   2.318  13.255 -2.4887  1.3973  0.8256
 5657TIP3   OH238461   3.204   1.471   4.626 -0.2247  0.2728  0.0534
 5657TIP3    H138462   3.141   1.479   4.697  1.6074  1.3807  1.6435
 5657TIP3    H238463   3.256   1.551   4.631  1.5258 -0.7480 -0.9744
 5658TIP3   OH238464   6.114   5.749   2.372 -0.6060 -0.2362 -0.1856
 5658TIP3    H138465   6.202   5.774   2.400 -0.2433 -1.3330 -0.2824
 5658TIP3    H238466   6.127   5.670   2.319 -1.6143 -0.1981 -0.5178
 5659TIP3   OH238467   0.308   0.893  11.079 -0.1015  0.1160  0.2618
 5659TIP3    H138468   0.382   0.837  11.100 -1.4989 -0.6137  3.9106
 5659TIP3    H238469   0.247   0.836  11.031 -0.0982 -0.5719  1.0478
 5660TIP3   OH238470   6.579   6.277   1.215 -0.3531 -0.1742 -0.3899
 5660TIP3    H138471   6.592   6.371   1.202 -0.9199 -0.0612 -0.1724
 5660TIP3    H238472   6.657   6.237   1.178  0.4153  0.4417  0.5136
 5661TIP3   OH238473   2.218   3.452   2.806  0.3492  0.0771  0.6833
 5661TIP3    H138474   2.236   3.408   2.888  2.3443 -1.3414 -0.4323
 5661TIP3    H238475   2.142   3.406   2.769  0.5250 -0.4262  0.9457
 5662TIP3   OH238476   5.882   5.408   3.865  0.5187 -0.1326  0.3894
 5662TIP3    H138477   5.932   5.422   3.946  1.4327  1.1899 -0.3554
 5662TIP3    H238478   5.947   5.414   3.795 -0.5625  0.9796 -0.5814
 5663TIP3   OH238479   4.883   3.615   1.832 -0.0603 -0.2935  0.0727
 5663TIP3    H138480   4.966   3.568   1.820 -0.2245 -0.6005  0.1123
 5663TIP3    H238481   4.876   3.629   1.927 -0.7075 -1.5012  0.2260
 5664TIP3   OH238482   0.769   6.481   2.158 -0.5847 -0.7237 -0.4712
 5664TIP3    H138483   0.693   6.452   2.207 -0.5132  0.0077  0.0875
 5664TIP3    H238484   0.831   6.409   2.164 -0.0775 -0.1802  1.6054
 5665TIP3   OH238485   4.961   4.072   2.439  0.2663 -0.2462  0.0335
 5665TIP3    H138486   4.966   4.061   2.534  1.3765 -0.2957 -0.0070
 5665TIP3    H238487   4.872   4.102   2.422 -0.6767 -2.4456  0.8352
 5666TIP3   OH238488   6.567   3.373  13.899  0.2436 -0.4114  0.2411
 5666TIP3    H138489   6.570   3.463  13.864  3.5723 -0.6269 -0.3383
 5666TIP3    H238490   6.494   3.332  13.852 -1.5747  2.0027  0.7503
 5667TIP3   OH238491   5.948   1.447   4.575  0.0655 -0.1639  0.9956
 5667TIP3    H138492   5.918   1.371   4.525  0.8439 -0.1707  0.5213
 5667TIP3    H238493   5.935   1.422   4.666 -0.9008 -0.3490  0.8218
 5668TIP3   OH238494   1.187   4.442   5.023  0.9365 -0.5793  0.5108
 5668TIP3    H138495   1.123   4.471   5.088  0.5481 -1.1393  0.3841
 5668TIP3    H238496   1.195   4.515   4.962 -1.6824 -1.4770 -1.0843
 5669TIP3   OH238497   0.385   3.028   4.590 -0.0400 -0.0206 -0.3756
 5669TIP3    H138498   0.299   2.987   4.597 -0.3747  0.8170  0.5590
 5669TIP3    H238499   0.367   3.118   4.562  0.4790  0.3376  0.4029
 5670TIP3   OH238500   0.804   3.976  12.859  0.0342 -0.7455 -0.7672
 5670TIP3    H138501   0.859   4.052  12.882  0.9825 -1.6040 -0.0768
 5670TIP3    H238502   0.834   3.950  12.772  1.1681 -1.5615 -0.1586
 5671TIP3   OH238503   0.654   0.869   0.569  0.5554  0.1452 -0.0245
 5671TIP3    H138504   0.595   0.895   0.640  1.8829 -3.2170  2.5556
 5671TIP3    H238505   0.736   0.848   0.612  1.2991 -2.5901 -2.4593
 5672TIP3   OH238506   1.377   6.503  16.710  0.2073  0.0016  0.5235
 5672TIP3    H138507   1.338   6.570  16.654  0.8439 -0.7248 -0.8471
 5672TIP3    H238508   1.307   6.439  16.722 -0.0959  0.4154  1.0278
 5673TIP3   OH238509   5.625   0.561  11.439 -0.2353 -0.1875 -0.4269
 5673TIP3    H138510   5.552   0.509  11.404  0.3393 -0.4329 -1.3028
 5673TIP3    H238511   5.596   0.652  11.432 -0.0442 -0.2103 -1.8143
 5674TIP3   OH238512   2.577   1.813   0.763  0.2926 -0.4818 -0.0819
 5674TIP3    H138513   2.538   1.893   0.729  0.9536  0.0648  0.4318
 5674TIP3    H238514   2.628   1.841   0.839  0.8155 -1.3397 -0.1044
 5675TIP3   OH238515   1.738   4.801  12.848  0.2127  0.3785 -0.5433
 5675TIP3    H138516   1.777   4.810  12.761  0.8469  2.5026 -0.0971
 5675TIP3    H238517   1.813   4.787  12.906 -0.3068 -2.8122 -0.4399
 5676TIP3   OH238518   6.334   4.211   0.409  0.7127 -0.1121 -0.1088
 5676TIP3    H138519   6.239   4.209   0.418  0.4979 -2.3062 -1.7718
 5676TIP3    H238520   6.367   4.203   0.498 -0.6886 -0.4868  0.4034
 5677TIP3   OH238521   3.170   2.532  14.741 -0.3709 -0.4111  0.1158
 5677TIP3    H138522   3.139   2.597  14.804 -2.9207 -0.5626 -0.8658
 5677TIP3    H238523   3.256   2.564  14.714 -1.1171  2.0583  0.3897
 5678TIP3   OH238524   5.913   4.354   1.842 -0.4303 -0.0447  0.6713
 5678TIP3    H138525   5.838   4.411   1.857  0.0146  0.0571  2.8376
 5678TIP3    H238526   5.964   4.359   1.923  2.1271  0.1755 -0.8196
 5679TIP3   OH238527   6.681   4.371  16.790 -0.7696  0.0786  0.2182
 5679TIP3    H138528   6.708   4.413  16.872 -1.3220 -0.6879  0.8021
 5679TIP3    H238529   6.749   4.395  16.728  0.5315 -0.6272  1.3069
 5680TIP3   OH238530   0.433   3.159  12.724  0.1751 -0.2304 -0.3738
 5680TIP3    H138531   0.359   3.195  12.772  1.2019  1.0474  0.3284
 5680TIP3    H238532   0.400   3.077  12.686 -2.1299  1.1765 -1.6527
 5681TIP3   OH238533   4.943   6.418  16.296 -0.2977  0.0126 -0.5992
 5681TIP3    H138534   4.932   6.513  16.293 -0.4663 -0.0269 -1.2128
 5681TIP3    H238535   4.999   6.397  16.221  0.9435 -0.2110  0.3547
 5682TIP3   OH238536   4.379   3.504   3.972  0.1281 -0.0007  0.2436
 5682TIP3    H138537   4.304   3.444   3.978 -0.7881  1.1403  0.5019
 5682TIP3    H238538   4.368   3.547   3.887 -0.4364  1.3503  0.9820
 5683TIP3   OH238539   4.804   5.793   3.534  0.0890 -0.0339  0.0113
 5683TIP3    H138540   4.731   5.852   3.523  1.0153  0.9046 -1.4111
 5683TIP3    H238541   4.770   5.707   3.508 -1.6139 -0.4828  3.2610
 5684TIP3   OH238542   1.043   1.396   3.557  0.1293 -0.2275 -0.2430
 5684TIP3    H138543   1.037   1.433   3.645 -0.5148  1.2139 -0.8525
 5684TIP3    H238544   0.953   1.371   3.536 -0.0521  1.0425 -1.1169
 5685TIP3   OH238545   0.233   5.342  14.602 -0.0733 -0.1263  0.3804
 5685TIP3    H138546   0.304   5.304  14.550 -0.1567  1.4226 -0.9739
 5685TIP3    H238547   0.243   5.436  14.589 -2.9147  0.1378 -0.6583
 5686TIP3   OH238548   4.058   1.726  11.338 -0.2289  0.4206 -0.2320
 5686TIP3    H138549   4.138   1.737  11.287 -0.4221  1.2049 -0.3797
 5686TIP3    H238550   4.080   1.660  11.404  0.7351  1.0701  0.1157
 5687TIP3   OH238551   3.973   5.789  16.481 -0.3999  0.1660  0.0441
 5687TIP3    H138552   3.962   5.725  16.551 -1.2176 -1.5267 -1.5624
 5687TIP3    H238553   3.934   5.869  16.516 -1.8120 -0.9422  1.1056
 5688TIP3   OH238554   1.994   6.384   4.785 -0.3346  0.4048 -0.8879
 5688TIP3    H138555   1.906   6.410   4.760 -0.7477 -1.2614 -1.2613
 5688TIP3    H238556   1.991   6.377   4.880 -0.7014  0.0575 -0.9223
 5689TIP3   OH238557   5.410   5.023   0.771  0.4831 -0.0843  0.1948
 5689TIP3    H138558   5.421   5.103   0.822  0.2306 -0.3256  0.6325
 5689TIP3    H238559   5.498   5.004   0.737  1.2524 -1.2945  2.6175
 5690TIP3   OH238560   2.012   4.479   1.950 -0.2647  0.2238 -0.1894
 5690TIP3    H138561   1.927   4.438   1.961 -0.0172  0.0029  1.0173
 5690TIP3    H238562   2.050   4.436   1.873 -1.3432  0.5348 -0.9137
 5691TIP3   OH238563   1.410   5.652  11.395 -0.0823  0.1840  0.0857
 5691TIP3    H138564   1.435   5.587  11.461  0.1063 -0.5100 -0.6470
 5691TIP3    H238565   1.408   5.602  11.313  1.8483  1.4728 -0.7954
 5692TIP3   OH238566   6.300   1.392  11.739  0.0654 -0.0951 -0.9107
 5692TIP3    H138567   6.251   1.382  11.820  0.7050 -2.4220 -0.7526
 5692TIP3    H238568   6.236   1.378  11.669 -0.2539  0.8067 -0.8157
 5693TIP3   OH238569   1.451   2.846   0.410 -0.2793  0.6167  0.1594
 5693TIP3    H138570   1.358   2.862   0.426 -0.4661 -0.1144 -0.1051
 5693TIP3    H238571   1.477   2.914   0.348 -1.6531 -1.3701 -2.8587
 5694TIP3   OH238572   0.016   1.678  12.894 -0.2097  0.0882  0.4373
 5694TIP3    H138573   0.016   1.749  12.829  0.5999 -0.7925 -0.5597
 5694TIP3    H238574  -0.058   1.624  12.869  0.4971 -0.6159 -0.1931
 5695TIP3   OH238575   5.260   2.710  11.241 -0.0015 -0.2030  0.1888
 5695TIP3    H138576   5.262   2.701  11.336 -0.0031  0.1525  0.2268
 5695TIP3    H238577   5.339   2.760  11.220  1.4291 -2.5453 -0.2734
 5696TIP3   OH238578   5.207   4.258  14.926 -0.0951  0.3349  0.2113
 5696TIP3    H138579   5.275   4.198  14.896 -1.2912 -0.8923 -0.1941
 5696TIP3    H238580   5.136   4.247  14.862 -0.3633  2.1958  0.1271
 5697TIP3   OH238581   1.312   1.701   4.187  0.0557  0.1429  0.2299
 5697TIP3    H138582   1.376   1.772   4.182  1.2906 -0.9327  0.2960
 5697TIP3    H238583   1.355   1.627   4.143 -0.6719 -0.9457  1.3072
 5698TIP3   OH238584   1.858   1.672  11.749  0.3620  0.8858 -0.3415
 5698TIP3    H138585   1.936   1.722  11.725 -0.3273  1.5924 -1.2299
 5698TIP3    H238586   1.850   1.683  11.844  3.4192 -2.3538  0.4706
 5699TIP3   OH238587   4.236   0.776  11.198 -0.5604  0.5973  0.3761
 5699TIP3    H138588   4.182   0.854  11.208 -0.2075  1.5507 -3.5991
 5699TIP3    H238589   4.189   0.723  11.134  0.9435 -0.7899  0.3548
 5700TIP3   OH238590   3.957   3.778  16.603  0.1367  0.4080 -0.2112
 5700TIP3    H138591   3.898   3.710  16.570  1.2692  0.2363 -2.0046
 5700TIP3    H238592   3.924   3.797  16.691 -1.6591 -0.7444 -0.5693
 5701TIP3   OH238593   1.175   2.406  14.255  0.1957 -0.3259 -0.2762
 5701TIP3    H138594   1.268   2.427  14.265  0.0375  0.4114 -0.2747
 5701TIP3    H238595   1.135   2.488  14.228 -0.3768 -0.7729 -0.8158
 5702TIP3   OH238596   3.066   1.571  14.236  0.3084 -0.1273 -0.2443
 5702TIP3    H138597   3.022   1.636  14.181 -0.0746 -0.9240 -0.8967
 5702TIP3    H238598   3.141   1.618  14.272  1.2789  0.1222 -2.4083
 5703TIP3   OH238599   2.276   0.683  13.963  0.0104 -0.4460  0.0498
 5703TIP3    H138600   2.238   0.731  13.890  0.1566 -0.4257 -0.0150
 5703TIP3    H238601   2.336   0.746  14.004 -0.6122 -0.2202  0.6351
 5704TIP3   OH238602   0.717   2.123  15.864  0.2729  0.4319 -0.1342
 5704TIP3    H138603   0.680   2.147  15.779  0.8211 -0.7374 -0.7365
 5704TIP3    H238604   0.678   2.038  15.884 -3.0206  2.4220  2.8052
 5705TIP3   OH238605   3.494   3.961  11.929 -0.3127  0.4537  0.3617
 5705TIP3    H138606   3.399   3.951  11.919 -0.1202 -0.4973 -0.7047
 5705TIP3    H238607   3.523   3.993  11.844  0.5443 -1.1061  0.0336
 5706TIP3   OH238608   4.486   5.752   4.723  0.3188 -0.0465 -0.6152
 5706TIP3    H138609   4.503   5.700   4.645  1.0147 -0.6140 -0.1017
 5706TIP3    H238610   4.395   5.735   4.744  0.2028 -0.1000 -1.1466
 5707TIP3   OH238611   6.393   6.023   1.045  0.0435 -0.5100  0.0720
 5707TIP3    H138612   6.447   6.099   1.024 -2.0810  0.3650 -2.9617
 5707TIP3    H238613   6.345   6.049   1.123 -0.9143  1.5629 -1.1048
 5708TIP3   OH238614   2.559   1.185   4.930  0.2323  0.4992  0.5284
 5708TIP3    H138615   2.565   1.122   4.859 -1.7263 -0.8481  1.4831
 5708TIP3    H238616   2.501   1.254   4.898 -0.6100 -0.0829  0.7802
 5709TIP3   OH238617   0.904   3.978   5.861 -0.2911  0.2652 -0.4250
 5709TIP3    H138618   0.869   4.029   5.788  0.5773 -0.9645 -1.7592
 5709TIP3    H238619   0.981   4.028   5.890  0.5694 -0.2537 -1.7345
 5710TIP3   OH238620   0.746   5.684  12.006 -0.4497  0.1157  0.1152
 5710TIP3    H138621   0.823   5.733  12.034 -1.3012  0.2383  2.4332
 5710TIP3    H238622   0.674   5.723  12.055 -1.5506 -1.7937  0.0917
 5711TIP3   OH238623   5.602   3.384   2.494  0.8746  0.2812  0.3539
 5711TIP3    H138624   5.661   3.310   2.510  0.8302  0.0577 -0.4689
 5711TIP3    H238625   5.519   3.343   2.470  0.7715  0.6011  0.1597
 5712TIP3   OH238626   5.414   6.096   5.451  0.6888  0.1154 -0.1765
 5712TIP3    H138627   5.325   6.130   5.464  0.7058  0.1823 -0.2340
 5712TIP3    H238628   5.437   6.055   5.535  0.6181  0.1317 -0.1496
 5713TIP3   OH238629   3.199   3.959  13.099 -0.3794 -0.6400 -0.5029
 5713TIP3    H138630   3.235   3.981  13.013 -0.2459 -1.1445 -0.5833
 5713TIP3    H238631   3.188   4.043  13.143 -2.1128 -0.2238 -1.6475
 5714TIP3   OH238632   1.965   6.061   3.966  0.0261  0.7218 -0.5154
 5714TIP3    H138633   2.003   6.134   4.015 -0.6688  1.8162 -1.5422
 5714TIP3    H238634   1.970   5.986   4.026  1.1196  1.5066  0.4201
 5715TIP3   OH238635   3.631   2.530   4.073  0.1530 -0.5976  0.1056
 5715TIP3    H138636   3.589   2.605   4.115 -1.2502  0.3356 -2.6709
 5715TIP3    H238637   3.612   2.456   4.130  1.8310  1.1116  3.0927
 5716TIP3   OH238638   5.395   6.117   0.953  0.2547  0.1668  0.8625
 5716TIP3    H138639   5.434   6.190   1.001  0.4053 -0.5064  1.7972
 5716TIP3    H238640   5.463   6.051   0.950  0.8842  0.8340 -1.8943
 5717TIP3   OH238641   2.514   0.745   0.904  0.0891  0.5492  0.6117
 5717TIP3    H138642   2.521   0.674   0.969  1.0003 -1.1317 -1.2066
 5717TIP3    H238643   2.605   0.768   0.885 -0.0824 -0.2679 -1.3558
 5718TIP3   OH238644   3.410   5.615  14.183  0.2070  0.0841  0.5360
 5718TIP3    H138645   3.321   5.618  14.220  0.3583  1.8785  0.8815
 5718TIP3    H238646   3.467   5.614  14.260  0.5019 -0.7213  0.3129
 5719TIP3   OH238647   3.324   6.141   2.634  0.2650  0.4854 -0.0494
 5719TIP3    H138648   3.312   6.190   2.716  3.7114  2.0266 -0.2992
 5719TIP3    H238649   3.409   6.097   2.645 -0.2485 -1.1151 -1.9640
 5720TIP3   OH238650   3.955   3.380   0.711  0.5770  0.2582 -0.1081
 5720TIP3    H138651   3.880   3.414   0.662  0.5109 -0.4949 -0.5488
 5720TIP3    H238652   3.948   3.284   0.702  1.7465  0.1807 -0.4069
 5721TIP3   OH238653   6.687   0.713   0.342  0.0303  0.2077  0.2219
 5721TIP3    H138654   6.674   0.645   0.408 -0.6626 -0.5475 -0.6660
 5721TIP3    H238655   6.779   0.704   0.317 -0.1200 -0.6000 -0.0782
 5722TIP3   OH238656   6.447   2.233  10.731  0.0801 -0.0092  0.0343
 5722TIP3    H138657   6.526   2.178  10.732 -0.4479 -0.8914 -1.9353
 5722TIP3    H238658   6.392   2.194  10.664 -0.9108  2.1522 -0.4806
 5723TIP3   OH238659   5.377   3.298  12.720  0.1126 -0.5345  0.1572
 5723TIP3    H138660   5.396   3.361  12.650  0.7151 -0.3860  0.4480
 5723TIP3    H238661   5.284   3.311  12.740 -0.1995 -0.9239 -0.9520
 5724TIP3   OH238662   3.317   2.292  15.804  0.4332 -0.1651  0.3431
 5724TIP3    H138663   3.306   2.367  15.745 -1.2624  1.5056  2.6011
 5724TIP3    H238664   3.397   2.311  15.853  1.6793 -1.4068 -1.1260
 5725TIP3   OH238665   0.369   0.768   2.740  0.3866 -0.4868  0.0889
 5725TIP3    H138666   0.378   0.833   2.810 -0.0508 -1.0665  0.6967
 5725TIP3    H238667   0.287   0.723   2.759 -1.2716  1.2348 -2.4208
 5726TIP3   OH238668   0.714   3.737   3.745  0.0643 -0.3252  0.1748
 5726TIP3    H138669   0.623   3.747   3.774 -0.7378 -3.3013 -1.0093
 5726TIP3    H238670   0.763   3.721   3.826 -0.5481  0.6038  0.7500
 5727TIP3   OH238671   5.268   0.586   5.354  0.2469 -0.2167  0.0049
 5727TIP3    H138672   5.232   0.664   5.311  1.6976  0.2132 -0.4783
 5727TIP3    H238673   5.344   0.563   5.301 -0.7447 -2.6333 -0.5267
 5728TIP3   OH238674   6.234   1.490   1.352 -0.7118  0.3881 -0.0247
 5728TIP3    H138675   6.276   1.409   1.322 -0.9838 -0.4837  1.8419
 5728TIP3    H238676   6.218   1.539   1.271  0.8868 -0.7002 -1.0731
 5729TIP3   OH238677   3.018   5.526   0.492  0.5160 -0.4906 -0.2996
 5729TIP3    H138678   3.066   5.555   0.414  0.5001 -0.2561 -0.2232
 5729TIP3    H238679   3.086   5.492   0.550  0.7852  1.1928  0.4230
 5730TIP3   OH238680   4.442   3.469   3.184 -0.4563 -0.1333 -0.4609
 5730TIP3    H138681   4.374   3.411   3.151 -0.5645  0.2281 -0.8779
 5730TIP3    H238682   4.437   3.460   3.279 -0.1370 -1.1850 -0.5354
 5731TIP3   OH238683   5.940   2.503   3.028  0.7657  0.0045 -0.2036
 5731TIP3    H138684   5.960   2.489   3.121 -2.8501  1.3776  0.9412
 5731TIP3    H238685   5.846   2.487   3.021  0.8745  0.1528 -3.6551
 5732TIP3   OH238686   2.843   6.633  14.531 -0.0601 -0.1756 -0.2456
 5732TIP3    H138687   2.855   6.696  14.460  1.2685 -0.7281 -0.5381
 5732TIP3    H238688   2.832   6.549  14.487  3.3533 -0.9646  0.1187
 5733TIP3   OH238689   4.179   0.354   3.498 -0.6065 -0.3492  0.2787
 5733TIP3    H138690   4.239   0.306   3.555 -1.3367 -1.4211  0.1737
 5733TIP3    H238691   4.185   0.310   3.413 -2.4019 -1.2691  0.5779
 5734TIP3   OH238692   6.670   0.274  13.041  0.0701 -0.1282 -0.0233
 5734TIP3    H138693   6.758   0.298  13.067 -0.2260  0.1097  0.7842
 5734TIP3    H238694   6.670   0.178  13.044  0.0423 -0.1072  0.8785
 5735TIP3   OH238695   3.943   3.829   0.847 -0.0263  0.4867  0.1343
 5735TIP3    H138696   4.026   3.863   0.814  0.4915  0.6130  1.5275
 5735TIP3    H238697   3.945   3.736   0.823  0.7198  0.3888  0.5366
 5736TIP3   OH238698   4.259   3.254  15.413  0.4381  0.8444  0.0477
 5736TIP3    H138699   4.208   3.276  15.335  0.5945 -0.5091 -0.4542
 5736TIP3    H238700   4.350   3.265  15.385  0.4873  0.5856  0.1036
 5737TIP3   OH238701   3.786   6.811  15.378 -0.1048 -0.0488  0.0994
 5737TIP3    H138702   3.695   6.839  15.368 -0.5597 -1.0438  1.1960
 5737TIP3    H238703   3.786   6.721  15.345  0.0804 -0.6432  1.6361
 5738TIP3   OH238704   0.139   5.830  15.253 -0.5309 -0.7854  0.2875
 5738TIP3    H138705   0.068   5.854  15.312 -0.4245 -0.0736  0.1364
 5738TIP3    H238706   0.216   5.824  15.310 -0.5584 -0.7763  0.3252
 5739TIP3   OH238707   6.405   6.432  16.040  0.3091 -0.4200 -0.1995
 5739TIP3    H138708   6.366   6.358  16.089 -1.3063  0.3106 -0.3115
 5739TIP3    H238709   6.334   6.463  15.983  1.3747  0.3875 -1.1267
 5740TIP3   OH238710   0.028   0.846  10.993  0.5863 -0.5275  0.9097
 5740TIP3    H138711   0.061   0.927  10.952 -1.3034 -0.4651 -0.6520
 5740TIP3    H238712   0.042   0.778  10.927  1.6264 -1.4041  1.9852
 5741TIP3   OH238713   1.022   6.314   5.533  0.1097  0.1796 -0.7886
 5741TIP3    H138714   1.004   6.388   5.474  0.3127  0.0196 -1.0542
 5741TIP3    H238715   0.992   6.237   5.484 -1.0681  0.1765 -0.0985
 5742TIP3   OH238716   5.634   3.070   1.502 -0.4240 -0.1795 -0.1669
 5742TIP3    H138717   5.726   3.050   1.522 -1.3435 -2.5388  2.2668
 5742TIP3    H238718   5.617   3.152   1.549  0.0577 -0.4983  0.5881
 5743TIP3   OH238719   3.053   3.686   0.152 -0.4713 -0.4625 -0.1736
 5743TIP3    H138720   2.958   3.702   0.149 -0.5015 -0.7289 -0.7982
 5743TIP3    H238721   3.088   3.763   0.196 -1.1577 -1.2231  1.7938
 5744TIP3   OH238722   0.146   5.190  13.641  0.1430  0.1072 -0.1923
 5744TIP3    H138723   0.166   5.263  13.582 -1.0320 -0.1511 -0.9295
 5744TIP3    H238724   0.195   5.116  13.606  0.8891  0.3915  0.2290
 5745TIP3   OH238725   1.985   5.023   5.199 -0.1321 -0.0307  0.1607
 5745TIP3    H138726   1.928   4.953   5.168  0.5040 -0.5571  0.1527
 5745TIP3    H238727   2.022   5.061   5.119 -1.7334  1.4318  0.0586
 5746TIP3   OH238728   3.322   2.330  11.505  0.5144 -0.5105 -0.7565
 5746TIP3    H138729   3.228   2.311  11.508  0.3299 -0.0434 -2.3615
 5746TIP3    H238730   3.333   2.405  11.563  0.2892 -1.8349  1.0943
 5747TIP3   OH238731   3.924   3.115  12.917  0.1227 -0.1914  0.6171
 5747TIP3    H138732   3.997   3.105  12.978  1.7828  1.0874 -1.0297
 5747TIP3    H238733   3.919   3.032  12.871  0.5127 -0.2948  0.7626
 5748TIP3   OH238734   5.592   3.599   2.203  0.6410 -0.0612  0.7343
 5748TIP3    H138735   5.590   3.690   2.176 -0.5806 -0.3393 -0.2248
 5748TIP3    H238736   5.622   3.551   2.126  2.8178 -0.3524  1.7041
 5749TIP3   OH238737   1.935   0.223  14.638 -0.6284 -0.2035 -0.0850
 5749TIP3    H138738   2.011   0.218  14.580 -0.0016  0.0731  0.7002
 5749TIP3    H238739   1.951   0.301  14.691 -0.8449 -0.8514  0.9495
 5750TIP3   OH238740   6.634   2.223  13.052  0.0136  0.1260  0.3201
 5750TIP3    H138741   6.604   2.144  13.006 -0.9262  1.0655 -0.7126
 5750TIP3    H238742   6.721   2.199  13.085 -0.4841 -1.5275  0.5214
 5751TIP3   OH238743   5.576   2.231   3.477  0.2696  0.0177  0.2457
 5751TIP3    H138744   5.660   2.192   3.455 -0.7387 -2.0968 -0.1092
 5751TIP3    H238745   5.531   2.164   3.529 -1.3884  0.8875  0.0183
 5752TIP3   OH238746   0.623   6.385  12.842 -0.0263  0.0269 -0.0329
 5752TIP3    H138747   0.538   6.343  12.832 -0.5454  1.2844 -1.3331
 5752TIP3    H238748   0.622   6.421  12.931 -0.9130  0.1521 -0.0858
 5753TIP3   OH238749   5.196   5.706  13.352 -0.1769  0.2582 -0.7104
 5753TIP3    H138750   5.153   5.623  13.329 -0.3760  0.3494 -0.6698
 5753TIP3    H238751   5.270   5.680  13.408  2.2869 -0.2679 -3.9426
 5754TIP3   OH238752   4.836   1.119   5.213  0.1139 -0.0922  0.2132
 5754TIP3    H138753   4.786   1.196   5.184  1.0590  0.5796  0.3438
 5754TIP3    H238754   4.927   1.145   5.205  0.6171 -2.3137 -2.8797
 5755TIP3   OH238755   0.484   5.227  15.434 -0.0321  0.6505 -0.5985
 5755TIP3    H138756   0.489   5.141  15.477  1.0588  1.2427  0.4838
 5755TIP3    H238757   0.529   5.214  15.351 -1.0498 -0.1624 -1.0587
 5756TIP3   OH238758   1.063   6.578   2.323  0.2471  0.5576  0.1556
 5756TIP3    H138759   1.022   6.548   2.242  0.4841  1.3989 -0.2844
 5756TIP3    H238760   1.156   6.590   2.300  0.2534  1.1090  0.4592
 5757TIP3   OH238761   5.263   2.598  15.951 -0.3612 -0.3521 -0.2917
 5757TIP3    H138762   5.184   2.544  15.943 -2.5992  2.7839 -1.1568
 5757TIP3    H238763   5.258   2.634  16.040  0.2937 -0.3709 -0.2438
 5758TIP3   OH238764   1.214   2.716   3.453 -0.0117  0.2043  0.3363
 5758TIP3    H138765   1.141   2.756   3.501 -0.1314 -0.4893  0.7336
 5758TIP3    H238766   1.292   2.761   3.486  0.1169 -1.5368  2.6007
 5759TIP3   OH238767   1.133   5.796  14.515  0.3154  0.0324 -0.8030
 5759TIP3    H138768   1.170   5.709  14.502 -1.0983 -0.8076  0.5011
 5759TIP3    H238769   1.202   5.856  14.484  2.2303 -1.4626  0.3370
 5760TIP3   OH238770   2.171   1.736  11.222  0.6963 -0.3542  0.3586
 5760TIP3    H138771   2.227   1.813  11.210  3.0089 -1.3653  3.3562
 5760TIP3    H238772   2.231   1.666  11.246 -1.5983 -2.4814  0.3435
 5761TIP3   OH238773   6.363   3.184  11.093  0.7515  0.4833 -0.1749
 5761TIP3    H138774   6.304   3.197  11.019 -1.0319 -0.8094  0.9287
 5761TIP3    H238775   6.317   3.224  11.167  1.5270 -0.0797  0.6252
 5762TIP3   OH238776   2.253   1.568  14.279  0.1546  0.2871  0.8860
 5762TIP3    H138777   2.182   1.504  14.273 -0.1917  0.6002  1.5629
 5762TIP3    H238778   2.326   1.527  14.232  0.1162 -0.8652  1.7703
 5763TIP3   OH238779   3.967   6.501  11.376 -0.4093  0.2739 -0.2776
 5763TIP3    H138780   3.981   6.504  11.281 -2.0325 -0.5429 -0.5978
 5763TIP3    H238781   3.900   6.568  11.392  1.1870  1.7170  0.6146
 5764TIP3   OH238782   6.722   2.177  16.926 -0.0400  0.2850 -0.1466
 5764TIP3    H138783   6.627   2.170  16.916  0.1098 -0.7773 -0.9318
 5764TIP3    H238784   6.734   2.202  17.018 -1.0667  0.2679  0.0054
 5765TIP3   OH238785   0.482   4.275   2.202  0.0495 -0.6007 -0.2456
 5765TIP3    H138786   0.431   4.194   2.212 -2.6488  0.6943 -2.3492
 5765TIP3    H238787   0.554   4.251   2.143  0.9857 -2.0330  1.3591
 5766TIP3   OH238788   0.283   1.839   3.814 -0.0340  0.1475  0.4768
 5766TIP3    H138789   0.276   1.899   3.888 -0.0431  0.8170 -0.0564
 5766TIP3    H238790   0.215   1.773   3.830 -2.9584  2.5612 -1.0106
 5767TIP3   OH238791   3.202   6.323   2.406  0.1647 -0.3412 -0.0509
 5767TIP3    H138792   3.288   6.353   2.378 -0.1709  0.6462 -0.0799
 5767TIP3    H238793   3.219   6.248   2.462  1.1786  1.1294  1.6957
 5768TIP3   OH238794   4.667   2.206   1.082 -0.1172  0.7767  0.3973
 5768TIP3    H138795   4.624   2.120   1.079 -0.3647  0.9133 -0.0765
 5768TIP3    H238796   4.652   2.243   0.995  0.6551  0.9812  0.3466
 5769TIP3   OH238797   2.655   2.237  12.808  0.9099 -0.0660 -0.2114
 5769TIP3    H138798   2.592   2.300  12.771 -0.5529 -0.3870  1.5672
 5769TIP3    H238799   2.651   2.162  12.750  0.0171  0.1252 -0.4104
 5770TIP3   OH238800   5.124   2.051   2.813 -0.0254  0.6047 -0.3564
 5770TIP3    H138801   5.050   2.045   2.752 -0.8087  0.3151  0.6007
 5770TIP3    H238802   5.195   2.005   2.769 -1.5051 -2.5363  0.2717
 5771TIP3   OH238803   1.204   3.739  13.584  0.0729 -0.0860  0.2943
 5771TIP3    H138804   1.289   3.747  13.542  0.5465 -1.8096  0.8509
 5771TIP3    H238805   1.165   3.661  13.546 -0.0995 -0.8534  1.9673
 5772TIP3   OH238806   3.097   0.976   1.158 -0.1702 -0.6862  0.2287
 5772TIP3    H138807   3.099   0.985   1.254  0.3062  0.7286  0.1080
 5772TIP3    H238808   3.084   0.882   1.143  1.7273 -1.2299  1.6765
 5773TIP3   OH238809   6.742   5.798  12.159  0.3463 -0.0604 -0.3397
 5773TIP3    H138810   6.829   5.805  12.120 -0.4251 -0.6705 -2.2618
 5773TIP3    H238811   6.686   5.764  12.089 -0.7336 -3.2387  1.8216
 5774TIP3   OH238812   1.576   1.398  15.106 -0.4564 -0.2476  0.2026
 5774TIP3    H138813   1.532   1.473  15.144  1.3753  0.9204  0.1503
 5774TIP3    H238814   1.519   1.371  15.033 -1.6372  0.4326  0.8460
 5775TIP3   OH238815   6.337   6.596   2.462  0.1577 -0.0715 -0.3058
 5775TIP3    H138816   6.323   6.502   2.447  3.3602 -0.4977 -1.4309
 5775TIP3    H238817   6.362   6.602   2.554 -0.9563 -0.1300  0.0233
 5776TIP3   OH238818   5.778   2.316  11.483  0.1859 -0.3299  0.1143
 5776TIP3    H138819   5.784   2.239  11.427  0.8170  0.0172 -0.3006
 5776TIP3    H238820   5.693   2.307  11.528 -1.2076  0.2806 -2.2273
 5777TIP3   OH238821   3.415   2.018   0.501  0.2781 -0.0592 -0.2336
 5777TIP3    H138822   3.349   1.964   0.544  0.7664 -3.3694 -3.2306
 5777TIP3    H238823   3.493   1.961   0.497  1.0666  1.0929 -2.9504
 5778TIP3   OH238824   2.578   4.693  14.528  0.4290  0.1741  0.0071
 5778TIP3    H138825   2.550   4.749  14.455 -0.0588 -0.5469 -0.3698
 5778TIP3    H238826   2.504   4.692  14.588  0.0258 -0.8831 -0.4823
 5779TIP3   OH238827   5.497   1.873  12.744  0.0523  0.4484  0.5392
 5779TIP3    H138828   5.523   1.953  12.788  0.1070  0.0513  1.2497
 5779TIP3    H238829   5.562   1.860  12.674 -0.7185  1.7220 -0.4596
 5780TIP3   OH238830   0.483   4.347  15.984  0.0567  0.4393  0.1332
 5780TIP3    H138831   0.444   4.266  16.018  2.5012 -0.6482  0.4962
 5780TIP3    H238832   0.503   4.327  15.892 -0.1237  0.9626 -0.0235
 5781TIP3   OH238833   4.530   2.572  16.111 -0.4233 -0.6113 -0.1313
 5781TIP3    H138834   4.446   2.549  16.071 -0.5295 -0.0059 -0.2733
 5781TIP3    H238835   4.588   2.589  16.036 -0.2891 -0.6188 -0.0296
 5782TIP3   OH238836   0.936   0.611  14.177 -0.4496 -1.0292  0.2731
 5782TIP3    H138837   0.905   0.533  14.131 -0.5175 -1.8438  1.6308
 5782TIP3    H238838   1.031   0.607  14.167 -0.4173 -1.5507  0.7101
 5783TIP3   OH238839   2.145   4.095  14.648 -0.6994 -0.3661  0.5320
 5783TIP3    H138840   2.178   4.137  14.568  1.3367 -1.0736  0.9443
 5783TIP3    H238841   2.184   4.007  14.646 -1.6642 -0.8418  1.6693
 5784TIP3   OH238842   2.804   1.072  11.829 -0.2981  0.3627  0.4348
 5784TIP3    H138843   2.841   1.153  11.792 -2.1863  0.4047 -1.5306
 5784TIP3    H238844   2.829   1.004  11.767  1.1696 -0.6318  2.0179
 5785TIP3   OH238845   1.899   5.568   4.243 -0.1117  0.9531 -0.1506
 5785TIP3    H138846   1.952   5.582   4.322  1.4757 -0.4442 -0.9070
 5785TIP3    H238847   1.928   5.483   4.210 -2.4614  0.3888 -0.9432
 5786TIP3   OH238848   5.298   6.181   3.611  0.9905 -0.0581  0.2801
 5786TIP3    H138849   5.295   6.086   3.616 -1.3666 -0.1387 -1.2255
 5786TIP3    H238850   5.283   6.211   3.701 -0.3350 -1.1372  0.4498
 5787TIP3   OH238851   3.757   0.919   0.975 -0.4395  0.3049  0.1672
 5787TIP3    H138852   3.759   1.012   0.998  1.4020 -0.2175  2.5042
 5787TIP3    H238853   3.817   0.911   0.901  0.5232  0.7844  0.8818
 5788TIP3   OH238854   5.508   6.515   3.664  0.2221 -0.2307 -0.0538
 5788TIP3    H138855   5.508   6.443   3.602  0.1348  0.9420 -1.4726
 5788TIP3    H238856   5.460   6.585   3.620 -2.2747 -0.2172  2.4308
 5789TIP3   OH238857   3.792   6.151  10.816 -0.0608  0.7652 -0.2237
 5789TIP3    H138858   3.809   6.096  10.892 -0.8466  1.1930  0.2741
 5789TIP3    H238859   3.714   6.112  10.775  1.1510 -0.3230 -1.6598
 5790TIP3   OH238860   1.886   0.318  12.185  0.2235 -0.1746 -0.2642
 5790TIP3    H138861   1.840   0.304  12.102 -1.1752 -0.2419  0.4765
 5790TIP3    H238862   1.819   0.301  12.252  1.0833  0.7012  0.8597
 5791TIP3   OH238863   5.620   2.847  16.915  0.4321 -0.5762 -0.3487
 5791TIP3    H138864   5.608   2.752  16.910 -2.6535 -0.3181 -0.0229
 5791TIP3    H238865   5.532   2.881  16.931  1.6460  2.2769  0.9415
 5792TIP3   OH238866   4.456   0.428   4.063  0.3697 -1.0396  0.0614
 5792TIP3    H138867   4.424   0.368   3.995 -0.3487  0.6845 -1.1850
 5792TIP3    H238868   4.530   0.382   4.102  0.4834 -2.3133 -1.5439
 5793TIP3   OH238869   6.759   0.300   5.772  0.7050  0.2020  0.7225
 5793TIP3    H138870   6.667   0.274   5.771 -0.4371  3.4975 -1.6828
 5793TIP3    H238871   6.773   0.336   5.860  0.0662 -1.3131  1.4724
 5794TIP3   OH238872   3.379   0.239   1.368  0.4579  0.3055  0.5345
 5794TIP3    H138873   3.436   0.217   1.295 -2.3935  1.6423 -2.3576
 5794TIP3    H238874   3.406   0.328   1.392 -1.3105  1.6835 -2.0515
 5795TIP3   OH238875   5.600   3.154   3.593  0.1448 -0.5543  0.0010
 5795TIP3    H138876   5.508   3.143   3.617 -0.5536  0.1223 -2.1780
 5795TIP3    H238877   5.599   3.180   3.501  2.4823  0.6090  0.2203
 5796TIP3   OH238878   0.691   1.327   2.746  0.2794  0.4790 -0.0640
 5796TIP3    H138879   0.599   1.318   2.768  0.4185 -0.4245  0.1882
 5796TIP3    H238880   0.712   1.247   2.697  0.8022  0.9151 -0.5781
 5797TIP3   OH238881   5.014   3.396  14.016  0.3747 -0.0117  0.2349
 5797TIP3    H138882   5.106   3.422  14.029  0.5815 -0.5040 -0.1735
 5797TIP3    H238883   5.017   3.300  14.018 -0.5360 -0.0496  2.8849
 5798TIP3   OH238884   2.662   6.165   4.092  0.9241  0.2600  0.0169
 5798TIP3    H138885   2.629   6.169   4.002 -1.7011 -1.2194  0.8269
 5798TIP3    H238886   2.660   6.256   4.122 -0.9703  0.4459 -0.5359
 5799TIP3   OH238887   0.815   5.473  15.257  0.1046  0.0894  0.4937
 5799TIP3    H138888   0.813   5.404  15.323 -1.8545 -0.9605 -0.5966
 5799TIP3    H238889   0.725   5.504  15.252  0.2173  0.1940 -1.6217
 5800TIP3   OH238890   3.456   3.854  13.693 -0.0917  0.4006  0.4247
 5800TIP3    H138891   3.497   3.930  13.734 -2.2550  1.9144 -0.0442
 5800TIP3    H238892   3.433   3.796  13.766  0.8628  0.5620  0.8578
 5801TIP3   OH238893   5.343   1.866   6.305  0.8968  0.3288 -0.0832
 5801TIP3    H138894   5.347   1.814   6.385 -1.4542 -0.5004 -0.4171
 5801TIP3    H238895   5.381   1.810   6.237  0.2711 -0.1454 -0.0528
 5802TIP3   OH238896   5.152   6.267  15.176 -0.4672  0.1177 -0.1726
 5802TIP3    H138897   5.086   6.325  15.215  0.9286  0.8775  1.1279
 5802TIP3    H238898   5.119   6.179  15.193 -1.3672  0.4882  0.0664
 5803TIP3   OH238899   4.051   6.738   2.877 -0.0520  0.2632 -0.3514
 5803TIP3    H138900   4.073   6.773   2.790 -1.5903 -1.2892 -1.4317
 5803TIP3    H238901   4.101   6.657   2.884  1.5080  1.2677  1.0657
 5804TIP3   OH238902   2.216   3.651  15.039 -0.3732 -0.1623  0.1885
 5804TIP3    H138903   2.218   3.556  15.044 -0.1739 -0.1143  1.4819
 5804TIP3    H238904   2.282   3.674  14.974 -0.3899 -0.8985 -0.0955
 5805TIP3   OH238905   0.649   0.222  14.293 -0.6988  0.3499  0.1247
 5805TIP3    H138906   0.596   0.294  14.327  1.0555  1.8282 -0.0611
 5805TIP3    H238907   0.739   0.256  14.295  0.0640 -1.4353 -1.0424
 5806TIP3   OH238908   3.461   6.616   6.351  0.2635 -0.0798  0.8365
 5806TIP3    H138909   3.547   6.651   6.329  0.7402 -0.6849  1.6724
 5806TIP3    H238910   3.401   6.660   6.291  0.7812  2.3426  1.9956
 5807TIP3   OH238911   6.363   0.841  12.725  0.4626 -0.3952 -0.1207
 5807TIP3    H138912   6.375   0.748  12.707 -0.6266 -0.4746 -0.4978
 5807TIP3    H238913   6.270   0.857  12.707  0.5705  0.6965  0.2391
 5808TIP3   OH238914   1.888   1.789  12.757 -0.4081 -0.4658 -0.3312
 5808TIP3    H138915   1.859   1.831  12.838 -0.9382 -1.4835  0.0269
 5808TIP3    H238916   1.810   1.790  12.701  0.1128  0.7633 -1.0802
 5809TIP3   OH238917   4.410   4.812   0.695  0.1412  0.0491 -0.2410
 5809TIP3    H138918   4.345   4.752   0.733 -0.3760  0.3000 -0.7134
 5809TIP3    H238919   4.426   4.778   0.607  2.9690 -1.8164  0.8303
 5810TIP3   OH238920   3.778   2.286  11.250  0.1267 -0.3423  0.3957
 5810TIP3    H138921   3.817   2.204  11.219  1.4119  0.5944 -0.5667
 5810TIP3    H238922   3.730   2.320  11.175  0.0827  0.0753  0.6119
 5811TIP3   OH238923   6.718   6.416   4.720 -0.0494 -0.7479  1.0542
 5811TIP3    H138924   6.699   6.410   4.814 -0.7912 -1.4611  0.8666
 5811TIP3    H238925   6.774   6.340   4.702 -1.2481 -1.5502  0.6133
 5812TIP3   OH238926   3.819   6.739   4.050  0.0753 -0.3383  0.2674
 5812TIP3    H138927   3.781   6.679   4.114 -2.3964  0.1672 -0.6373
 5812TIP3    H238928   3.754   6.808   4.040  1.2792  0.6324 -1.3475
 5813TIP3   OH238929   1.146   6.216   3.415  0.4326 -0.2609 -0.4197
 5813TIP3    H138930   1.099   6.263   3.484  0.2298 -2.6214  1.1862
 5813TIP3    H238931   1.213   6.278   3.386 -0.2384  1.2524  1.0649
 5814TIP3   OH238932   1.576   4.026  11.599 -0.5084 -0.2551  0.7200
 5814TIP3    H138933   1.659   3.982  11.577  0.2149  1.8606 -1.1225
 5814TIP3    H238934   1.511   3.955  11.598  0.7014 -1.4570 -1.4796
 5815TIP3   OH238935   2.889   5.393  16.500 -0.2742  0.1743  0.0405
 5815TIP3    H138936   2.811   5.434  16.537 -1.5660 -1.1163 -1.1022
 5815TIP3    H238937   2.901   5.434  16.415 -0.1102 -0.1176 -0.0801
 5816TIP3   OH238938   6.342   3.605   3.112 -0.0461  0.5506 -0.0930
 5816TIP3    H138939   6.286   3.617   3.035  2.3222  0.3295 -1.9949
 5816TIP3    H238940   6.335   3.512   3.133 -0.6392  0.5943 -0.0825
 5817TIP3   OH238941   6.337   6.333   0.568 -0.2802  0.0482  1.0714
 5817TIP3    H138942   6.423   6.323   0.528  0.3538 -0.1085  2.4256
 5817TIP3    H238943   6.282   6.368   0.498  0.5638 -1.0292 -0.1698
 5818TIP3   OH238944   6.655   6.336  12.543 -0.4058 -0.2257  0.1360
 5818TIP3    H138945   6.715   6.270  12.578  1.0237  1.4444  0.9888
 5818TIP3    H238946   6.708   6.385  12.479 -1.2675  0.4170 -0.1026
 5819TIP3   OH238947   2.061   4.639   6.153  0.3600  0.2719  0.3996
 5819TIP3    H138948   2.024   4.553   6.134 -0.1521  0.7444 -0.8042
 5819TIP3    H238949   2.026   4.662   6.239 -1.4226  0.3104 -0.3076
 5820TIP3   OH238950   6.527   2.323  15.369  0.1314  0.0741  0.0351
 5820TIP3    H138951   6.598   2.260  15.360 -1.0144 -1.0088 -2.3281
 5820TIP3    H238952   6.543   2.389  15.302 -1.0654 -0.2141 -0.5723
 5821TIP3   OH238953   2.054   0.424   4.054  0.1318  0.1544 -0.1969
 5821TIP3    H138954   2.080   0.332   4.049  0.8484  0.3273  0.2053
 5821TIP3    H238955   2.039   0.439   4.148 -0.5256  0.3043 -0.3229
 5822TIP3   OH238956   4.255   6.250   5.377 -0.3965 -0.1513 -0.5078
 5822TIP3    H138957   4.338   6.258   5.329  0.4477  0.9680  1.0244
 5822TIP3    H238958   4.280   6.213   5.462 -0.8282  3.3075  1.3143
 5823TIP3   OH238959   2.382   2.790   2.448 -0.4706  0.7491 -0.1114
 5823TIP3    H138960   2.478   2.793   2.455 -0.3020 -1.1603 -1.1076
 5823TIP3    H238961   2.352   2.783   2.539  0.4848 -0.9392  0.1196
 5824TIP3   OH238962   4.800   0.639   5.124 -0.2990  0.3412  0.3715
 5824TIP3    H138963   4.713   0.636   5.164 -0.6157  0.5346 -0.2926
 5824TIP3    H238964   4.856   0.595   5.187 -0.7816  0.6682  1.0434
 5825TIP3   OH238965   4.413   2.972  11.217 -0.4894 -0.8290  0.3022
 5825TIP3    H138966   4.401   3.016  11.301  0.0351 -1.0882  0.5153
 5825TIP3    H238967   4.458   2.891  11.238  1.7882  0.1519 -0.4668
 5826TIP3   OH238968   4.427   6.595   2.755  0.0616  0.4553  0.0106
 5826TIP3    H138969   4.376   6.570   2.831  0.1583 -1.8057 -0.6046
 5826TIP3    H238970   4.382   6.556   2.680  1.6164  0.0141 -0.7519
 5827TIP3   OH238971   6.627   6.349  14.255 -0.0438  0.4204  0.1516
 5827TIP3    H138972   6.545   6.310  14.285  1.0761 -1.4578  0.9121
 5827TIP3    H238973   6.655   6.294  14.182  0.6732  0.8892  0.0571
 5828TIP3   OH238974   4.854   6.682   4.126 -0.2887  0.0144 -0.4929
 5828TIP3    H138975   4.788   6.648   4.066 -0.6149  0.4204 -0.3722
 5828TIP3    H238976   4.924   6.714   4.068 -1.3454  1.9865 -0.7857
 5829TIP3   OH238977   0.828   5.736  14.214 -0.2335 -0.5653  0.9288
 5829TIP3    H138978   0.891   5.800  14.249  1.4190 -0.6736 -1.6124
 5829TIP3    H238979   0.756   5.790  14.180 -0.0720 -0.2276  1.1140
 5830TIP3   OH238980   0.950   4.752  11.854 -0.3921 -0.2195 -0.3847
 5830TIP3    H138981   0.922   4.677  11.907  1.8747 -0.9269 -0.0805
 5830TIP3    H238982   0.917   4.732  11.766 -1.0033 -0.8841 -0.0206
 5831TIP3   OH238983   0.861   5.738   3.429  0.0883 -0.2091  0.8061
 5831TIP3    H138984   0.926   5.809   3.424  0.3858 -0.4992  0.5635
 5831TIP3    H238985   0.838   5.721   3.338 -0.6633  0.1940  0.9112
 5832TIP3   OH238986   6.786   4.593   2.171 -0.3211  0.0010 -0.4429
 5832TIP3    H138987   6.706   4.541   2.170 -1.0405  1.0601  0.2421
 5832TIP3    H238988   6.832   4.567   2.091 -0.0701 -2.5300  0.4410
 5833TIP3   OH238989   0.161   3.074  15.399  0.0650 -0.2360 -0.8049
 5833TIP3    H138990   0.233   3.018  15.371 -0.7702 -1.0786 -1.3367
 5833TIP3    H238991   0.082   3.025  15.375 -0.6882  0.9606 -0.8555
 5834TIP3   OH238992   5.165   1.174   0.826 -0.1604  0.0032 -0.2711
 5834TIP3    H138993   5.078   1.195   0.792  0.5490 -0.5640 -2.5800
 5834TIP3    H238994   5.221   1.169   0.749  1.6954 -0.8197  1.0466
 5835TIP3   OH238995   1.082   0.222   0.305  0.5900  0.2707 -0.5389
 5835TIP3    H138996   1.087   0.189   0.395 -3.2099  0.0201 -0.2514
 5835TIP3    H238997   1.118   0.311   0.310  1.9151 -0.3005  0.8425
 5836TIP3   OH238998   5.971   3.461  12.598  0.4520  0.4700 -0.0875
 5836TIP3    H138999   5.948   3.511  12.676 -0.7493 -0.6627  0.3353
 5836TIP3    H239000   6.044   3.406  12.626 -0.3220 -0.3243  0.4350
 5837TIP3   OH239001   6.624   2.018  13.340 -0.6813 -0.2342 -0.6827
 5837TIP3    H139002   6.667   1.946  13.386  0.8432 -0.9739 -3.0849
 5837TIP3    H239003   6.696   2.071  13.306 -1.7249  0.4137 -1.9678
 5838TIP3   OH239004   0.309   2.683  15.542 -0.2498  0.5269 -0.6562
 5838TIP3    H139005   0.237   2.712  15.487 -1.1196  0.1370  0.2292
 5838TIP3    H239006   0.373   2.646  15.481 -0.0828  2.2827 -1.5913
 5839TIP3   OH239007   3.391   1.249   0.424 -0.0376 -0.0046 -0.2433
 5839TIP3    H139008   3.431   1.248   0.337  0.2184  0.7864 -0.1477
 5839TIP3    H239009   3.465   1.249   0.484 -0.1928 -2.6124  0.0676
 5840TIP3   OH239010   5.893   2.419  15.844 -0.0001 -0.0803  0.7188
 5840TIP3    H139011   5.948   2.350  15.881 -0.3244 -0.4604  0.4906
 5840TIP3    H239012   5.830   2.374  15.788  0.3248  0.4642 -0.1171
 5841TIP3   OH239013   6.113   4.644  15.021  0.1665  0.1317 -0.0811
 5841TIP3    H139014   6.047   4.610  15.082 -0.2885  2.0841  0.6003
 5841TIP3    H239015   6.193   4.648  15.073  0.6620 -1.4269 -0.6620
 5842TIP3   OH239016   1.170   4.844   3.416 -0.3648  0.4255  0.0756
 5842TIP3    H139017   1.105   4.774   3.412 -1.2265  0.7310  4.1003
 5842TIP3    H239018   1.123   4.923   3.389 -0.7704  0.1683  0.0349
 5843TIP3   OH239019   6.605   5.204   0.310 -1.1801 -0.0408 -0.3378
 5843TIP3    H139020   6.614   5.267   0.381 -0.8267  0.7781 -1.0914
 5843TIP3    H239021   6.546   5.137   0.344 -0.6559  0.1031  0.8806
 5844TIP3   OH239022   4.035   5.165   4.076 -0.1872  0.2931 -0.5701
 5844TIP3    H139023   4.067   5.224   4.009  0.4313  3.9958  2.6348
 5844TIP3    H239024   3.942   5.188   4.087 -0.5310 -0.9268 -0.7215
 5845TIP3   OH239025   0.236   0.100   4.460 -0.0381 -0.2584  0.1521
 5845TIP3    H139026   0.321   0.067   4.432 -0.3805 -0.4774 -0.6582
 5845TIP3    H239027   0.178   0.083   4.386 -0.8249 -0.2538  0.7573
 5846TIP3   OH239028   2.960   4.808   0.825  0.2286 -0.0138  0.0420
 5846TIP3    H139029   2.925   4.728   0.787  0.0690  0.2960 -0.4690
 5846TIP3    H239030   2.972   4.867   0.750 -0.3481  0.6996  0.5053
 5847TIP3   OH239031   3.847   4.471  16.880 -0.1275  0.3431 -0.3084
 5847TIP3    H139032   3.898   4.402  16.922 -0.1900  0.6430  0.2860
 5847TIP3    H239033   3.910   4.518  16.826 -0.3802 -1.0747 -1.9184
 5848TIP3   OH239034   3.721   1.049  16.648 -1.0913 -0.3186  0.4357
 5848TIP3    H139035   3.749   1.025  16.559 -0.8083  1.0265  0.1403
 5848TIP3    H239036   3.666   1.126  16.635  1.4898  1.8834  1.6154
 5849TIP3   OH239037   3.146   4.646  11.573 -0.1451  0.8789  0.1726
 5849TIP3    H139038   3.085   4.710  11.610 -2.1445 -1.8467  2.0116
 5849TIP3    H239039   3.163   4.585  11.645  0.0017 -1.7980 -1.9749
 5850TIP3   OH239040   4.243   5.555   3.945 -0.0707 -0.0576  0.0626
 5850TIP3    H139041   4.272   5.475   3.989 -1.2477 -0.1173  0.7634
 5850TIP3    H239042   4.233   5.619   4.016 -2.2553 -0.2264 -0.0201
 5851TIP3   OH239043   1.021   5.903   4.844  0.0003 -0.4071 -0.1709
 5851TIP3    H139044   1.048   5.812   4.857 -0.3771 -0.2585  2.0590
 5851TIP3    H239045   1.067   5.952   4.913 -1.4988  0.7429  0.0605
 5852TIP3   OH239046   4.971   4.324  16.344  0.4100 -0.0862  0.8007
 5852TIP3    H139047   4.944   4.397  16.288  1.9090 -0.3076 -0.2812
 5852TIP3    H239048   4.915   4.251  16.317  0.7031 -0.0224 -0.0105
 5853TIP3   OH239049   6.820   2.562  10.880  0.2385 -0.4491  0.4455
 5853TIP3    H139050   6.764   2.538  10.954  0.9966 -1.6042  0.6737
 5853TIP3    H239051   6.786   2.512  10.806 -1.6943  2.0945 -0.5315
 5854TIP3   OH239052   2.656   4.052  17.017 -0.5515  0.4529 -0.4332
 5854TIP3    H139053   2.637   4.140  17.049  1.1773  0.5891  0.3488
 5854TIP3    H239054   2.751   4.043  17.028 -0.6771 -1.4612 -0.6167
 5855TIP3   OH239055   5.480   3.886   3.211  0.7500 -0.5076 -0.0997
 5855TIP3    H139056   5.548   3.945   3.242 -0.2607  0.9443 -0.5542
 5855TIP3    H239057   5.497   3.804   3.258  2.3928  0.0056  0.2832
 5856TIP3   OH239058   1.478   0.515  12.557 -0.0971 -0.0493  0.0365
 5856TIP3    H139059   1.556   0.558  12.520  1.0295 -0.6003  1.6433
 5856TIP3    H239060   1.448   0.456  12.487  2.8744 -2.2234  0.3815
 5857TIP3   OH239061   2.210   2.470  12.726  0.8668  0.5391  0.3053
 5857TIP3    H139062   2.292   2.459  12.774  0.1722  0.8093  1.6152
 5857TIP3    H239063   2.142   2.451  12.791 -0.1084 -1.3376 -1.1754
 5858TIP3   OH239064   2.989   5.934   1.286  0.6316  0.3184 -0.1750
 5858TIP3    H139065   2.963   5.848   1.253 -0.8834  1.4739 -2.2063
 5858TIP3    H239066   3.081   5.942   1.263  0.6037 -0.4559 -0.5982
 5859TIP3   OH239067   3.406   5.196   2.751  0.3356 -0.2764 -0.1666
 5859TIP3    H139068   3.319   5.188   2.712  0.6318 -0.4686 -0.7964
 5859TIP3    H239069   3.426   5.108   2.783  0.5198 -0.3580 -0.5023
 5860TIP3   OH239070   6.355   3.592  15.887 -0.0617  0.3405 -0.7464
 5860TIP3    H139071   6.421   3.598  15.818 -1.0574  0.4013 -1.7110
 5860TIP3    H239072   6.324   3.682  15.898 -0.1602  0.2729 -0.4645
 5861TIP3   OH239073   4.560   1.390  16.085 -0.7070  0.3221  0.3813
 5861TIP3    H139074   4.622   1.397  16.157  0.1891 -0.7668 -0.2488
 5861TIP3    H239075   4.590   1.315  16.034 -2.5490 -0.2401  0.0413
 5862TIP3   OH239076   5.199   4.496  12.310 -0.1407 -0.6647 -0.6823
 5862TIP3    H139077   5.228   4.514  12.399 -0.6089  0.3207 -0.7168
 5862TIP3    H239078   5.106   4.473  12.319 -0.2331 -0.3942 -0.9290
 5863TIP3   OH239079   1.331   2.106  16.947 -0.0982  0.2540 -0.2390
 5863TIP3    H139080   1.335   2.027  16.893 -0.7772 -1.0632  1.5461
 5863TIP3    H239081   1.404   2.097  17.009  0.7800  1.8288 -0.9944
 5864TIP3   OH239082   6.743   5.669  13.146  0.0317  0.0431 -0.6438
 5864TIP3    H139083   6.668   5.654  13.202  0.8411 -1.1994  0.1443
 5864TIP3    H239084   6.759   5.585  13.103  1.4903  0.0284 -0.1280
 5865TIP3   OH239085   2.884   5.488   2.692 -0.1111 -0.4859  0.1461
 5865TIP3    H139086   2.945   5.516   2.623  2.0454 -1.0747  1.7067
 5865TIP3    H239087   2.838   5.413   2.654  2.1789 -1.8334 -0.2029
 5866TIP3   OH239088   3.567   4.855   0.710  0.3114  0.4786 -0.0614
 5866TIP3    H139089   3.592   4.807   0.631 -2.0424 -0.2850 -0.4217
 5866TIP3    H239090   3.627   4.930   0.713  1.8173 -0.6024 -1.3801
 5867TIP3   OH239091   5.791   3.621  11.827  0.1372  0.6755  0.2369
 5867TIP3    H139092   5.736   3.676  11.771  0.6988 -0.2836 -1.3454
 5867TIP3    H239093   5.834   3.561  11.766 -0.1534 -1.2669  1.8338
 5868TIP3   OH239094   0.107   5.607  16.168  0.4815  0.3754 -0.0960
 5868TIP3    H139095   0.022   5.639  16.138 -0.2330  0.1522  1.6263
 5868TIP3    H239096   0.170   5.668  16.129 -0.6016  1.6980  0.1557
 5869TIP3   OH239097   6.150   5.121  15.082 -0.1476  0.0661 -0.1277
 5869TIP3    H139098   6.148   5.027  15.062 -0.7628  0.0252  0.0941
 5869TIP3    H239099   6.183   5.125  15.172  0.2782  0.0938 -0.2821
 5870TIP3   OH239100   1.908   6.593  11.851 -0.2829 -0.0538  0.3689
 5870TIP3    H139101   1.973   6.621  11.916  0.5735 -1.4047  0.1211
 5870TIP3    H239102   1.847   6.667  11.845 -0.0340  0.3445  2.2472
 5871TIP3   OH239103   0.449   4.589  15.518 -0.2341  0.1142  0.7849
 5871TIP3    H139104   0.493   4.610  15.600 -0.3101  2.4068  0.3136
 5871TIP3    H239105   0.520   4.571  15.456  0.0450  1.8741  0.5226
 5872TIP3   OH239106   3.383   5.404  13.834 -0.5333  0.4658 -0.1696
 5872TIP3    H139107   3.378   5.462  13.758  0.3689  0.8195  0.0272
 5872TIP3    H239108   3.468   5.422  13.873 -0.2753 -0.9097 -0.0283
 5873TIP3   OH239109   3.107   1.547   2.814  0.3683  0.0361  0.1721
 5873TIP3    H139110   3.170   1.481   2.842  0.9402  1.0966  1.5219
 5873TIP3    H239111   3.115   1.617   2.879 -0.5011  1.2554 -0.9744
 5874TIP3   OH239112   1.674   3.408   2.380  0.0469 -0.0200  0.1975
 5874TIP3    H139113   1.682   3.398   2.475  0.7791 -2.4305 -0.0702
 5874TIP3    H239114   1.585   3.378   2.359  1.1153 -3.2932 -0.2153
 5875TIP3   OH239115   6.209   5.339  15.359  0.0615  0.0196  0.2248
 5875TIP3    H139116   6.207   5.427  15.398 -1.4005 -0.5702  1.6301
 5875TIP3    H239117   6.278   5.293  15.407 -0.0652  0.0273  0.4172
 5876TIP3   OH239118   3.935   3.510   1.644  0.1657  0.1901  0.1091
 5876TIP3    H139119   3.876   3.558   1.585  0.8806 -1.0505 -1.7296
 5876TIP3    H239120   4.009   3.569   1.656 -0.3489  0.7825  0.4440
 5877TIP3   OH239121   2.926   6.147  12.174  0.3573  0.5126 -0.2406
 5877TIP3    H139122   2.938   6.116  12.084 -1.2564 -0.5003 -0.1433
 5877TIP3    H239123   2.865   6.220  12.166 -1.0797 -0.6123  0.1610
 5878TIP3   OH239124   0.828   1.940   1.455  0.3271 -0.0706 -0.3307
 5878TIP3    H139125   0.827   1.889   1.536 -1.9053 -1.3521 -1.0769
 5878TIP3    H239126   0.905   1.909   1.408  0.4176 -0.9124  0.3511
 5879TIP3   OH239127   2.962   0.833  13.354  0.3433  0.3689  0.2297
 5879TIP3    H139128   3.046   0.804  13.390  0.2513  0.7380  0.7529
 5879TIP3    H239129   2.900   0.765  13.378  0.0686  1.1081  1.7008
 5880TIP3   OH239130   3.837   3.064   4.471  0.4457 -0.1936 -0.2595
 5880TIP3    H139131   3.931   3.060   4.487  0.0229 -1.3647  2.4050
 5880TIP3    H239132   3.813   2.975   4.446  0.0590  0.1887 -1.3301
 5881TIP3   OH239133   5.686   5.697  11.562 -0.3400  0.1139  0.3218
 5881TIP3    H139134   5.751   5.713  11.630  0.6942 -0.9180 -0.3805
 5881TIP3    H239135   5.712   5.754  11.490  0.1991 -0.7498 -0.1943
 5882TIP3   OH239136   2.640   3.296   3.561 -0.0613  0.1815 -0.2422
 5882TIP3    H139137   2.702   3.283   3.633  1.8776 -0.3763 -1.9361
 5882TIP3    H239138   2.588   3.216   3.559 -0.6292  0.4998  0.9682
 5883TIP3   OH239139   3.965   4.747  16.502 -0.4375  0.4364 -0.2262
 5883TIP3    H139140   3.870   4.759  16.499 -0.1846  2.7302 -0.1193
 5883TIP3    H239141   3.984   4.689  16.428 -1.8303  0.5280 -0.6739
 5884TIP3   OH239142   0.920   1.648   5.550  0.1002  0.1135  0.2649
 5884TIP3    H139143   0.911   1.741   5.570 -1.1959 -0.3394  2.0616
 5884TIP3    H239144   0.831   1.617   5.538  0.4889 -0.9631  0.0432
 5885TIP3   OH239145   0.189   4.925  15.653  0.0413  0.5845  0.1273
 5885TIP3    H139146   0.185   4.989  15.725 -2.1434 -0.3438  0.9277
 5885TIP3    H239147   0.183   4.840  15.696 -1.4384  0.0066 -1.1078
 5886TIP3   OH239148   6.561   0.634   2.519 -0.3239 -0.4995  0.2260
 5886TIP3    H139149   6.547   0.542   2.499 -2.5732 -0.3561  0.8766
 5886TIP3    H239150   6.508   0.682   2.455  2.0419  0.4900 -1.1463
 5887TIP3   OH239151   6.410   0.377  15.854  0.5994  0.1394 -0.5012
 5887TIP3    H139152   6.412   0.452  15.794  0.8867 -0.6889 -1.5471
 5887TIP3    H239153   6.502   0.357  15.870  0.6203  1.8836  2.2459
 5888TIP3   OH239154   6.130   2.740  15.732  0.6953 -0.1105 -0.1767
 5888TIP3    H139155   6.113   2.733  15.638 -1.1505  1.7185 -0.0458
 5888TIP3    H239156   6.043   2.740  15.772  1.4284 -0.4060  1.5090
 5889TIP3   OH239157   6.106   3.892   4.981 -0.1950  0.2884  0.5988
 5889TIP3    H139158   6.105   3.899   5.077 -1.3907 -0.0091  0.6144
 5889TIP3    H239159   6.189   3.848   4.962 -0.1322 -0.0149  1.5282
 5890TIP3   OH239160   5.720   6.297  13.640  0.3346  0.3015 -0.2132
 5890TIP3    H139161   5.695   6.310  13.549 -0.8255  0.3667  0.0997
 5890TIP3    H239162   5.672   6.364  13.689  1.2186  0.4982  0.4151
 5891TIP3   OH239163   6.740   1.352  11.543  0.4608  0.5530 -0.1173
 5891TIP3    H139164   6.716   1.261  11.560  0.4762  0.6406  0.4161
 5891TIP3    H239165   6.657   1.400  11.547  0.5857  0.7144  0.7240
 5892TIP3   OH239166   4.784   3.374   4.539  0.4119  0.0157  0.4907
 5892TIP3    H139167   4.819   3.287   4.559  1.0455 -0.3708 -2.0170
 5892TIP3    H239168   4.857   3.422   4.501 -0.4383  0.9889  0.0124
 5893TIP3   OH239169   2.570   0.422  11.944  0.4106 -0.7897 -0.3457
 5893TIP3    H139170   2.519   0.472  11.880  1.8313 -1.0015 -1.6878
 5893TIP3    H239171   2.540   0.455  12.029 -0.6051  0.4128 -1.1306
 5894TIP3   OH239172   3.582   5.046   4.671  0.3385 -0.3233  0.6567
 5894TIP3    H139173   3.510   5.052   4.608  0.2968 -1.6106  0.5489
 5894TIP3    H239174   3.561   5.113   4.737  0.4804  1.1597 -0.7466
 5895TIP3   OH239175   5.252   1.446  13.863 -0.1826  0.0085  0.2507
 5895TIP3    H139176   5.210   1.386  13.924  1.2297 -1.1847  0.1005
 5895TIP3    H239177   5.235   1.533  13.900 -1.1313 -0.5426  1.1886
 5896TIP3   OH239178   6.802   3.431   4.500 -0.8242  0.3548 -0.1953
 5896TIP3    H139179   6.739   3.408   4.433  0.2208 -1.4009 -0.6282
 5896TIP3    H239180   6.778   3.378   4.576  0.2905 -0.5731 -0.4678
 5897TIP3   OH239181   1.753   3.535  16.754 -0.7694  0.7225  0.3295
 5897TIP3    H139182   1.753   3.478  16.831  0.8522 -0.3636 -0.3949
 5897TIP3    H239183   1.823   3.598  16.770  0.4283 -0.2803 -0.7261
 5898TIP3   OH239184   4.560   3.313  13.254 -0.5058  0.3636 -0.1415
 5898TIP3    H139185   4.625   3.373  13.292 -1.9807  2.0261 -0.0853
 5898TIP3    H239186   4.548   3.245  13.321 -1.1876  1.8330  1.3083
 5899TIP3   OH239187   0.964   3.531   3.257  0.3486  0.3360 -0.1916
 5899TIP3    H139188   0.901   3.498   3.193  2.1391 -0.7114 -1.5141
 5899TIP3    H239189   1.022   3.588   3.206  0.5562  1.2127  0.9689
 5900TIP3   OH239190   1.394   1.650   5.123  0.1799 -0.1717  0.7539
 5900TIP3    H139191   1.359   1.580   5.178  0.4504 -1.0778 -0.1979
 5900TIP3    H239192   1.324   1.715   5.119 -1.1234 -1.5525 -0.4017
 5901TIP3   OH239193   3.311   5.351  13.092 -0.1997  0.1169 -0.1167
 5901TIP3    H139194   3.263   5.327  13.013 -0.4739  0.3621 -0.0251
 5901TIP3    H239195   3.268   5.301  13.162  1.4053 -1.8283 -0.4114
 5902TIP3   OH239196   6.661   2.522   5.493 -0.0122  0.2603 -0.2262
 5902TIP3    H139197   6.754   2.540   5.484 -0.3647  1.7688 -1.3617
 5902TIP3    H239198   6.629   2.514   5.403 -1.2640  1.5601  0.0686
 5903TIP3   OH239199   5.971   4.768  11.161  0.1754  0.0481  0.2206
 5903TIP3    H139200   5.926   4.684  11.147  1.6990 -0.5414 -1.5670
 5903TIP3    H239201   6.055   4.744  11.199  0.2682  0.8667  0.5464
 5904TIP3   OH239202   3.946   5.510   5.301 -0.0339 -0.2310 -0.2430
 5904TIP3    H139203   3.942   5.421   5.336  0.3665 -0.3122 -0.4074
 5904TIP3    H239204   3.854   5.532   5.281 -0.0732 -0.8153 -0.7313
 5905TIP3   OH239205   1.978   0.659   5.744 -0.1791  0.2616 -0.3878
 5905TIP3    H139206   1.997   0.607   5.822 -0.7710  0.5437 -0.0487
 5905TIP3    H239207   2.045   0.633   5.681  0.6191  0.3962  0.3798
 5906TIP3   OH239208   4.873   1.261   3.059 -0.1741  0.5799 -0.4378
 5906TIP3    H139209   4.822   1.190   3.020  0.0077 -0.0833  0.4908
 5906TIP3    H239210   4.838   1.341   3.020 -1.1995  0.0604 -0.6032
 5907TIP3   OH239211   1.979   3.569   0.278 -0.2312  0.5770 -0.3217
 5907TIP3    H139212   2.064   3.613   0.273 -0.7312  1.8036  1.2378
 5907TIP3    H239213   1.958   3.568   0.371 -1.4194 -0.7484 -0.5743
 5908TIP3   OH239214   2.275   0.324  15.197  0.6214  0.1824 -0.4112
 5908TIP3    H139215   2.323   0.383  15.139  0.1341  0.0732 -0.9312
 5908TIP3    H239216   2.249   0.251  15.141 -1.3218  0.8739 -0.4764
 5909TIP3   OH239217   6.291   2.969   2.506  0.1234  0.3031  0.3223
 5909TIP3    H139218   6.241   3.003   2.432  1.6996 -0.3720 -1.1192
 5909TIP3    H239219   6.371   3.022   2.507  0.3052  0.0319  1.2997
 5910TIP3   OH239220   4.773   3.976   0.065  0.1294 -0.5695  0.2349
 5910TIP3    H139221   4.860   3.981   0.026 -0.4198  1.2069 -0.9253
 5910TIP3    H239222   4.715   4.015  -0.001 -0.9635  1.9685  2.4699
 5911TIP3   OH239223   3.271   4.578   1.418 -0.9131  0.0733  0.8868
 5911TIP3    H139224   3.301   4.487   1.413  0.4439  0.4701  1.1928
 5911TIP3    H239225   3.300   4.617   1.336  1.0557  0.8989  1.8967
 5912TIP3   OH239226   3.804   6.279   1.082  0.1594 -0.0275  0.1152
 5912TIP3    H139227   3.798   6.207   1.145 -1.8069 -0.0105  0.0267
 5912TIP3    H239228   3.781   6.357   1.132  2.0326  0.5550  0.1481
 5913TIP3   OH239229   3.945   3.796   3.388 -0.4415 -0.0456 -0.4434
 5913TIP3    H139230   4.002   3.796   3.464 -2.3998  0.5935  1.0931
 5913TIP3    H239231   3.944   3.887   3.359 -0.9162  0.0058 -0.2706
 5914TIP3   OH239232   5.862   1.038  15.398 -0.6613 -0.2997  0.2263
 5914TIP3    H139233   5.926   1.108  15.393  1.5737 -2.3083 -2.8540
 5914TIP3    H239234   5.777   1.083  15.405  0.7682  2.5631  0.5975
 5915TIP3   OH239235   3.601   3.451   1.933 -0.2948 -0.3759  0.1566
 5915TIP3    H139236   3.673   3.490   1.984  1.9326 -0.9562 -2.3207
 5915TIP3    H239237   3.613   3.357   1.943 -1.0889 -0.4863  0.1489
 5916TIP3   OH239238   5.578   4.730   0.224  0.7638 -0.4405  0.4571
 5916TIP3    H139239   5.659   4.771   0.192 -1.0282  2.3572 -0.8562
 5916TIP3    H239240   5.564   4.769   0.310 -0.5472  1.2583 -0.4732
 5917TIP3   OH239241   2.891   3.279  15.141 -0.4023 -0.8786 -0.0639
 5917TIP3    H139242   2.845   3.199  15.168  0.0416 -0.9148  0.6169
 5917TIP3    H239243   2.978   3.271  15.181 -0.3967 -0.0003  0.1123
 5918TIP3   OH239244   0.836   1.745  11.314  0.2577  0.4036  0.2306
 5918TIP3    H139245   0.905   1.698  11.361  0.8530 -0.6184 -1.5677
 5918TIP3    H239246   0.876   1.828  11.288 -0.2949  1.2828  2.0517
 5919TIP3   OH239247   2.466   4.140   4.778  0.5461  0.3788  0.3512
 5919TIP3    H139248   2.459   4.105   4.689 -1.3846  2.1747 -0.2874
 5919TIP3    H239249   2.556   4.173   4.783 -0.1092  3.0927 -2.1924
 5920TIP3   OH239250   2.412   1.450  15.320  0.0619 -0.4372  0.1706
 5920TIP3    H139251   2.459   1.369  15.301  1.8347  0.5334  0.1379
 5920TIP3    H239252   2.425   1.504  15.241  0.2717  0.4560  0.7993
 5921TIP3   OH239253   5.120   4.239  16.026  0.1045  0.5497  0.0885
 5921TIP3    H139254   5.064   4.167  16.056 -0.1080 -0.3287 -2.2214
 5921TIP3    H239255   5.063   4.315  16.024 -0.7069 -0.0589 -1.0160
 5922TIP3   OH239256   6.114   0.809  13.084  1.0786  0.4252  0.4048
 5922TIP3    H139257   6.202   0.798  13.119  1.4211 -1.5779 -0.8530
 5922TIP3    H239258   6.056   0.788  13.157  1.6069  2.1399  1.3477
 5923TIP3   OH239259   2.863   6.027   6.052 -0.2490 -0.3216  0.2937
 5923TIP3    H139260   2.895   6.101   6.000  1.0610 -1.2411 -0.2664
 5923TIP3    H239261   2.906   5.950   6.014 -2.3882 -1.5405  0.1842
 5924TIP3   OH239262   1.089   1.833   3.415  0.0803  0.1092  0.4500
 5924TIP3    H139263   1.121   1.803   3.501 -1.5715  2.1365  1.8836
 5924TIP3    H239264   1.022   1.769   3.392 -1.0411  0.7372  1.8112
 5925TIP3   OH239265   1.417   1.821  14.300  0.7056  0.3487  0.1526
 5925TIP3    H139266   1.334   1.794  14.338  1.6678 -2.3757  0.5673
 5925TIP3    H239267   1.405   1.812  14.206  0.1425  1.2715  0.1294
 5926TIP3   OH239268   4.261   1.163  12.075  0.3819 -0.4844  0.0628
 5926TIP3    H139269   4.213   1.088  12.040 -1.4058  0.2093  0.9126
 5926TIP3    H239270   4.297   1.207  11.998 -0.4659 -0.9478 -0.6060
 5927TIP3   OH239271   3.504   0.488  11.250 -0.3205  0.5122  0.3652
 5927TIP3    H139272   3.510   0.393  11.239  1.4896  0.5435  0.8132
 5927TIP3    H239273   3.460   0.500  11.334  1.4394 -0.0135  1.4259
 5928TIP3   OH239274   4.372   4.049  12.456  0.1312 -0.2197 -0.5179
 5928TIP3    H139275   4.284   4.085  12.451  0.0636 -0.3543 -0.2967
 5928TIP3    H239276   4.389   4.014  12.368 -0.3022 -0.8202 -0.3670
 5929TIP3   OH239277   1.312   1.158   1.258 -0.0093 -0.1225 -0.0180
 5929TIP3    H139278   1.394   1.116   1.232  0.3799 -0.6299  1.8843
 5929TIP3    H239279   1.333   1.251   1.262 -0.0861 -0.0286 -1.4515
 5930TIP3   OH239280   1.582   1.196  15.501  0.3243 -0.3144 -0.1516
 5930TIP3    H139281   1.552   1.105  15.505  1.6275 -0.7336  0.6950
 5930TIP3    H239282   1.504   1.248  15.521  0.0396 -1.3424  1.5700
 5931TIP3   OH239283   2.385   6.547  11.609 -0.2598 -0.2131  0.8627
 5931TIP3    H139284   2.339   6.619  11.566 -1.3829 -0.7161  1.1974
 5931TIP3    H239285   2.459   6.589  11.653  0.6003  0.3832 -1.0537
 5932TIP3   OH239286   0.814   6.536   3.163  0.3515 -0.3244  0.1901
 5932TIP3    H139287   0.880   6.595   3.200  0.2443 -0.2921  0.3296
 5932TIP3    H239288   0.777   6.585   3.090  0.8504 -0.5472 -0.2234
 5933TIP3   OH239289   4.859   4.799   3.549 -0.1361  0.3823 -0.0693
 5933TIP3    H139290   4.837   4.710   3.579  0.0613 -0.3114 -1.8493
 5933TIP3    H239291   4.803   4.814   3.473 -0.3992  1.9452  0.3980
 5934TIP3   OH239292   1.003   1.631   0.340 -0.0888 -0.2704 -0.4936
 5934TIP3    H139293   1.089   1.603   0.370 -1.3858 -2.7156  1.3458
 5934TIP3    H239294   1.008   1.627   0.244  1.0812 -3.2409 -0.4196
 5935TIP3   OH239295   3.883   3.444  11.098 -0.1306 -1.2704 -1.0478
 5935TIP3    H139296   3.850   3.440  11.188  3.4581  0.0918  0.5449
 5935TIP3    H239297   3.825   3.507  11.055 -0.7452 -0.3605  0.9593
 5936TIP3   OH239298   6.135   3.015   2.760 -0.2429  0.1379 -0.0778
 5936TIP3    H139299   6.131   3.096   2.711  0.2884  1.2709  1.6528
 5936TIP3    H239300   6.069   2.958   2.719 -1.3095  1.7757 -0.7266
 5937TIP3   OH239301   3.619   5.071  16.592 -0.5167 -1.0982 -0.0480
 5937TIP3    H139302   3.645   5.159  16.618 -1.2218 -0.8818 -0.0399
 5937TIP3    H239303   3.564   5.040  16.664 -1.7549 -0.8370 -0.8514
 5938TIP3   OH239304   6.731   1.490   4.009  0.2847  0.2858  0.5496
 5938TIP3    H139305   6.813   1.455   4.043 -0.7494 -1.0701  1.7758
 5938TIP3    H239306   6.686   1.414   3.971 -0.0795  1.1558 -0.8488
 5939TIP3   OH239307   2.117   6.147   2.449  0.1556 -0.6579 -0.5754
 5939TIP3    H139308   2.079   6.075   2.400 -0.4166  0.6823 -2.1807
 5939TIP3    H239309   2.192   6.176   2.397 -0.0280  0.3376 -0.3113
 5940TIP3   OH239310   0.840   0.539   1.640  0.1529 -0.1596  0.4160
 5940TIP3    H139311   0.905   0.609   1.642 -0.3430  0.3176  0.1847
 5940TIP3    H239312   0.757   0.583   1.660 -0.3629 -0.4491 -0.9723
 5941TIP3   OH239313   5.048   5.061   3.241  0.2800 -0.2704 -0.3441
 5941TIP3    H139314   5.095   5.038   3.161 -0.5560 -0.7094 -0.7282
 5941TIP3    H239315   4.990   4.987   3.257  1.3161 -0.7757  1.3961
 5942TIP3   OH239316   6.623   4.281  12.706 -0.3721  0.3051  0.6111
 5942TIP3    H139317   6.590   4.370  12.691  0.1206  0.2813 -0.7870
 5942TIP3    H239318   6.653   4.252  12.620 -0.1526 -1.0731  1.1275
 5943TIP3   OH239319   1.282   6.591  12.223 -0.0915 -0.5812 -0.2438
 5943TIP3    H139320   1.320   6.518  12.273 -1.9338 -1.3502  0.1464
 5943TIP3    H239321   1.292   6.565  12.132  1.5241 -0.1030 -0.2276
 5944TIP3   OH239322   4.985   1.342   0.348  0.3339  0.4357  0.1242
 5944TIP3    H139323   5.044   1.267   0.357  0.1023  0.4756  2.9955
 5944TIP3    H239324   4.916   1.311   0.290  1.4519 -0.7440 -0.6332
 5945TIP3   OH239325   2.702   1.575   1.760  0.0151  0.2963 -0.0884
 5945TIP3    H139326   2.620   1.622   1.776 -0.5978 -1.0980  1.1567
 5945TIP3    H239327   2.766   1.617   1.819 -0.2955  0.1723  0.3427
 5946TIP3   OH239328   2.776   1.577   3.150 -0.0029  0.2292 -0.1693
 5946TIP3    H139329   2.731   1.494   3.160  0.8797 -0.2076  0.2517
 5946TIP3    H239330   2.758   1.603   3.059  0.6826 -0.9972 -0.6774
 5947TIP3   OH239331   5.566   3.367  12.973 -0.1618 -0.2327 -0.2847
 5947TIP3    H139332   5.521   3.346  12.892  1.1596 -1.0647 -0.8539
 5947TIP3    H239333   5.497   3.373  13.039 -1.2201  0.1269 -1.4014
 5948TIP3   OH239334   4.776   4.837  13.892  1.0226  0.0017 -0.7742
 5948TIP3    H139335   4.755   4.928  13.916  0.6353 -0.2888  0.0327
 5948TIP3    H239336   4.786   4.839  13.797 -0.3552  0.6295 -0.9367
 5949TIP3   OH239337   2.505   1.846  11.653 -0.4537  0.1607  1.0790
 5949TIP3    H139338   2.569   1.900  11.700 -0.5582  1.7828 -0.5399
 5949TIP3    H239339   2.514   1.872  11.562 -0.8084 -2.3259  0.2571
 5950TIP3   OH239340   6.015   4.216  13.860 -0.5164 -0.4320  0.6495
 5950TIP3    H139341   6.004   4.303  13.898  1.5401  0.7300 -1.1473
 5950TIP3    H239342   5.975   4.222  13.773 -1.4028 -1.6820  0.9447
 5951TIP3   OH239343   3.618   1.919  16.616 -0.8725  0.5882 -0.0558
 5951TIP3    H139344   3.617   1.982  16.543 -0.2842  0.3905 -0.2388
 5951TIP3    H239345   3.661   1.966  16.687 -0.6245  0.4715 -0.1260
 5952TIP3   OH239346   0.297   2.348   2.662 -0.1968  0.3726 -0.6966
 5952TIP3    H139347   0.304   2.376   2.753  0.4130  0.4226 -0.7527
 5952TIP3    H239348   0.226   2.283   2.662 -0.6046  0.8087 -0.2984
 5953TIP3   OH239349   5.353   1.538  15.346  0.1331  0.6449 -0.4017
 5953TIP3    H139350   5.345   1.485  15.267 -1.2337  0.8800 -0.4547
 5953TIP3    H239351   5.312   1.485  15.414  0.2760  0.9194 -0.1027
 5954TIP3   OH239352   3.064   1.950   0.281  0.2358  0.4751  0.0243
 5954TIP3    H139353   2.991   1.907   0.236  0.1528  1.4131 -0.7795
 5954TIP3    H239354   3.127   1.881   0.297 -0.8911 -0.3966  0.8731
 5955TIP3   OH239355   4.815   2.099   0.766 -0.3197 -0.7642 -0.5448
 5955TIP3    H139356   4.890   2.049   0.735  0.6874  0.2268  0.1962
 5955TIP3    H239357   4.846   2.190   0.767 -2.1037 -0.0865 -1.9036
 5956TIP3   OH239358   5.159   2.428   3.174 -0.2082 -0.1780  0.5109
 5956TIP3    H139359   5.090   2.444   3.110 -0.7710  2.9853  1.7211
 5956TIP3    H239360   5.115   2.386   3.247 -1.0826  2.3217  1.5042
 5957TIP3   OH239361   2.494   1.430   3.995 -0.0474 -0.7240  0.3597
 5957TIP3    H139362   2.503   1.447   3.901  0.3760  2.0252  0.8311
 5957TIP3    H239363   2.581   1.399   4.022  1.1249  2.3802  0.4943
 5958TIP3   OH239364   2.389   5.407   3.670 -0.7588 -0.3388 -0.3467
 5958TIP3    H139365   2.336   5.464   3.726 -1.3951 -2.7409  1.6519
 5958TIP3    H239366   2.325   5.350   3.626 -0.0206 -1.3153 -0.1886
 5959TIP3   OH239367   5.778   0.923  12.235  0.4517 -0.0986  0.6272
 5959TIP3    H139368   5.796   0.976  12.158  0.1774 -0.5128  0.2749
 5959TIP3    H239369   5.790   0.833  12.206  0.5510 -0.2520  1.1236
 5960TIP3   OH239370   4.108   5.481  15.929 -0.3127  0.5200 -0.0323
 5960TIP3    H139371   4.038   5.543  15.908  1.2825  2.3718 -0.1461
 5960TIP3    H239372   4.064   5.411  15.977 -1.8711  3.0528  2.5919
 5961TIP3   OH239373   1.510   6.378  15.710 -0.4521 -0.0698 -0.5451
 5961TIP3    H139374   1.428   6.413  15.746  0.1795  0.3738  0.4775
 5961TIP3    H239375   1.485   6.292  15.674 -1.4636  0.2734 -0.6961
 5962TIP3   OH239376   1.972   4.797  13.009 -0.2833 -0.0683  0.2364
 5962TIP3    H139377   1.989   4.721  13.065 -0.7524 -1.7566 -1.7886
 5962TIP3    H239378   2.058   4.823  12.976 -0.3807 -1.5204 -1.2415
 5963TIP3   OH239379   2.271   0.549  12.696 -0.2725 -0.3796  0.2562
 5963TIP3    H139380   2.267   0.484  12.765  0.0877 -1.5811 -0.8174
 5963TIP3    H239381   2.180   0.566  12.673 -0.5522  1.6714  2.4387
 5964TIP3   OH239382   6.613   6.157   5.921 -0.3733  0.0502  0.2810
 5964TIP3    H139383   6.677   6.166   5.850  0.2985 -1.3844  0.6593
 5964TIP3    H239384   6.580   6.245   5.936 -0.0728  0.4774 -1.3938
 5965TIP3   OH239385   6.630   5.172   3.149 -0.4798  0.8090  0.0753
 5965TIP3    H139386   6.702   5.217   3.194  1.0240 -0.8563 -0.5483
 5965TIP3    H239387   6.582   5.242   3.105  1.5879  1.8602 -0.6254
 5966TIP3   OH239388   4.904   3.216  12.940  0.1115 -0.5147 -0.5372
 5966TIP3    H139389   4.878   3.207  13.032 -1.2317  0.2495 -0.8302
 5966TIP3    H239390   4.826   3.247  12.895  0.9829 -0.0787 -1.8083
 5967TIP3   OH239391   6.765   4.069   3.068 -0.0110 -0.4363  0.2215
 5967TIP3    H139392   6.713   4.148   3.083  0.4751  0.1785 -1.0699
 5967TIP3    H239393   6.830   4.069   3.138  1.2713  1.4799 -0.8615
 5968TIP3   OH239394   2.167   5.300  14.870  0.1610  0.3367 -0.2563
 5968TIP3    H139395   2.080   5.333  14.893 -0.5962 -1.0601 -1.0125
 5968TIP3    H239396   2.226   5.373  14.891 -1.1310  1.1803  0.6160
 5969TIP3   OH239397   0.380   4.190  12.021 -1.0163 -1.0786  0.2933
 5969TIP3    H139398   0.313   4.162  12.083 -0.5820  0.2510  1.4100
 5969TIP3    H239399   0.433   4.111  12.006 -0.6926 -1.2785  2.2117
 5970TIP3   OH239400   5.450   4.842  15.030  0.4122  0.8256 -1.2952
 5970TIP3    H139401   5.355   4.847  15.041  0.6682  0.6799  1.9177
 5970TIP3    H239402   5.475   4.759  15.073  2.0221  1.0676 -1.6780
 5971TIP3   OH239403   2.230   0.289  15.463 -0.2895  0.1350  0.8255
 5971TIP3    H139404   2.140   0.259  15.462  0.3545 -1.9538  1.0165
 5971TIP3    H239405   2.243   0.329  15.377 -1.6533  1.4100  1.1733
 5972TIP3   OH239406   2.978   5.229  13.773 -0.1000 -0.0069 -0.4774
 5972TIP3    H139407   3.056   5.178  13.752  0.3924  0.0579  1.0912
 5972TIP3    H239408   2.917   5.165  13.809 -0.7096 -0.0165 -1.4810
 5973TIP3   OH239409   6.531   6.466   3.754  0.4081  0.0592 -0.6725
 5973TIP3    H139410   6.591   6.391   3.760  2.1247  1.4682  1.0022
 5973TIP3    H239411   6.452   6.430   3.714  1.7123 -2.2974 -1.3145
 5974TIP3   OH239412   3.077   4.062  15.246  0.1944  0.4652 -0.3652
 5974TIP3    H139413   3.084   4.124  15.174  0.9447 -1.2742 -1.8556
 5974TIP3    H239414   3.088   3.976  15.206 -0.0738 -0.6230  1.7273
 5975TIP3   OH239415   1.445   6.603  14.314 -0.4828 -0.2969 -0.0698
 5975TIP3    H139416   1.409   6.557  14.239 -0.5431  0.9205 -0.8078
 5975TIP3    H239417   1.540   6.594  14.305 -0.4961 -0.2952 -0.2102
 5976TIP3   OH239418   4.384   1.408  11.384  0.3619  0.6084 -0.0106
 5976TIP3    H139419   4.403   1.324  11.424  0.7955  1.2338  1.1320
 5976TIP3    H239420   4.381   1.470  11.457 -0.9185  1.4315 -0.7101
 5977TIP3   OH239421   0.522   1.971  14.470 -0.2356  0.0868  0.1732
 5977TIP3    H139422   0.586   1.933  14.530  0.8453  0.6276 -0.6217
 5977TIP3    H239423   0.441   1.976  14.522 -0.2082 -2.4524  0.5895
 5978TIP3   OH239424   5.462   6.283  13.125 -0.3147 -0.0234  0.4296
 5978TIP3    H139425   5.553   6.269  13.152 -0.8380  1.6293  3.5876
 5978TIP3    H239426   5.459   6.374  13.096 -0.9816  0.0581  0.7167
 5979TIP3   OH239427   5.021   4.220   5.701 -0.0124  0.1892  0.4090
 5979TIP3    H139428   5.002   4.309   5.731  0.7460  0.2581  0.7154
 5979TIP3    H239429   4.936   4.184   5.677 -0.2209  1.3382 -0.6743
 5980TIP3   OH239430   5.039   4.653  11.125 -0.2645  0.1638 -0.1769
 5980TIP3    H139431   4.951   4.627  11.101  0.2222 -1.8509 -0.0181
 5980TIP3    H239432   5.062   4.723  11.064 -1.0021 -1.1382 -2.0376
 5981TIP3   OH239433   5.098   1.282   4.858  0.2916  0.3220  0.3517
 5981TIP3    H139434   5.013   1.325   4.872 -0.3877 -0.7451 -0.3442
 5981TIP3    H239435   5.090   1.242   4.771  0.4045 -2.2710  1.4572
 5982TIP3   OH239436   3.074   3.954  12.852  1.1392  0.7047  0.1128
 5982TIP3    H139437   3.069   4.012  12.776  1.8841  1.6873  0.7886
 5982TIP3    H239438   3.162   3.917  12.848  0.4033 -1.0505 -0.7635
 5983TIP3   OH239439   6.323   6.542  14.618 -0.5823  0.1906 -0.2117
 5983TIP3    H139440   6.288   6.479  14.681 -0.5288  1.1950  0.8581
 5983TIP3    H239441   6.381   6.598  14.671 -2.0766  2.3295 -0.6993
 5984TIP3   OH239442   1.572   4.672   5.673 -0.0987 -0.0742 -1.0511
 5984TIP3    H139443   1.653   4.623   5.663  0.6766  1.0684 -0.4879
 5984TIP3    H239444   1.516   4.615   5.726  0.9508 -0.1710 -0.0062
 5985TIP3   OH239445   5.622   3.400   5.759  0.0769 -0.3984  0.2190
 5985TIP3    H139446   5.707   3.442   5.766  0.2664  0.0669 -3.0669
 5985TIP3    H239447   5.631   3.338   5.687 -2.1532 -0.8993  0.2753
 5986TIP3   OH239448   5.392   3.826  16.769  0.0308  0.3343 -0.5117
 5986TIP3    H139449   5.433   3.885  16.831 -1.6528  1.0016  0.0209
 5986TIP3    H239450   5.313   3.872  16.741 -1.3676 -1.6535 -0.0362
 5987TIP3   OH239451   4.219   2.795   0.371 -0.2031  0.1773 -0.6645
 5987TIP3    H139452   4.290   2.859   0.373 -0.7631  0.8125  1.3450
 5987TIP3    H239453   4.262   2.712   0.350  0.8005  0.8875 -1.5171
 5988TIP3   OH239454   5.681   4.512  16.551  0.3393  0.4974  0.3149
 5988TIP3    H139455   5.708   4.434  16.600  0.3158  0.0051 -0.4413
 5988TIP3    H239456   5.738   4.514  16.474  0.1623  1.0824  0.1929
 5989TIP3   OH239457   0.459   5.014   1.240  0.2043 -0.1433 -0.2245
 5989TIP3    H139458   0.376   5.013   1.286  0.9970  1.0037  1.3484
 5989TIP3    H239459   0.467   5.104   1.207  0.8303 -0.2379 -0.3469
 5990TIP3   OH239460   5.223   6.826  15.465 -0.0466 -0.2870 -0.1618
 5990TIP3    H139461   5.316   6.847  15.457 -0.4295  0.6355 -3.1380
 5990TIP3    H239462   5.218   6.731  15.451  0.4275 -0.3485  0.0776
 5991TIP3   OH239463   4.802   3.731   1.293 -0.0245  0.2184  0.3867
 5991TIP3    H139464   4.832   3.778   1.215 -0.1807  1.1964  0.9058
 5991TIP3    H239465   4.868   3.663   1.306 -0.2826 -0.3230 -0.9051
 5992TIP3   OH239466   6.136   6.085   2.255  0.3071  0.4999  0.1738
 5992TIP3    H139467   6.058   6.122   2.296 -0.6994  1.6771 -2.5255
 5992TIP3    H239468   6.172   6.157   2.204  1.1124 -0.9466 -1.4027
 5993TIP3   OH239469   1.723   1.018  11.591  0.0860 -1.0524 -0.1091
 5993TIP3    H139470   1.700   0.984  11.678  0.3729 -0.6054  0.1459
 5993TIP3    H239471   1.639   1.030  11.547 -0.0698 -1.1413  0.1599
 5994TIP3   OH239472   6.299   2.383   2.990  0.2069  0.9244 -0.4024
 5994TIP3    H139473   6.287   2.306   3.045 -2.8106  1.3622 -0.2833
 5994TIP3    H239474   6.241   2.370   2.915  0.3653  2.6272 -0.8777
 5995TIP3   OH239475   0.858   5.226   2.651  0.0514 -0.7404  0.1694
 5995TIP3    H139476   0.826   5.301   2.601  2.0741  0.9467  1.2686
 5995TIP3    H239477   0.952   5.224   2.634  0.5887 -0.9274  2.7344
 5996TIP3   OH239478   2.780   3.726  16.995 -0.6656 -0.3419 -0.2311
 5996TIP3    H139479   2.779   3.773  16.912  0.6236  0.2798  0.0725
 5996TIP3    H239480   2.789   3.795  17.061  1.8285 -0.9763  0.1944
 5997TIP3   OH239481   6.512   6.728  14.739 -0.4739 -0.0740 -0.0540
 5997TIP3    H139482   6.595   6.743  14.695  0.6838 -0.7580  1.8026
 5997TIP3    H239483   6.505   6.798  14.804 -0.7143 -0.7272  0.6479
 5998TIP3   OH239484   6.083   0.841  15.964  0.0513 -0.5053 -0.4706
 5998TIP3    H139485   6.174   0.855  15.992 -0.4751  1.1264  0.5539
 5998TIP3    H239486   6.054   0.766  16.017  0.0521  0.5563  1.0986
 5999TIP3   OH239487   2.357   6.119   4.339  0.7184  0.0983  0.1401
 5999TIP3    H139488   2.302   6.191   4.368  0.4906 -0.3507  0.8471
 5999TIP3    H239489   2.432   6.120   4.399  0.8413 -0.0895 -0.0087
 6000TIP3   OH239490   4.547   0.695  13.374  0.3130 -0.1314 -0.0305
 6000TIP3    H139491   4.576   0.669  13.462  1.3052  0.1318 -0.2698
 6000TIP3    H239492   4.599   0.773  13.354 -2.2465  1.8638  0.5076
 6001TIP3   OH239493   6.050   1.629   0.541 -0.4228  0.4547  0.1513
 6001TIP3    H139494   5.991   1.699   0.569 -1.2211 -0.4867  0.9007
 6001TIP3    H239495   6.016   1.601   0.456 -0.2130  0.8522 -0.0629
 6002TIP3   OH239496   4.465   5.975   3.686  1.1763  0.0772 -0.1621
 6002TIP3    H139497   4.547   6.004   3.726  0.8569  1.2998 -0.3582
 6002TIP3    H239498   4.445   6.043   3.622 -0.0404 -0.1608 -0.0489
 6003TIP3   OH239499   5.615   2.094  17.074 -0.1741  0.3436 -0.1067
 6003TIP3    H139500   5.665   2.014  17.058 -1.2755 -0.8061  1.7288
 6003TIP3    H239501   5.593   2.127  16.987  0.5586 -1.1982 -0.9148
 6004TIP3   OH239502   0.987   4.229   2.593  0.0929  0.3720  0.4055
 6004TIP3    H139503   1.018   4.319   2.592 -0.5934  0.6169  0.4147
 6004TIP3    H239504   1.001   4.197   2.504 -0.4657  0.7776  0.1647
 6005TIP3   OH239505   4.250   1.330  16.034 -0.4941  0.2154 -0.1520
 6005TIP3    H139506   4.292   1.310  15.951 -0.5953  0.6879 -0.3151
 6005TIP3    H239507   4.299   1.279  16.098  0.4829  0.9354 -0.3021
 6006TIP3   OH239508   3.160   3.486  15.135  0.1046  0.4787 -0.5045
 6006TIP3    H139509   3.243   3.520  15.168  0.4590 -1.4685  0.7269
 6006TIP3    H239510   3.174   3.478  15.040  1.7401 -0.8059 -0.2080
 6007TIP3   OH239511   1.449   4.046   1.433  0.0676 -0.6844  0.0256
 6007TIP3    H139512   1.358   4.067   1.454  0.0168  0.2644 -1.0350
 6007TIP3    H239513   1.491   4.030   1.518 -0.2944  2.2322  0.8525
 6008TIP3   OH239514   3.474   4.762   2.176 -0.0217  0.3720  0.8846
 6008TIP3    H139515   3.479   4.668   2.190 -1.4382 -0.0781 -1.1625
 6008TIP3    H239516   3.431   4.796   2.254 -0.5129 -0.8431  1.1598
 6009TIP3   OH239517   2.402   3.396  12.742 -0.3143 -0.8434  0.0175
 6009TIP3    H139518   2.403   3.459  12.815 -1.4530 -1.0666  0.2319
 6009TIP3    H239519   2.450   3.441  12.672 -2.3891  0.9415 -0.3698
 6010TIP3   OH239520   5.716   5.685  16.149 -0.1247 -0.2594  0.0624
 6010TIP3    H139521   5.778   5.744  16.107 -0.0566 -0.6755 -0.4235
 6010TIP3    H239522   5.685   5.734  16.225  0.0385  0.3483 -0.2548
 6011TIP3   OH239523   4.767   6.093  16.348 -0.8136  0.1236 -0.8901
 6011TIP3    H139524   4.693   6.041  16.378  0.7158 -1.1497  0.9566
 6011TIP3    H239525   4.730   6.178  16.327 -2.4150  0.7139  3.3796
 6012TIP3   OH239526   0.195   4.505   5.313  0.1871 -0.4446  0.6476
 6012TIP3    H139527   0.279   4.549   5.324  0.3383  0.8126 -3.5661
 6012TIP3    H239528   0.130   4.575   5.321 -0.0810 -0.5938 -0.1162
 6013TIP3   OH239529   0.033   5.330  16.584  0.4434 -0.0103 -0.4108
 6013TIP3    H139530  -0.004   5.243  16.599  2.8229 -0.8570  1.0099
 6013TIP3    H239531   0.099   5.317  16.515  1.4118  0.4558  0.4013
 6014TIP3   OH239532   2.087   0.115  14.326 -0.2370  0.3337  0.9121
 6014TIP3    H139533   2.092   0.047  14.393  0.1803 -0.1376  0.4157
 6014TIP3    H239534   2.177   0.147  14.317  0.4001 -1.8085 -1.6171
 6015TIP3   OH239535   6.645   2.707  10.499  0.1977 -0.3666 -0.0127
 6015TIP3    H139536   6.552   2.730  10.498 -0.1755 -1.7612 -1.4618
 6015TIP3    H239537   6.686   2.770  10.440 -0.3429 -1.4819 -1.6571
 6016TIP3   OH239538   1.924   2.324  15.206  0.2116 -0.5524 -0.4993
 6016TIP3    H139539   1.944   2.239  15.168 -0.1656 -0.9045  0.0670
 6016TIP3    H239540   2.004   2.376  15.194  0.1552 -0.7083 -1.5913
 6017TIP3   OH239541   2.976   5.134  14.065  0.0145  0.0744 -0.8658
 6017TIP3    H139542   2.992   5.120  14.158  2.1543  1.8473 -0.8823
 6017TIP3    H239543   2.960   5.047  14.030  0.0186 -0.7282  1.0006
 6018TIP3   OH239544   1.106   3.570  12.020  0.6528 -0.5259 -0.3711
 6018TIP3    H139545   1.160   3.497  11.990  0.2575  0.1144 -2.8877
 6018TIP3    H239546   1.122   3.640  11.956 -0.1533  1.0728  1.0757
 6019TIP3   OH239547   1.333   3.219   0.847 -0.1650  0.0980  0.7197
 6019TIP3    H139548   1.296   3.282   0.910  1.0694  0.2269  1.3619
 6019TIP3    H239549   1.260   3.196   0.790 -1.0625  0.8120  1.5378
 6020TIP3   OH239550   6.309   6.347   3.629 -0.5119  0.0263  0.0482
 6020TIP3    H139551   6.342   6.258   3.637 -0.7865  0.0057  1.0917
 6020TIP3    H239552   6.234   6.340   3.568 -1.0900 -0.6140  0.8136
 6021TIP3   OH239553   6.157   4.132  11.715 -0.1620  0.4260  0.1057
 6021TIP3    H139554   6.173   4.130  11.809  1.5326  2.9368 -0.0516
 6021TIP3    H239555   6.065   4.157  11.706 -0.7296 -1.1504  1.0208
 6022TIP3   OH239556   2.255   2.134   1.561  0.4667 -0.1821  0.0278
 6022TIP3    H139557   2.221   2.051   1.595 -0.8209 -1.2536 -3.4392
 6022TIP3    H239558   2.186   2.166   1.503  3.1128  0.4137 -3.0693
 6023TIP3   OH239559   1.079   6.653   5.773  0.3916 -0.3678  0.0882
 6023TIP3    H139560   1.059   6.694   5.857  2.1554 -0.2973  0.5226
 6023TIP3    H239561   1.036   6.568   5.777 -0.8923  0.2736  0.3738
 6024TIP3   OH239562   5.634   0.348   2.982 -0.0691 -0.0263  0.5148
 6024TIP3    H139563   5.622   0.317   3.072 -0.6342  1.9339  1.1715
 6024TIP3    H239564   5.593   0.435   2.981 -1.3678 -0.5775 -2.0322
 6025TIP3   OH239565   1.530   0.286  10.425 -0.4143  0.1929 -0.3885
 6025TIP3    H139566   1.609   0.249  10.386 -1.6018 -0.2207 -2.5910
 6025TIP3    H239567   1.481   0.210  10.456 -1.3416  0.1296 -1.9076
 6026TIP3   OH239568   4.168   2.726  10.286  0.0237  0.1727 -0.2458
 6026TIP3    H139569   4.200   2.725  10.196 -1.9590  1.4924 -1.0301
 6026TIP3    H239570   4.111   2.649  10.291 -0.0783  0.2508 -0.2042
 6027TIP3   OH239571   5.407   0.661   4.729  0.0077  0.6648 -0.5988
 6027TIP3    H139572   5.431   0.661   4.636  0.0231  0.0456 -0.5934
 6027TIP3    H239573   5.311   0.661   4.728 -0.1380 -3.1039 -0.6700
 6028TIP3   OH239574   3.803   2.723  15.842  0.2192 -0.4772 -0.1775
 6028TIP3    H139575   3.715   2.754  15.820  0.5423  0.9314  0.4077
 6028TIP3    H239576   3.819   2.756  15.930  1.9065  0.6227 -0.8406
 6029TIP3   OH239577   1.561   1.928   1.884  0.3626  0.3798  0.0609
 6029TIP3    H139578   1.486   1.987   1.894  1.2109  1.1350  3.0421
 6029TIP3    H239579   1.536   1.850   1.932  0.9272  0.0654 -0.1460
 6030TIP3   OH239580   3.537   0.375   2.182  0.4483  0.2986  0.7297
 6030TIP3    H139581   3.460   0.320   2.196  0.4378 -0.1557 -0.9197
 6030TIP3    H239582   3.611   0.317   2.197  0.4399 -0.3481 -1.3494
 6031TIP3   OH239583   5.773   0.431   3.679  0.0449 -0.4935 -0.1234
 6031TIP3    H139584   5.844   0.378   3.643 -0.0870 -0.9808  0.3223
 6031TIP3    H239585   5.806   0.521   3.674 -0.1818 -0.4726 -1.9197
 6032TIP3   OH239586   0.072   1.459   2.165 -0.0771  0.3303 -0.6964
 6032TIP3    H139587  -0.021   1.474   2.148 -0.1217  0.5865 -0.2304
 6032TIP3    H239588   0.116   1.499   2.090 -0.3339  0.3904 -0.8169
 6033TIP3   OH239589   6.250   0.034   6.085  0.0438  0.0594  0.1746
 6033TIP3    H139590   6.288   0.117   6.056 -0.0068  0.1327  0.3203
 6033TIP3    H239591   6.160   0.055   6.110  0.2013  0.0711  0.7448
 6034TIP3   OH239592   5.744   0.039  16.837  0.0217 -0.3455  0.1739
 6034TIP3    H139593   5.793   0.103  16.786 -0.0325  0.2553  0.8607
 6034TIP3    H239594   5.789   0.036  16.922 -0.1170 -1.0439  0.2327
 6035TIP3   OH239595   4.871   2.798   3.337 -1.5708 -0.0926  0.1822
 6035TIP3    H139596   4.960   2.819   3.365 -1.6336  0.6769 -0.1652
 6035TIP3    H239597   4.823   2.782   3.419 -1.3703  0.5396  0.4278
 6036TIP3   OH239598   6.346   1.545   3.877  0.4489  0.1207  0.5815
 6036TIP3    H139599   6.323   1.596   3.799  1.0251 -0.8238 -0.2426
 6036TIP3    H239600   6.276   1.562   3.939 -1.0243 -0.5298 -0.8282
 6037TIP3   OH239601   0.395   3.277   4.510 -0.5222 -0.9325  0.0397
 6037TIP3    H139602   0.325   3.332   4.474  0.2140  0.2039  0.2756
 6037TIP3    H239603   0.471   3.296   4.454  0.0168 -0.9162  0.7558
 6038TIP3   OH239604   4.917   3.688   0.111  0.2689  0.8044  0.0660
 6038TIP3    H139605   4.916   3.638   0.030  1.8878 -1.7173  1.4539
 6038TIP3    H239606   4.949   3.775   0.086 -2.4347  1.2219 -2.4165
 6039TIP3   OH239607   2.791   0.377   5.535 -0.2858  0.0084  0.5455
 6039TIP3    H139608   2.707   0.423   5.546 -0.4442 -0.2920  0.5978
 6039TIP3    H239609   2.822   0.363   5.624 -0.8529 -1.1118  0.5801
 6040TIP3   OH239610   6.703   0.098  13.423  0.4054  0.1281  0.0173
 6040TIP3    H139611   6.751   0.177  13.397  2.7971 -1.1076  0.4814
 6040TIP3    H239612   6.761   0.053  13.484 -2.1030 -0.5894  2.1018
 6041TIP3   OH239613   1.252   3.874  15.731  0.5443 -0.0684 -0.0275
 6041TIP3    H139614   1.294   3.951  15.694  1.1540 -1.0153 -1.3992
 6041TIP3    H239615   1.159   3.884  15.708  0.3659  0.9252  1.0464
 6042TIP3   OH239616   5.459   1.688   0.808  0.2455  0.7475  0.0757
 6042TIP3    H139617   5.485   1.728   0.725  0.7288 -1.6754 -1.0230
 6042TIP3    H239618   5.373   1.726   0.826  0.4664  1.9023 -1.1046
 6043TIP3   OH239619   6.568   2.355  16.706  0.1447  0.3821  0.2709
 6043TIP3    H139620   6.650   2.365  16.656 -0.3624  0.5566 -0.5486
 6043TIP3    H239621   6.545   2.444  16.733  0.6684  0.2343  1.2520
 6044TIP3   OH239622   0.909   0.933   0.222  0.0583  0.0588  0.5623
 6044TIP3    H139623   0.954   0.924   0.306  0.9716 -0.0614  0.0798
 6044TIP3    H239624   0.816   0.931   0.244  0.2354  1.9119  1.7819
 6045TIP3   OH239625   5.721   0.664   3.202  0.0845 -0.7293 -0.0263
 6045TIP3    H139626   5.696   0.683   3.293 -1.3048 -2.0325 -0.1010
 6045TIP3    H239627   5.752   0.574   3.205 -0.8108 -1.0815 -0.9896
 6046TIP3   OH239628   4.127   5.241  10.988  0.3321 -0.2136  0.6161
 6046TIP3    H139629   4.032   5.240  11.005  0.3578 -0.4396  0.7601
 6046TIP3    H239630   4.146   5.331  10.962 -0.6455 -0.9977 -3.4847
 6047TIP3   OH239631   5.547   2.732  11.369  0.1014 -0.2920  0.3568
 6047TIP3    H139632   5.507   2.805  11.417  0.7702  0.0734  0.3730
 6047TIP3    H239633   5.619   2.772  11.320 -0.0073 -0.8168 -0.2423
 6048TIP3   OH239634   2.641   2.008  12.637 -0.1044  0.4825 -0.3670
 6048TIP3    H139635   2.715   2.009  12.576  0.0073  0.3348 -0.2365
 6048TIP3    H239636   2.580   1.945  12.599 -0.6989  1.4660 -1.0889
 6049TIP3   OH239637   1.403   0.578  16.981 -0.2856 -0.2466  0.2590
 6049TIP3    H139638   1.310   0.598  16.989 -0.0697  0.2879  1.8108
 6049TIP3    H239639   1.448   0.660  17.004  0.5773 -0.2291 -1.3584
 6050TIP3   OH239640   5.274   5.116  12.684 -0.5675 -0.2043  0.6796
 6050TIP3    H139641   5.356   5.160  12.662 -1.2869  0.7130 -0.2296
 6050TIP3    H239642   5.286   5.027  12.652  0.1598 -0.1379  0.7480
 6051TIP3   OH239643   1.448   3.375  13.521  0.4839 -0.0030  0.2435
 6051TIP3    H139644   1.527   3.423  13.497  1.2154  1.4694  4.7248
 6051TIP3    H239645   1.473   3.283  13.511  2.3382  0.4395  0.3315
 6052TIP3   OH239646   2.704   0.803   6.204 -0.0036 -0.8294 -0.2473
 6052TIP3    H139647   2.725   0.732   6.265  2.0905  0.5499  0.7979
 6052TIP3    H239648   2.626   0.844   6.240 -0.5493 -1.8665 -0.2183
 6053TIP3   OH239649   1.370   0.089  13.704  0.3753  0.1553 -0.6925
 6053TIP3    H139650   1.288   0.093  13.656  0.7007 -0.0034 -1.2593
 6053TIP3    H239651   1.418   0.167  13.676 -0.0289  0.8638  0.4729
 6054TIP3   OH239652   2.528   0.127  11.021 -0.3521  0.2558  0.3027
 6054TIP3    H139653   2.510   0.048  10.970 -1.5437 -1.6741  3.3841
 6054TIP3    H239654   2.448   0.178  11.015  0.0911  0.8206 -0.9770
 6055TIP3   OH239655   2.180   3.850  14.203  0.4915 -0.1458  0.0066
 6055TIP3    H139656   2.141   3.860  14.289 -1.0626 -0.8772 -0.5663
 6055TIP3    H239657   2.126   3.904  14.145  1.4701  0.2870 -0.5281
 6056TIP3   OH239658   5.294   0.964  11.142 -0.4029  0.9208  0.1916
 6056TIP3    H139659   5.369   0.967  11.202 -0.5726 -0.0631  0.4748
 6056TIP3    H239660   5.228   0.914  11.190 -1.6564  2.6738  0.3872
 6057TIP3   OH239661   6.242   1.090   5.531  0.0386 -0.4054 -0.5066
 6057TIP3    H139662   6.306   1.128   5.472  0.6711 -0.9926 -0.2145
 6057TIP3    H239663   6.182   1.043   5.474 -0.6862  0.8943 -0.8632
 6058TIP3   OH239664   6.280   0.260  11.418  0.4975  0.6643  0.6503
 6058TIP3    H139665   6.337   0.326  11.379  0.1978  2.0195  2.4289
 6058TIP3    H239666   6.339   0.201  11.465  0.6361  0.5328  0.3141
 6059TIP3   OH239667   2.023   0.579   4.774 -0.4094 -0.0188 -0.7959
 6059TIP3    H139668   2.064   0.631   4.705  0.8046  0.2566  0.0975
 6059TIP3    H239669   1.954   0.635   4.808  0.5302  0.8102 -0.2128
 6060TIP3   OH239670   0.182   5.111   3.630  0.7425 -0.2557 -0.4538
 6060TIP3    H139671   0.108   5.171   3.627 -0.1131 -1.1610  1.2407
 6060TIP3    H239672   0.259   5.168   3.623 -0.0727  0.8615 -0.5897
 6061TIP3   OH239673   6.751   2.081  13.941 -0.0450  0.3571  0.4727
 6061TIP3    H139674   6.694   2.004  13.941 -1.5501  1.4037 -0.7642
 6061TIP3    H239675   6.697   2.151  13.977  0.9445  1.0761  0.5996
 6062TIP3   OH239676   3.899   0.309  16.834 -0.2046 -0.4450  0.0141
 6062TIP3    H139677   3.816   0.269  16.861  1.3006 -2.0037  2.9753
 6062TIP3    H239678   3.951   0.235  16.800 -0.1407  0.6036 -2.3622
 6063TIP3   OH239679   4.285   1.174  13.641  0.6939  0.8303 -0.1656
 6063TIP3    H139680   4.262   1.215  13.558 -0.2020  0.8483  0.0853
 6063TIP3    H239681   4.380   1.185  13.647  0.7607  0.8671 -1.1590
 6064TIP3   OH239682   3.654   3.078   4.856 -0.3233  0.0985 -0.4861
 6064TIP3    H139683   3.733   3.121   4.823  0.2768 -1.0388 -0.5505
 6064TIP3    H239684   3.686   3.009   4.914 -1.2927 -0.0077 -0.0500
 6065TIP3   OH239685   1.064   3.114  12.262  0.6692  0.1164 -0.2109
 6065TIP3    H139686   1.138   3.175  12.267  0.6792  0.1145 -0.3340
 6065TIP3    H239687   1.071   3.062  12.342  0.0195  1.0114  0.4584
 6066TIP3   OH239688   6.414   1.162   2.856  0.0355  0.2954  0.0526
 6066TIP3    H139689   6.436   1.071   2.836 -0.8540  0.3712 -1.4912
 6066TIP3    H239690   6.397   1.163   2.950  0.8192 -0.9577  0.2303
 6067TIP3   OH239691   4.339   1.948  15.096  0.1797 -0.0050 -0.4116
 6067TIP3    H139692   4.278   1.927  15.167 -0.8539 -1.1516 -1.5858
 6067TIP3    H239693   4.307   2.031  15.060  0.6090  0.4941  0.3369
 6068TIP3   OH239694   1.316   2.372   1.551 -0.9347  0.2062  0.3570
 6068TIP3    H139695   1.348   2.454   1.589  0.7350 -0.6600  0.9280
 6068TIP3    H239696   1.361   2.366   1.467 -0.1069 -0.6770  0.8430
 6069TIP3   OH239697   6.607   0.631  15.852 -0.1960 -0.0510 -0.0384
 6069TIP3    H139698   6.609   0.596  15.941 -1.4554 -0.4880 -0.1636
 6069TIP3    H239699   6.568   0.718  15.862  2.5051  1.2581  0.2112
 6070TIP3   OH239700   6.488   3.789  12.170 -0.2035  0.1884 -0.2067
 6070TIP3    H139701   6.447   3.703  12.167 -2.1204  1.0243  0.0474
 6070TIP3    H239702   6.469   3.828  12.085 -1.3324  1.1462  0.4394
 6071TIP3   OH239703   2.184   3.803   0.270 -0.3876 -0.3410 -0.0455
 6071TIP3    H139704   2.213   3.828   0.182  0.6665  1.1975  0.6875
 6071TIP3    H239705   2.130   3.876   0.299 -0.5691 -0.7488  0.6571
 6072TIP3   OH239706   5.726   2.961  13.100 -0.0780 -0.3099  0.6636
 6072TIP3    H139707   5.648   2.953  13.045  0.8590 -1.5083 -0.5420
 6072TIP3    H239708   5.691   2.988  13.186 -1.4589  2.7411 -0.7194
 6073TIP3   OH239709   3.467   1.367  10.234  0.0944  0.1643 -0.1451
 6073TIP3    H139710   3.407   1.297  10.262  2.2164 -0.8554  2.2119
 6073TIP3    H239711   3.419   1.448  10.251 -1.4118 -0.6515 -0.3650
 6074TIP3   OH239712   6.149   0.445  15.507  0.3347  0.0727 -0.0009
 6074TIP3    H139713   6.077   0.391  15.541 -0.7638  2.1165  1.1157
 6074TIP3    H239714   6.171   0.503  15.579  0.9761  1.5950 -1.3611
 6075TIP3   OH239715   3.390   1.651   0.376 -0.0901 -0.2318 -0.1961
 6075TIP3    H139716   3.478   1.665   0.341  0.0759 -1.3241 -0.2477
 6075TIP3    H239717   3.352   1.584   0.319 -1.4571  1.1577 -1.0101
 6076TIP3   OH239718   1.261   1.523   2.056  0.4753  0.3880  0.1801
 6076TIP3    H139719   1.240   1.569   2.137 -1.6612 -1.6363  0.8794
 6076TIP3    H239720   1.221   1.437   2.066 -1.3414  0.5833 -3.7169
 6077TIP3   OH239721   6.812   6.244   0.132 -0.3133 -0.2042 -0.2671
 6077TIP3    H139722   6.755   6.192   0.189 -1.6253  1.9136  0.4520
 6077TIP3    H239723   6.762   6.254   0.051  0.6418 -1.3796 -1.0465
 6078TIP3   OH239724   2.387   1.358   4.801  0.1679 -0.4284  0.1659
 6078TIP3    H139725   2.410   1.343   4.709  0.4213  0.1529  0.1297
 6078TIP3    H239726   2.293   1.342   4.805 -0.1792  1.2007 -0.5799
 6079TIP3   OH239727   4.250   6.387   5.645 -0.0540  0.1388  0.4484
 6079TIP3    H139728   4.271   6.309   5.697  0.1563  1.2443  2.0927
 6079TIP3    H239729   4.161   6.410   5.672  0.4760  1.3853  1.2408
 6080TIP3   OH239730   2.378   4.589   2.733  0.1891 -0.5831  0.1158
 6080TIP3    H139731   2.454   4.607   2.677  0.0966 -0.8872 -0.1064
 6080TIP3    H239732   2.306   4.636   2.691 -0.0193 -1.3372 -0.3789
 6081TIP3   OH239733   0.706   3.196   5.940  1.0131 -0.6766  0.1159
 6081TIP3    H139734   0.754   3.170   6.018  0.8555  1.6131  1.0595
 6081TIP3    H239735   0.673   3.284   5.960  0.4532 -0.2570 -2.2986
 6082TIP3   OH239736   3.444   3.003   5.349  0.0643 -0.3592 -0.1221
 6082TIP3    H139737   3.467   2.910   5.360 -1.9940 -1.0627 -1.1952
 6082TIP3    H239738   3.368   3.002   5.291 -0.2886  2.0025  0.2009
 6083TIP3   OH239739   5.549   6.181   3.775 -0.2287 -0.0603 -0.3475
 6083TIP3    H139740   5.466   6.156   3.816 -0.4765 -0.8506 -1.2690
 6083TIP3    H239741   5.584   6.251   3.830  0.0249 -1.8143  1.8795
 6084TIP3   OH239742   4.038   1.296  13.758  0.4045  0.0162 -0.1564
 6084TIP3    H139743   3.970   1.364  13.760  0.7243  0.3340  0.0302
 6084TIP3    H239744   4.081   1.306  13.673 -0.1413 -0.5473 -0.5068
 6085TIP3   OH239745   0.637   1.561  13.908 -0.6305 -0.1284  0.2647
 6085TIP3    H139746   0.723   1.529  13.880 -0.5872 -0.5044  0.8114
 6085TIP3    H239747   0.640   1.559  14.004 -0.5316  1.8034  0.3368
 6086TIP3   OH239748   3.139   4.487  15.229 -0.0070 -0.5890  0.6762
 6086TIP3    H139749   3.215   4.511  15.176 -1.0893 -2.8929 -2.2200
 6086TIP3    H239750   3.176   4.450  15.309  1.9065 -0.8758 -0.2760
 6087TIP3   OH239751   3.988   1.713  14.367 -0.0481 -0.1684  0.2402
 6087TIP3    H139752   3.955   1.800  14.346  1.6359  0.7050  1.0596
 6087TIP3    H239753   3.917   1.671  14.417 -0.5207  1.0551  0.6148
 6088TIP3   OH239754   6.378   2.575   3.244  0.3325  0.3789 -0.2978
 6088TIP3    H139755   6.354   2.540   3.329  1.9963 -0.7451 -0.2428
 6088TIP3    H239756   6.414   2.662   3.263  0.7483  0.1103  0.1658
 6089TIP3   OH239757   0.066   4.117   3.362  0.0977  0.2184 -0.0440
 6089TIP3    H139758   0.030   4.206   3.358  1.7819  0.9961  0.7668
 6089TIP3    H239759   0.127   4.119   3.436 -0.5265 -1.9111  0.5882
 6090TIP3   OH239760   0.304   4.993   0.040 -0.2275  0.4700 -0.5564
 6090TIP3    H139761   0.371   5.014   0.105 -1.5973 -0.8339  1.3683
 6090TIP3    H239762   0.318   5.058  -0.030  1.3027  1.9303  0.9948
 6091TIP3   OH239763   0.367   0.247  15.539  0.4099  0.1255 -0.6893
 6091TIP3    H139764   0.282   0.290  15.533  1.5640  2.5653 -1.0041
 6091TIP3    H239765   0.427   0.316  15.569  2.1296 -1.7346  0.4363
 6092TIP3   OH239766   2.895   0.811  14.542  0.3240 -0.1213  0.3576
 6092TIP3    H139767   2.909   0.794  14.635  0.3014  3.5791  1.1978
 6092TIP3    H239768   2.983   0.815  14.505  0.3104 -2.5332 -0.0721
 6093TIP3   OH239769   5.146   3.266  14.772 -0.0932  0.4160  0.1822
 6093TIP3    H139770   5.123   3.204  14.702 -1.4377 -0.1816  1.1155
 6093TIP3    H239771   5.238   3.245  14.792  0.2425  0.4393 -1.2152
 6094TIP3   OH239772   1.340   2.846  16.281  0.4175 -0.1019 -0.5811
 6094TIP3    H139773   1.382   2.761  16.269  0.7961 -0.0670  0.3676
 6094TIP3    H239774   1.295   2.838  16.366 -0.5480  0.2453 -1.0365
 6095TIP3   OH239775   2.878   6.096   2.176 -0.3524 -0.1786 -0.4207
 6095TIP3    H139776   2.952   6.036   2.182  1.6500  2.1155 -0.3830
 6095TIP3    H239777   2.886   6.136   2.089 -0.4875  1.3155  0.2150
 6096TIP3   OH239778   3.859   4.267   6.675  0.3241  0.3905  0.1611
 6096TIP3    H139779   3.933   4.268   6.735 -0.0714 -2.1687  0.7940
 6096TIP3    H239780   3.886   4.212   6.602 -1.0958 -1.1212  0.7011
 6097TIP3   OH239781   4.829   4.525   4.298 -0.4235 -0.1878  0.0103
 6097TIP3    H139782   4.847   4.584   4.371 -0.1358 -0.9304  0.5406
 6097TIP3    H239783   4.907   4.470   4.291 -1.1509 -1.2780  0.2648
 6098TIP3   OH239784   0.995   5.978   3.433  0.4239  0.1676  0.2186
 6098TIP3    H139785   1.022   6.067   3.409  0.5559 -0.0224 -0.3591
 6098TIP3    H239786   1.009   5.973   3.527  0.9600  0.5713  0.1626
 6099TIP3   OH239787   0.978   0.518  13.105  0.0266 -0.0086  0.0616
 6099TIP3    H139788   0.932   0.603  13.107  0.5571  0.3909 -2.1667
 6099TIP3    H239789   1.070   0.541  13.097  0.2757 -0.8250  0.4831
 6100TIP3   OH239790   3.294   4.200  13.796 -0.1090  0.5839  0.5021
 6100TIP3    H139791   3.336   4.119  13.827  0.0951  0.3341 -0.3778
 6100TIP3    H239792   3.218   4.211  13.852 -0.0375 -0.1302  0.7507
 6101TIP3   OH239793   4.622   0.671   4.169 -0.2570  0.1563 -0.3447
 6101TIP3    H139794   4.681   0.623   4.227  0.3880 -1.1556 -1.9764
 6101TIP3    H239795   4.579   0.603   4.117 -0.7081  1.2615 -1.4816
 6102TIP3   OH239796   5.641   5.874   3.863 -0.4470  0.1435  0.2009
 6102TIP3    H139797   5.563   5.928   3.874 -0.0282  0.9838 -0.7248
 6102TIP3    H239798   5.713   5.938   3.857  0.2283 -0.5856  0.4602
 6103TIP3   OH239799   2.106   3.030  14.522 -0.2110  0.0022 -0.1399
 6103TIP3    H139800   2.150   2.980  14.453  1.5369 -0.8091  1.4627
 6103TIP3    H239801   2.169   3.031  14.594 -1.5092  1.7993  1.0496
 6104TIP3   OH239802   5.048   5.858  12.034  0.4281 -0.3290 -0.0831
 6104TIP3    H139803   4.976   5.920  12.032  0.0678 -0.7393  0.0585
 6104TIP3    H239804   5.089   5.872  12.120  1.2667  0.7387 -0.6373
 6105TIP3   OH239805   1.639   3.448  11.501 -0.2328  0.1879 -0.3142
 6105TIP3    H139806   1.614   3.356  11.514  0.3723  0.3308  2.5327
 6105TIP3    H239807   1.599   3.472  11.418 -0.6535 -2.5626 -1.0088
 6106TIP3   OH239808   3.319   1.264  12.531 -0.3605 -0.5316  0.1888
 6106TIP3    H139809   3.395   1.229  12.485 -0.7153 -1.2988  0.1793
 6106TIP3    H239810   3.316   1.215  12.613 -0.8700 -0.5331  0.1709
 6107TIP3   OH239811   4.695   4.418  14.214 -0.1185 -0.0894  0.8216
 6107TIP3    H139812   4.671   4.506  14.185  1.2035 -0.2911 -1.0563
 6107TIP3    H239813   4.631   4.397  14.281 -0.3162  2.4003  1.5241
 6108TIP3   OH239814   0.498   3.732   1.407 -0.0915 -0.4374 -0.1976
 6108TIP3    H139815   0.546   3.775   1.337 -2.1308  0.3337 -1.1862
 6108TIP3    H239816   0.551   3.655   1.429  0.4479 -0.8881 -2.8001
 6109TIP3   OH239817   4.726   6.106  14.777 -0.3115  0.3331  0.8221
 6109TIP3    H139818   4.742   6.076  14.867 -0.3228  0.9610  1.0341
 6109TIP3    H239819   4.665   6.041  14.741  1.8343 -1.5526  0.3345
 6110TIP3   OH239820   5.171   1.596  14.959 -0.5743 -0.4254 -0.2623
 6110TIP3    H139821   5.117   1.577  15.035 -0.7479  0.6117 -0.1031
 6110TIP3    H239822   5.215   1.679  14.981  0.7021 -0.9920 -0.5929
 6111TIP3   OH239823   5.327   1.116   2.692  0.2628  0.1748  0.3471
 6111TIP3    H139824   5.415   1.078   2.700  1.2304  1.7202 -1.9258
 6111TIP3    H239825   5.313   1.161   2.776  2.1850  0.8932  0.3458
 6112TIP3   OH239826   1.644   6.258   3.990 -0.9746 -0.0348  0.9626
 6112TIP3    H139827   1.672   6.185   4.046 -2.0380 -0.7792  0.5401
 6112TIP3    H239828   1.723   6.283   3.943 -0.6513 -1.0819  0.9250
 6113TIP3   OH239829   5.297   4.428  12.069  0.0107  0.0880 -1.1243
 6113TIP3    H139830   5.261   4.441  12.157 -0.4306 -1.6490 -1.0187
 6113TIP3    H239831   5.321   4.516  12.040  1.5749  0.5649  1.3180
 6114TIP3   OH239832   4.951   2.496  10.317  0.2728 -0.2236  0.3395
 6114TIP3    H139833   4.984   2.491  10.228  0.3624 -0.4308  0.3852
 6114TIP3    H239834   5.009   2.560  10.360 -0.6898  1.0381 -0.1547
 6115TIP3   OH239835   5.226   6.037   6.662  0.2062  0.1054 -0.5383
 6115TIP3    H139836   5.209   5.945   6.645  0.4221  0.0354 -0.3803
 6115TIP3    H239837   5.141   6.074   6.684 -1.0034  1.1007 -5.6178
 6116TIP3   OH239838   0.718   2.279   1.194  0.1882  0.3873 -0.3240
 6116TIP3    H139839   0.784   2.345   1.172  1.2689 -0.4699  0.2441
 6116TIP3    H239840   0.671   2.316   1.269 -0.7066  1.4589 -1.3694
 6117TIP3   OH239841   2.539   3.154   5.675 -0.1144  0.1577 -0.0792
 6117TIP3    H139842   2.573   3.114   5.595  0.5844 -0.1687  0.3632
 6117TIP3    H239843   2.467   3.097   5.702 -1.8746  1.5039 -1.6681
 6118TIP3   OH239844   0.961   6.545  11.395 -0.5680 -0.3432 -0.0508
 6118TIP3    H139845   1.030   6.536  11.329  0.4049  2.7791  0.3905
 6118TIP3    H239846   1.001   6.512  11.476  0.6829  1.7826  0.2855
 6119TIP3   OH239847   4.395   1.206   3.117 -1.0073  0.9576 -0.0809
 6119TIP3    H139848   4.305   1.210   3.149 -0.8176 -0.0387  0.6371
 6119TIP3    H239849   4.392   1.248   3.031 -2.7163 -1.4370 -1.2921
 6120TIP3   OH239850   3.042   5.644   4.336  0.5199 -0.1163 -0.5206
 6120TIP3    H139851   3.020   5.580   4.268  1.6722  1.2392 -2.2704
 6120TIP3    H239852   2.964   5.699   4.343 -0.0372 -0.9693  0.1358
 6121TIP3   OH239853   0.073   2.397  16.852 -0.1757  0.1480  0.6150
 6121TIP3    H139854   0.036   2.444  16.777  1.1925 -0.0403 -0.2112
 6121TIP3    H239855   0.005   2.403  16.919 -1.0832  1.0796 -0.3332
 6122TIP3   OH239856   3.516   3.087  13.802  0.5749 -0.0121  0.1608
 6122TIP3    H139857   3.603   3.062  13.770  0.4019 -0.1867 -0.1794
 6122TIP3    H239858   3.498   3.171  13.760 -0.5210 -1.1810 -1.8986
 6123TIP3   OH239859   1.897   3.564  15.414  0.0572 -0.2228 -0.1929
 6123TIP3    H139860   1.851   3.605  15.341  1.4462 -0.5481 -1.3083
 6123TIP3    H239861   1.990   3.577  15.394  0.5374 -2.7971  0.0252
 6124TIP3   OH239862   1.792   1.498   5.499  0.0546 -0.6750  0.4675
 6124TIP3    H139863   1.824   1.578   5.457 -2.3950 -0.5894 -1.4619
 6124TIP3    H239864   1.717   1.526   5.551 -1.3096 -1.7423 -0.8298
 6125TIP3   OH239865   0.991   4.103  11.020  0.0296  0.9905  0.6195
 6125TIP3    H139866   1.028   4.020  11.047 -0.5596  0.4655 -0.1238
 6125TIP3    H239867   1.043   4.130  10.944 -0.9184  0.3676 -0.2797
 6126TIP3   OH239868   1.533   3.369  13.201  0.1190 -0.2299 -0.1150
 6126TIP3    H139869   1.559   3.318  13.277  0.5976 -0.9196 -0.7227
 6126TIP3    H239870   1.455   3.416  13.229  0.0753 -0.7590  0.6811
 6127TIP3   OH239871   0.048   0.999   1.613  0.2753 -0.8834  0.1986
 6127TIP3    H139872   0.085   1.004   1.525  0.4022  1.2456  0.3096
 6127TIP3    H239873   0.060   0.908   1.640 -0.0520 -1.6435 -2.0936
 6128TIP3   OH239874   5.673   6.799  12.481  0.2046 -0.1016 -0.2096
 6128TIP3    H139875   5.639   6.833  12.398  0.1556 -0.7024 -0.4373
 6128TIP3    H239876   5.622   6.720  12.498  0.4724 -0.1912  0.2041
 6129TIP3   OH239877   0.104   4.611  15.621 -0.6462  0.3465 -0.5946
 6129TIP3    H139878   0.086   4.534  15.568 -0.7872  1.2125 -1.8642
 6129TIP3    H239879   0.109   4.579  15.710 -2.6784 -0.8400 -0.8541
 6130TIP3   OH239880   5.486   3.182   2.269  0.5338  0.3561  0.8027
 6130TIP3    H139881   5.463   3.270   2.299  0.4039  0.0151  1.7580
 6130TIP3    H239882   5.575   3.190   2.237  0.7947  0.6891  1.5835
 6131TIP3   OH239883   2.984   0.787  12.187 -0.0894  0.0926 -0.9783
 6131TIP3    H139884   3.019   0.868  12.149 -2.2920  1.0085 -1.2472
 6131TIP3    H239885   3.042   0.768  12.261  1.9827  0.4620 -2.4294
 6132TIP3   OH239886   5.948   0.793  16.806 -0.0611 -0.5289  0.7140
 6132TIP3    H139887   5.854   0.788  16.823  0.3172 -1.3647  2.8338
 6132TIP3    H239888   5.971   0.707  16.772 -0.3111  0.2557 -1.6855
 6133TIP3   OH239889   3.956   5.450  12.936  0.3105 -0.1572  0.2578
 6133TIP3    H139890   3.954   5.542  12.959 -1.8316 -0.1396  0.2435
 6133TIP3    H239891   3.995   5.406  13.011  0.7860  0.6923  0.5117
 6134TIP3   OH239892   3.407   4.950   4.885 -0.7292  0.3301 -0.4471
 6134TIP3    H139893   3.381   5.040   4.865  0.9842  0.8497 -0.4557
 6134TIP3    H239894   3.366   4.898   4.816 -0.7505  1.2555 -1.1513
 6135TIP3   OH239895   5.884   5.570  15.899 -0.8463  0.3442 -0.5999
 6135TIP3    H139896   5.802   5.546  15.943 -0.0255 -1.1114  0.2180
 6135TIP3    H239897   5.946   5.586  15.971  0.2504 -1.0775 -1.1794
 6136TIP3   OH239898   6.490   5.724   4.870  0.3900  0.3392  0.2665
 6136TIP3    H139899   6.557   5.753   4.809  0.8712 -1.6283 -0.2090
 6136TIP3    H239900   6.534   5.723   4.955 -0.1064  2.4828  0.6066
 6137TIP3   OH239901   2.996   2.760  11.498  0.6911 -0.2487  0.3227
 6137TIP3    H139902   3.087   2.787  11.511  0.4156  0.6535  0.4886
 6137TIP3    H239903   2.945   2.829  11.541 -0.0483 -1.2837  1.1376
 6138TIP3   OH239904   2.474   5.085   1.556  0.5668 -0.3796  0.4836
 6138TIP3    H139905   2.505   5.166   1.516  0.3990 -1.2527 -1.5794
 6138TIP3    H239906   2.554   5.044   1.591  1.0293 -0.3376 -0.4675
 6139TIP3   OH239907   1.417   3.966   1.753 -0.0022  0.5440  0.4973
 6139TIP3    H139908   1.451   3.879   1.777 -0.1871  0.3113 -0.0767
 6139TIP3    H239909   1.323   3.953   1.744 -0.0188  0.7865  0.3276
 6140TIP3   OH239910   0.230   2.097   4.096 -0.3603  0.1281 -0.3985
 6140TIP3    H139911   0.315   2.058   4.076 -0.1619 -0.1640  0.9194
 6140TIP3    H239912   0.250   2.167   4.158 -1.0831  0.0724 -0.0995
 6141TIP3   OH239913   0.600   0.419   5.454 -0.3306  0.0072  0.0603
 6141TIP3    H139914   0.512   0.399   5.422 -0.9898 -0.3542  1.9497
 6141TIP3    H239915   0.590   0.502   5.501  1.2914  2.2865 -3.2530
 6142TIP3   OH239916   6.435   3.618   4.711 -0.0917 -0.5344  0.5080
 6142TIP3    H139917   6.437   3.572   4.628 -0.3146  2.3684 -1.2474
 6142TIP3    H239918   6.343   3.614   4.739 -0.3540 -0.1218 -0.2666
 6143TIP3   OH239919   5.826   1.809  15.351 -0.1932  0.4430 -0.3832
 6143TIP3    H139920   5.775   1.728  15.359 -0.2336  0.4356 -0.7016
 6143TIP3    H239921   5.915   1.780  15.334  0.6028  0.3458  3.1056
 6144TIP3   OH239922   5.795   6.783  10.930 -0.0298  0.4245  0.9600
 6144TIP3    H139923   5.765   6.707  10.978 -0.8053  0.5763  0.7229
 6144TIP3    H239924   5.820   6.750  10.843 -2.1216  0.6914  0.2071
 6145TIP3   OH239925   1.639   4.461  16.600 -0.0787 -0.6152 -0.1731
 6145TIP3    H139926   1.679   4.496  16.680  1.3032 -1.1941 -0.5724
 6145TIP3    H239927   1.592   4.535  16.562  0.0504 -0.0804  0.6792
 6146TIP3   OH239928   1.869   2.635  13.114 -0.2406  0.1318  0.2380
 6146TIP3    H139929   1.918   2.631  13.196 -0.3007 -0.2037  0.2595
 6146TIP3    H239930   1.781   2.663  13.139  0.2374  1.9117  0.0642
 6147TIP3   OH239931   5.590   2.088   4.055 -0.3345 -0.4756 -0.3128
 6147TIP3    H139932   5.582   2.107   3.962  2.0554  0.1448 -0.4652
 6147TIP3    H239933   5.674   2.127   4.080 -0.0893 -2.1290  1.7086
 6148TIP3   OH239934   2.060   3.482  13.167  0.3394 -0.0489 -0.6677
 6148TIP3    H139935   2.011   3.545  13.219 -0.5497  0.1402 -1.6950
 6148TIP3    H239936   1.999   3.410  13.151  0.6765 -0.2271 -1.2028
 6149TIP3   OH239937   0.060   3.287  12.909  0.5043 -0.3007  0.0486
 6149TIP3    H139938   0.072   3.303  12.816 -1.3747  0.2109 -0.1275
 6149TIP3    H239939   0.122   3.217  12.929  1.9038  0.4965 -1.2656
 6150TIP3   OH239940   4.009   1.876  15.807 -0.7287  0.0744 -0.5701
 6150TIP3    H139941   4.044   1.874  15.718 -2.3655  0.6981 -1.2904
 6150TIP3    H239942   4.064   1.940  15.853  0.3951 -0.5632 -0.9999
 6151TIP3   OH239943   2.513   1.351   5.484  0.8059 -0.0891 -0.2223
 6151TIP3    H139944   2.493   1.257   5.484 -1.6624  0.3202  1.9713
 6151TIP3    H239945   2.597   1.357   5.531  0.2453 -1.1437  0.9862
 6152TIP3   OH239946   0.805   0.664   5.699 -0.0930 -0.0222 -0.1678
 6152TIP3    H139947   0.723   0.650   5.747  1.4100 -1.6650  2.1414
 6152TIP3    H239948   0.861   0.712   5.760  1.7769 -1.8781 -0.3213
 6153TIP3   OH239949   1.718   1.795   5.112  0.2479 -0.1322 -0.1888
 6153TIP3    H139950   1.675   1.759   5.189  0.3909 -0.5355 -0.2938
 6153TIP3    H239951   1.761   1.719   5.071  0.8136  0.2170 -0.2399
 6154TIP3   OH239952   4.644   1.878  14.266 -0.1034 -0.2204  0.3302
 6154TIP3    H139953   4.640   1.783  14.278 -0.4637 -0.2726 -0.1514
 6154TIP3    H239954   4.660   1.889  14.172  0.9094  0.1810  0.5365
 6155TIP3   OH239955   6.801   4.219  14.279  0.4375 -0.4286  0.2396
 6155TIP3    H139956   6.881   4.195  14.232 -0.8542 -1.3823 -1.5719
 6155TIP3    H239957   6.774   4.139  14.324 -0.4492 -0.6309 -0.6251
 6156TIP3   OH239958   5.689   5.927   0.195  0.2720  0.0045  0.3703
 6156TIP3    H139959   5.684   6.020   0.216  0.5952 -0.3896  2.4190
 6156TIP3    H239960   5.607   5.909   0.148  0.7516  1.5378 -1.1513
 6157TIP3   OH239961   1.249   5.939  12.867  0.3291 -0.7087 -0.4810
 6157TIP3    H139962   1.208   5.860  12.903 -1.0992 -1.0871 -2.6846
 6157TIP3    H239963   1.305   5.907  12.796 -0.0718  0.1946 -1.2371
 6158TIP3   OH239964   2.349   1.162   0.315 -0.4623  0.4603  0.2308
 6158TIP3    H139965   2.256   1.177   0.329 -0.1569  2.1987  0.7279
 6158TIP3    H239966   2.363   1.185   0.223 -0.1666  2.6380  0.7500
 6159TIP3   OH239967   3.550   3.457  13.008  0.5229  0.1933  0.3143
 6159TIP3    H139968   3.628   3.403  13.019  0.8385  0.7017  0.6335
 6159TIP3    H239969   3.553   3.486  12.917  0.5444 -0.0314  0.2436
 6160TIP3   OH239970   4.069   4.395  15.734  0.1786  0.3944  0.3247
 6160TIP3    H139971   4.148   4.423  15.781 -0.1984 -1.1591  1.9716
 6160TIP3    H239972   4.100   4.328  15.673  0.4183  1.2861 -0.5669
 6161TIP3   OH239973   6.537   6.728   2.302  0.0257  0.4768  0.6526
 6161TIP3    H139974   6.524   6.797   2.367 -0.6716 -0.4250  1.5112
 6161TIP3    H239975   6.494   6.652   2.340  1.7010 -0.7304  0.2131
 6162TIP3   OH239976   2.285   2.393  11.659  0.2842 -0.0372  0.2631
 6162TIP3    H139977   2.283   2.483  11.691 -1.5545 -0.0200  0.1788
 6162TIP3    H239978   2.246   2.341  11.729 -1.8905 -0.2708 -1.0195
 6163TIP3   OH239979   4.485   2.848   2.603 -0.1500  0.1492  0.3341
 6163TIP3    H139980   4.474   2.761   2.564  0.1678  1.6358 -3.5485
 6163TIP3    H239981   4.575   2.851   2.633  0.5682 -0.1977 -1.6482
 6164TIP3   OH239982   3.491   3.987  14.823 -0.5086  0.0699  0.0588
 6164TIP3    H139983   3.483   4.083  14.815  2.5660  0.4083 -0.0396
 6164TIP3    H239984   3.490   3.972  14.918  1.2547  0.5267  0.1890
 6165TIP3   OH239985   4.978   5.877   3.971 -0.1886 -0.7330 -0.1193
 6165TIP3    H139986   5.016   5.835   4.048  1.1250  1.1317  0.3391
 6165TIP3    H239987   4.911   5.936   4.007 -0.6410 -0.9761 -0.5532
 6166TIP3   OH239988   0.974   0.828   5.877  0.2220  0.0104 -0.0286
 6166TIP3    H139989   0.958   0.874   5.960 -1.1228 -0.8487  0.2100
 6166TIP3    H239990   1.045   0.878   5.836  1.0179  0.3720  1.6946
 6167TIP3   OH239991   5.023   0.511  11.924  0.4725 -0.1248 -0.3107
 6167TIP3    H139992   5.019   0.604  11.946 -1.0920  0.2108 -1.7863
 6167TIP3    H239993   5.074   0.472  11.995  0.9149  1.7944  0.5027
 6168TIP3   OH239994   4.035   1.775   5.453  0.8037 -0.0449  0.7647
 6168TIP3    H139995   4.040   1.687   5.491  2.6374 -1.3508 -2.1533
 6168TIP3    H239996   3.947   1.780   5.415  0.8288 -0.8092  0.5919
 6169TIP3   OH239997   1.624   3.367   3.917  0.6262  0.4603  0.4372
 6169TIP3    H139998   1.597   3.453   3.949 -0.3393  1.0156 -1.6779
 6169TIP3    H239999   1.575   3.305   3.971  0.7376  1.2611  1.4769
 6170TIP3   OH240000   3.540   4.004   6.475 -0.0378  0.4642 -0.5930
 6170TIP3    H140001   3.605   4.030   6.410  0.0540  1.7152 -0.0256
 6170TIP3    H240002   3.590   3.952   6.539 -0.0895 -0.5947 -1.3871
 6171TIP3   OH240003   0.423   5.918  14.667 -0.1302 -0.3322 -0.3362
 6171TIP3    H140004   0.378   5.966  14.737  0.1582  1.2820 -1.2115
 6171TIP3    H240005   0.358   5.853  14.638 -1.4109  1.0328 -0.6404
 6172TIP3   OH240006   0.849   1.379  13.867 -0.3918 -0.2011  0.6152
 6172TIP3    H140007   0.794   1.323  13.921 -1.1362  0.4391  0.5394
 6172TIP3    H240008   0.924   1.399  13.922 -1.1857  0.5299  1.4627
 6173TIP3   OH240009   1.611   3.817  10.540  0.3922 -0.0891  0.3863
 6173TIP3    H140010   1.560   3.884  10.585  1.0080  0.8339 -0.2530
 6173TIP3    H240011   1.689   3.863  10.510  1.0302 -1.2064  0.3090
 6174TIP3   OH240012   1.841   3.416  14.509 -0.5574  0.1568  0.5247
 6174TIP3    H140013   1.857   3.400  14.416 -0.5719  0.0241  0.5442
 6174TIP3    H240014   1.880   3.340  14.553 -0.6798  0.1467  0.6162
 6175TIP3   OH240015   0.076   5.185  14.783  0.0448 -0.2892 -0.1734
 6175TIP3    H140016   0.134   5.236  14.727  0.2556 -0.9422 -0.5584
 6175TIP3    H240017   0.133   5.121  14.825 -0.0442  0.4236  1.0882
 6176TIP3   OH240018   2.286   6.153   6.287  0.1380 -0.0910  0.3341
 6176TIP3    H140019   2.279   6.249   6.280  1.1044  0.0995  1.5652
 6176TIP3    H240020   2.367   6.139   6.336 -0.0964 -1.5396  0.3323
 6177TIP3   OH240021   6.350   3.167  14.802 -0.7461  0.1215 -0.3201
 6177TIP3    H140022   6.394   3.185  14.885 -0.2308 -0.7827 -0.3832
 6177TIP3    H240023   6.263   3.134  14.828 -0.0026 -1.7633 -0.0551
 6178TIP3   OH240024   6.102   6.461  15.097  0.5477 -0.4368 -0.1967
 6178TIP3    H140025   6.109   6.482  15.004 -0.7688 -0.1225 -0.2374
 6178TIP3    H240026   6.193   6.447  15.125  1.1266  1.3441 -1.0718
 6179TIP3   OH240027   3.691   0.386   0.829 -0.0113  0.1729  0.0697
 6179TIP3    H140028   3.769   0.423   0.788 -0.0744 -0.4499 -0.6342
 6179TIP3    H240029   3.679   0.437   0.909  0.5594  0.9010 -0.3016
 6180TIP3   OH240030   5.282   2.273   2.141 -0.1399  0.2694 -0.0142
 6180TIP3    H140031   5.216   2.284   2.209 -0.9903  1.6210 -1.0052
 6180TIP3    H240032   5.232   2.250   2.063  0.7758 -0.8083 -0.3139
 6181TIP3   OH240033   6.038   3.175   2.962  0.0683  0.2943 -0.1400
 6181TIP3    H140034   6.105   3.118   2.925 -1.2946  0.1338 -2.5828
 6181TIP3    H240035   5.983   3.117   3.014 -0.2716 -0.3334 -1.1585
 6182TIP3   OH240036   3.697   4.011   0.701 -0.5127 -0.1786 -0.1166
 6182TIP3    H140037   3.713   3.918   0.686 -0.7869 -0.6619  2.2021
 6182TIP3    H240038   3.602   4.019   0.708 -0.6298  0.6206 -1.9492
 6183TIP3   OH240039   1.110   5.265   0.077 -0.5699 -0.5363  0.8759
 6183TIP3    H140040   1.053   5.188   0.074  0.2843 -1.2889  2.6579
 6183TIP3    H240041   1.195   5.231   0.102  0.4187  0.7296 -0.5898
 6184TIP3   OH240042   4.060   6.764   0.705 -0.0399 -0.0093 -0.7863
 6184TIP3    H140043   4.116   6.731   0.635 -1.2446 -1.2388 -1.2244
 6184TIP3    H240044   3.972   6.736   0.679 -0.5672 -0.1036  1.0022
 6185TIP3   OH240045   2.243   1.878   0.644  0.0189  0.5827  0.8171
 6185TIP3    H140046   2.313   1.943   0.637  2.4212 -1.5172  2.9230
 6185TIP3    H240047   2.186   1.912   0.713 -0.7290  2.0133 -0.4657
 6186TIP3   OH240048   3.025   1.548  10.989 -0.0804 -0.3353 -0.5914
 6186TIP3    H140049   3.025   1.495  10.909 -0.8510 -0.2711 -0.6440
 6186TIP3    H240050   3.097   1.610  10.977 -0.1081 -0.4102 -1.1803
 6187TIP3   OH240051   6.488   6.126   2.060  0.1152  0.2713 -0.4112
 6187TIP3    H140052   6.578   6.111   2.089  0.0833  0.5062 -0.1900
 6187TIP3    H240053   6.497   6.149   1.967  0.3916  1.4423 -0.1144
 6188TIP3   OH240054   5.093   3.008   0.392  0.0166  0.0296  0.7412
 6188TIP3    H140055   5.095   2.983   0.484  1.0894  2.5743  1.5012
 6188TIP3    H240056   5.000   3.024   0.374 -0.1907 -0.4135  1.3916
 6189TIP3   OH240057   5.793   3.916  14.626  0.7696 -0.1131 -0.0235
 6189TIP3    H140058   5.715   3.861  14.628  0.7433 -0.0899 -0.3423
 6189TIP3    H240059   5.807   3.935  14.533  0.9880  0.1194  0.0548
 6190TIP3   OH240060   0.807   3.057   3.583  0.1675 -0.6304 -0.4514
 6190TIP3    H140061   0.715   3.080   3.592  0.1722 -0.4577 -0.8297
 6190TIP3    H240062   0.810   2.963   3.598  0.0325 -0.5274  0.2818
 6191TIP3   OH240063   1.861   3.874  17.050 -0.5044 -0.0178  0.1372
 6191TIP3    H140064   1.781   3.926  17.042 -0.5764 -0.1227  0.1640
 6191TIP3    H240065   1.889   3.886  17.141  2.1936  3.9102 -0.9550
 6192TIP3   OH240066   5.604   5.400   1.047  0.4619  0.2800 -0.3645
 6192TIP3    H140067   5.645   5.313   1.039 -0.4259 -0.3713  1.5264
 6192TIP3    H240068   5.565   5.400   1.135 -1.4426  1.7853 -1.1347
 6193TIP3   OH240069   3.674   5.368   1.519  0.0629 -0.1886 -0.0526
 6193TIP3    H140070   3.601   5.312   1.493  0.0351 -1.4435  2.4131
 6193TIP3    H240071   3.747   5.340   1.464 -0.6553 -0.7328 -0.7460
 6194TIP3   OH240072   1.216   2.442  16.070  0.0776 -0.2328 -0.0883
 6194TIP3    H140073   1.263   2.359  16.063  2.3669  0.9685 -0.0108
 6194TIP3    H240074   1.228   2.484  15.984  0.4038  0.6998  0.3930
 6195TIP3   OH240075   0.627   3.893   1.164  0.2087 -0.6439 -0.0024
 6195TIP3    H140076   0.630   3.843   1.083 -3.3254 -1.5995  0.2916
 6195TIP3    H240077   0.569   3.967   1.144  0.9484  0.2724  1.1038
 6196TIP3   OH240078   4.749   2.410  16.138  0.0025  0.2855  0.1097
 6196TIP3    H140079   4.674   2.465  16.162 -1.1209 -1.0313 -0.2356
 6196TIP3    H240080   4.743   2.335  16.198 -0.0882 -0.7490 -1.1409
 6197TIP3   OH240081   6.800   5.542  16.731  0.0044  0.4203  0.2295
 6197TIP3    H140082   6.849   5.473  16.686 -1.7968 -0.7934  0.0005
 6197TIP3    H240083   6.718   5.500  16.757 -0.8035  2.2606  0.8483
 6198TIP3   OH240084   6.448   0.603  14.435 -0.4882  0.1441 -0.0403
 6198TIP3    H140085   6.533   0.593  14.477  0.0450  2.1146 -0.5783
 6198TIP3    H240086   6.387   0.559  14.495  0.7386 -0.2299  0.9709
 6199TIP3   OH240087   2.078   0.467   4.317  0.3051  0.1816  0.4007
 6199TIP3    H140088   2.065   0.404   4.388  2.4956  0.1010  0.7911
 6199TIP3    H240089   2.168   0.498   4.328  0.0405  1.6755 -1.1617
 6200TIP3   OH240090   1.594   1.488   4.942 -0.3903  0.4830 -0.1114
 6200TIP3    H140091   1.547   1.408   4.918  0.3126 -0.1736  0.6270
 6200TIP3    H240092   1.539   1.528   5.010  0.7673 -1.0436  1.8181
 6201TIP3   OH240093   1.925   4.437  13.270 -0.0859  0.1295  0.2224
 6201TIP3    H140094   1.919   4.527  13.300  0.7493 -0.6238  2.9173
 6201TIP3    H240095   1.836   4.403  13.277 -0.2335  0.4943  0.0944
 6202TIP3   OH240096   5.188   3.863  16.184 -0.1673 -0.3902  0.7976
 6202TIP3    H140097   5.249   3.929  16.153 -1.8143  0.6415 -0.4522
 6202TIP3    H240098   5.172   3.886  16.276 -2.1587  2.2732 -0.0653
 6203TIP3   OH240099   0.613   3.027   1.776 -0.2244 -0.5467 -0.0249
 6203TIP3    H140100   0.697   3.070   1.791 -0.1824 -1.3260  2.4764
 6203TIP3    H240101   0.629   2.968   1.703  0.7533  0.8935 -1.0224
 6204TIP3   OH240102   3.138   0.193  14.853 -0.0122  0.5168  0.3609
 6204TIP3    H140103   3.094   0.137  14.918 -0.5481  0.9659  0.3935
 6204TIP3    H240104   3.231   0.173  14.864 -0.2905 -2.0958 -1.2174
 6205TIP3   OH240105   0.953   5.442   0.231  0.1433 -0.1919  0.6614
 6205TIP3    H140106   1.013   5.443   0.306  0.9372 -0.4837  0.0509
 6205TIP3    H240107   0.988   5.374   0.173  0.4813  1.0726 -0.6940
 6206TIP3   OH240108   5.412   1.164  15.842 -0.0585 -0.5848 -0.0657
 6206TIP3    H140109   5.365   1.081  15.838 -2.5134  0.6751  0.7153
 6206TIP3    H240110   5.344   1.229  15.859  1.8861  1.5024  0.1481
 6207TIP3   OH240111   5.671   2.083  16.222 -0.1896 -0.7909  0.8996
 6207TIP3    H140112   5.641   2.127  16.301  2.3793 -0.3532  1.7212
 6207TIP3    H240113   5.732   2.016  16.252  0.5318 -0.8958 -0.6641
 6208TIP3   OH240114   4.219   3.987   2.025 -0.0142  0.6632 -0.3751
 6208TIP3    H140115   4.145   3.961   2.080 -0.6641  0.9137 -1.0995
 6208TIP3    H240116   4.264   3.906   2.005 -0.8026  0.3418 -0.9042
 6209TIP3   OH240117   1.030   6.712   3.176 -0.1613  0.1353 -0.8159
 6209TIP3    H140118   1.060   6.665   3.098  1.0366  2.4275 -1.8308
 6209TIP3    H240119   1.111   6.740   3.220 -0.8313  0.0409  0.5170
 6210TIP3   OH240120   3.194   5.707  13.880 -0.1116  0.0564  0.0049
 6210TIP3    H140121   3.273   5.738  13.924 -0.3160  1.1113 -0.3416
 6210TIP3    H240122   3.206   5.732  13.789 -0.5466 -0.3848 -0.1772
 6211TIP3   OH240123   6.201   6.301  15.483 -0.5516  0.2665 -0.4375
 6211TIP3    H140124   6.150   6.312  15.402 -0.3151 -1.0158 -0.7750
 6211TIP3    H240125   6.137   6.313  15.553 -0.6433  1.9913 -0.7782
 6212TIP3   OH240126   3.384   1.643   2.991  0.0914  0.3486  0.0423
 6212TIP3    H140127   3.309   1.695   3.019 -1.3365 -1.2604 -0.6463
 6212TIP3    H240128   3.359   1.552   3.008  2.2362 -0.1936  0.5840
 6213TIP3   OH240129   2.813   6.603   3.772 -0.8977 -0.3983  0.5518
 6213TIP3    H140130   2.787   6.519   3.810 -1.2302 -0.5219  0.0652
 6213TIP3    H240131   2.877   6.639   3.833 -1.1447 -0.7656  1.0283
 6214TIP3   OH240132   3.936   1.701  14.883  0.2455 -0.3024 -0.5239
 6214TIP3    H140133   3.988   1.712  14.963 -0.4181 -0.8844  0.0010
 6214TIP3    H240134   3.848   1.680  14.914  0.2254 -1.6366 -1.4077
 6215TIP3   OH240135   1.700   2.023   0.487  0.5017 -0.0832  0.1365
 6215TIP3    H140136   1.748   2.001   0.567  0.2578 -0.2965  0.2264
 6215TIP3    H240137   1.704   2.118   0.481  0.6947 -0.0815  0.2939
 6216TIP3   OH240138   0.705   3.027   5.104  0.0345 -0.5410 -0.1110
 6216TIP3    H140139   0.703   3.116   5.141  0.2414 -1.1664  1.4808
 6216TIP3    H240140   0.753   3.037   5.022 -0.2806  0.8871 -0.1552
 6217TIP3   OH240141   6.384   1.691  12.722  0.4684 -0.0811  0.0684
 6217TIP3    H140142   6.300   1.736  12.716  1.0110  0.8549 -0.8097
 6217TIP3    H240143   6.363   1.599  12.702 -0.4499 -0.0143  0.6310
 6218TIP3   OH240144   6.049   3.061   3.880 -0.1676  0.0081  0.7744
 6218TIP3    H140145   6.021   3.133   3.937  1.3101  0.4141  1.0290
 6218TIP3    H240146   6.078   2.993   3.940 -1.8787 -0.9875  0.5424
 6219TIP3   OH240147   4.036   1.525   3.202  0.5845  0.7171 -0.4464
 6219TIP3    H140148   4.072   1.581   3.133 -1.4961  2.3947 -0.2864
 6219TIP3    H240149   4.078   1.555   3.282 -1.1510  2.8470 -0.2195
 6220TIP3   OH240150   0.540   3.937   0.472  0.5714  0.0544 -0.0089
 6220TIP3    H140151   0.449   3.957   0.450  0.1482 -1.4485  0.2483
 6220TIP3    H240152   0.543   3.943   0.568  0.6358 -0.2585  0.0112
 6221TIP3   OH240153   6.089   3.022  10.426 -0.2440  0.9416 -0.1188
 6221TIP3    H140154   6.146   3.069  10.486 -2.2209  1.4244  1.4825
 6221TIP3    H240155   6.109   2.929  10.441  0.4167  1.1142  0.0860
 6222TIP3   OH240156   0.518   0.510  14.351 -0.0519  0.6560 -0.0605
 6222TIP3    H140157   0.548   0.509  14.442 -1.7553  1.1969  0.5502
 6222TIP3    H240158   0.587   0.556  14.304  0.3084  1.4350  1.1736
 6223TIP3   OH240159   6.637   2.475   1.259  0.0839 -0.0297 -0.4501
 6223TIP3    H140160   6.711   2.536   1.249  0.2006 -0.3863 -1.9463
 6223TIP3    H240161   6.677   2.389   1.264 -0.1600 -0.1065  0.2887
 6224TIP3   OH240162   1.423   6.758  10.943 -0.4767  0.5042 -0.1960
 6224TIP3    H140163   1.366   6.818  10.991  0.5559  1.8289 -0.5548
 6224TIP3    H240164   1.383   6.752  10.856 -0.1580  1.3327 -0.4101
 6225TIP3   OH240165   1.982   6.593  11.301 -0.3311  0.4006  0.3712
 6225TIP3    H140166   1.952   6.525  11.241 -0.2422  0.2540  0.4901
 6225TIP3    H240167   1.952   6.675  11.262 -3.0659  0.1550  1.6910
 6226TIP3   OH240168   4.083   5.103  12.365  0.3323 -0.1978  0.4071
 6226TIP3    H140169   4.118   5.059  12.288  0.8198 -1.8403  1.5051
 6226TIP3    H240170   4.160   5.126  12.417  0.1411  2.6637 -0.4316
 6227TIP3   OH240171   2.187   3.889   0.635 -0.2568  0.2955 -0.2251
 6227TIP3    H140172   2.191   3.985   0.637 -1.1830  0.3907 -1.5478
 6227TIP3    H240173   2.258   3.861   0.692 -1.7005  1.7695  2.5315
 6228TIP3   OH240174   1.218   4.457   3.502 -0.2345 -0.2774 -0.1040
 6228TIP3    H140175   1.158   4.472   3.430  0.6218 -1.6041 -1.1406
 6228TIP3    H240176   1.276   4.387   3.471  0.8503 -0.1182  1.4477
 6229TIP3   OH240177   5.031   2.910   6.165  0.4526  0.2320 -0.5110
 6229TIP3    H140178   5.119   2.924   6.198  0.2791 -2.5055  1.4207
 6229TIP3    H240179   5.038   2.834   6.108 -0.8621 -1.0774  0.9845
 6230TIP3   OH240180   5.859   2.854   1.879 -0.3739  0.0367 -0.2778
 6230TIP3    H140181   5.777   2.890   1.846  0.4209  1.6286 -0.6345
 6230TIP3    H240182   5.893   2.801   1.807 -1.0131 -0.5152 -0.1766
 6231TIP3   OH240183   6.373   2.523  11.338  0.2100  0.2493  0.3223
 6231TIP3    H140184   6.315   2.447  11.343 -1.3989  1.4964  1.1414
 6231TIP3    H240185   6.459   2.485  11.316 -0.9641 -1.5862 -1.4298
 6232TIP3   OH240186   1.839   5.588   3.508  1.2172 -0.1272  0.0570
 6232TIP3    H140187   1.786   5.651   3.557  2.3067 -0.1045  1.2404
 6232TIP3    H240188   1.929   5.604   3.536  1.6467 -1.4692 -0.4596
 6233TIP3   OH240189   6.433   1.068  16.145  0.0069 -0.2693  0.2565
 6233TIP3    H140190   6.431   1.158  16.176 -1.0640  0.0390 -0.6820
 6233TIP3    H240191   6.472   1.073  16.058 -1.5122 -0.4878 -0.4608
 6234TIP3   OH240192   3.536   1.164   0.865  0.4534  0.4576 -0.1012
 6234TIP3    H140193   3.462   1.212   0.827 -0.6639 -1.5497 -0.6288
 6234TIP3    H240194   3.549   1.090   0.806  0.8475 -0.9358  1.6542
 6235TIP3   OH240195   3.942   6.076   0.643  0.1872  0.6595 -0.6533
 6235TIP3    H140196   3.940   6.152   0.585  0.7792  1.2619  0.0924
 6235TIP3    H240197   3.877   6.096   0.710  0.6694  0.7237 -0.2002
 6236TIP3   OH240198   0.461   4.264  11.596  0.4167  0.3483  0.0932
 6236TIP3    H140199   0.382   4.244  11.545 -0.1344 -0.8463  1.3444
 6236TIP3    H240200   0.431   4.319  11.668  1.1204  1.6870 -0.5963
 6237TIP3   OH240201   6.059   0.125   5.165 -0.3497 -0.0638  0.5723
 6237TIP3    H140202   6.032   0.197   5.223  0.5763  0.3694  0.4782
 6237TIP3    H240203   6.153   0.136   5.155 -0.2353 -1.1465  0.3397
 6238TIP3   OH240204   3.398   5.376  14.951 -0.2551 -0.4025  0.7216
 6238TIP3    H140205   3.375   5.330  14.870  0.8327 -1.2798  0.8802
 6238TIP3    H240206   3.468   5.322  14.989  0.5729  1.0284  1.2724
 6239TIP3   OH240207   1.747   2.619  14.206 -0.5174  0.0303 -0.2070
 6239TIP3    H140208   1.688   2.605  14.132  1.6091 -2.6748 -1.5356
 6239TIP3    H240209   1.693   2.665  14.271 -2.9455  0.9898 -2.7267
 6240TIP3   OH240210   4.742   6.406  12.229 -0.3501 -0.1501 -0.2072
 6240TIP3    H140211   4.685   6.343  12.184 -1.8488  2.0191 -1.5115
 6240TIP3    H240212   4.690   6.438  12.303  0.0638  0.1981 -0.0592
 6241TIP3   OH240213   5.128   3.313   2.146 -0.1420 -0.3346 -0.4036
 6241TIP3    H140214   5.131   3.221   2.172  0.6210  0.1171  1.2499
 6241TIP3    H240215   5.063   3.352   2.203 -0.3080  0.2082 -0.9505
 6242TIP3   OH240216   5.947   6.613   1.850  0.2120 -0.1582 -0.8371
 6242TIP3    H140217   5.965   6.543   1.913  3.5263  0.8396 -0.4858
 6242TIP3    H240218   5.991   6.584   1.770 -0.4466  0.4498 -1.4329
 6243TIP3   OH240219   0.930   1.272  10.679 -0.5539  0.6333  0.1654
 6243TIP3    H140220   0.839   1.302  10.689 -0.2832  1.5713 -0.0607
 6243TIP3    H240221   0.960   1.315  10.599 -0.7948 -1.9409 -1.4303
 6244TIP3   OH240222   3.864   5.325  15.133  0.2693 -0.1446  0.3959
 6244TIP3    H140223   3.956   5.311  15.157  0.5388  0.8022 -0.0728
 6244TIP3    H240224   3.826   5.366  15.211  0.4298  0.1704  0.3100
 6245TIP3   OH240225   6.012   3.276  11.842  0.4358 -0.3277  0.1916
 6245TIP3    H140226   6.064   3.355  11.857  0.1647  0.2076 -1.4788
 6245TIP3    H240227   5.984   3.283  11.751 -0.0313 -2.1110  0.1705
 6246TIP3   OH240228   4.076   0.688  14.729  0.2620 -0.9488  0.1446
 6246TIP3    H140229   3.988   0.724  14.724  0.6588 -0.0273 -0.3899
 6246TIP3    H240230   4.090   0.645  14.645 -0.2579 -2.5220  0.8253
 6247TIP3   OH240231   0.434   6.589   2.527 -0.0220 -0.1651 -0.5056
 6247TIP3    H140232   0.459   6.611   2.617 -1.4926 -2.2462  0.4945
 6247TIP3    H240233   0.339   6.601   2.525  0.0236  0.1539 -1.9073
 6248TIP3   OH240234   4.084   4.768  12.506  0.0627  0.0355 -0.1078
 6248TIP3    H140235   4.069   4.771  12.600  1.7971  0.0624  0.2112
 6248TIP3    H240236   3.999   4.788  12.467 -0.7448 -0.2074  1.4343
 6249TIP3   OH240237   1.004   2.928  13.174 -0.2884  0.1369 -0.3121
 6249TIP3    H140238   0.990   2.847  13.125  0.0453  0.5861 -1.1825
 6249TIP3    H240239   1.019   2.994  13.106 -1.1662  1.0560  0.3584
 6250TIP3   OH240240   4.461   3.455  12.648  0.1919  0.4305 -0.5405
 6250TIP3    H140241   4.437   3.395  12.719 -1.7559  0.2012 -1.3268
 6250TIP3    H240242   4.480   3.398  12.574  0.9075  0.7098 -0.5729
 6251TIP3   OH240243   6.226   5.199  15.627  0.0702  0.2570 -0.6864
 6251TIP3    H140244   6.291   5.265  15.602  1.0400 -0.0085  0.9309
 6251TIP3    H240245   6.273   5.116  15.621  0.3705  0.1728  1.7723
 6252TIP3   OH240246   5.588   4.817   1.762 -0.3458  0.1144  0.0857
 6252TIP3    H140247   5.507   4.843   1.719 -0.6643 -0.4560  0.3329
 6252TIP3    H240248   5.657   4.846   1.703 -0.7753 -0.5609 -0.7752
 6253TIP3   OH240249   1.277   1.687   3.681  0.1109 -0.4150  0.2667
 6253TIP3    H140250   1.304   1.600   3.710  0.8911  0.7258  3.2870
 6253TIP3    H240251   1.186   1.696   3.711 -0.5266 -0.6989 -1.4387
 6254TIP3   OH240252   4.801   1.482   1.015  0.4122  0.2232 -0.4455
 6254TIP3    H140253   4.827   1.520   1.099  0.9355 -0.5093 -0.2632
 6254TIP3    H240254   4.884   1.459   0.973  0.1095 -0.8024 -0.5009
 6255TIP3   OH240255   0.985   3.343  16.662  0.6350 -0.5206 -0.1142
 6255TIP3    H140256   0.890   3.335  16.663  0.5064  0.7329 -0.3885
 6255TIP3    H240257   1.005   3.380  16.576  1.3168 -0.1655  0.1914
 6256TIP3   OH240258   4.063   0.252  14.749 -0.5591 -0.7372  0.5637
 6256TIP3    H140259   4.018   0.320  14.799 -1.8120 -1.2941  0.2464
 6256TIP3    H240260   4.082   0.183  14.813  0.5776 -0.1650  0.8552
 6257TIP3   OH240261   5.762   2.296  15.281  0.3297 -0.5830 -0.3469
 6257TIP3    H140262   5.706   2.343  15.342  2.8662  0.5044  1.3158
 6257TIP3    H240263   5.713   2.217  15.260 -1.6214  0.0908  1.2856
 6258TIP3   OH240264   4.539   0.575  14.859  0.1680 -1.0029 -0.5592
 6258TIP3    H140265   4.476   0.576  14.786  0.3188 -1.6571 -0.7118
 6258TIP3    H240266   4.602   0.507  14.834  1.0208 -0.2493 -0.4744
 6259TIP3   OH240267   5.965   3.316  15.129 -0.8344 -0.0006 -0.6073
 6259TIP3    H140268   5.934   3.363  15.206  1.2008 -0.8323  0.8156
 6259TIP3    H240269   5.896   3.252  15.111 -1.7652  0.8185 -0.0658
 6260TIP3   OH240270   6.709   0.224  15.375 -0.1143  0.2710 -0.2207
 6260TIP3    H140271   6.712   0.205  15.282 -1.4129  2.8482 -0.8639
 6260TIP3    H240272   6.617   0.212  15.399  0.2681 -0.7791  0.8792
 6261TIP3   OH240273   6.794   5.111   0.845 -0.4741  0.0963 -0.1083
 6261TIP3    H140274   6.829   5.193   0.810  3.1757 -1.6102 -0.8833
 6261TIP3    H240275   6.737   5.079   0.775  2.1161 -0.4052 -2.1313
 6262TIP3   OH240276   5.836   0.057   6.371  0.6445  0.4507 -0.2780
 6262TIP3    H140277   5.843   0.110   6.450  1.0966 -1.3756  0.9672
 6262TIP3    H240278   5.750   0.079   6.335  0.3825  1.2274  0.7918
 6263TIP3   OH240279   2.952   4.636  10.785 -0.4830 -0.3629 -0.1514
 6263TIP3    H140280   2.888   4.601  10.846 -0.2529 -0.0905  0.2542
 6263TIP3    H240281   2.902   4.693  10.727 -0.7206 -0.7091 -0.2849
 6264TIP3   OH240282   2.207   0.039  15.005 -0.3492  0.3254  0.5468
 6264TIP3    H140283   2.212  -0.042  15.056  1.5249  0.2136  0.2659
 6264TIP3    H240284   2.136   0.024  14.943 -0.0409 -1.1267  0.4958
 6265TIP3   OH240285   0.458   0.044  13.880 -0.1641  0.2569  0.5477
 6265TIP3    H140286   0.474   0.039  13.974 -0.3968 -0.8683  0.5379
 6265TIP3    H240287   0.363   0.030  13.871 -0.1076  0.1254  0.1319
 6266TIP3   OH240288   3.767   6.179   0.836  0.6671  0.5242 -0.0229
 6266TIP3    H140289   3.773   6.206   0.927 -1.3360  0.5281  0.1591
 6266TIP3    H240290   3.736   6.257   0.790  2.8288  0.8884 -0.9645
 6267TIP3   OH240291   6.835   3.640   2.276 -0.2603  0.2915 -0.4119
 6267TIP3    H140292   6.882   3.722   2.287 -0.1914  0.0068  1.8038
 6267TIP3    H240293   6.903   3.575   2.257  0.6791 -0.3843  4.0855
 6268TIP3   OH240294   0.390   6.570   1.061 -0.1026 -0.1519  0.4690
 6268TIP3    H140295   0.336   6.649   1.058 -0.6190 -0.5388 -1.3361
 6268TIP3    H240296   0.469   6.597   1.107 -0.2464  1.4350 -0.1607
 6269TIP3   OH240297   5.680   6.504   1.764  0.2956  0.8296 -0.9113
 6269TIP3    H140298   5.638   6.589   1.751  2.0553  1.7845 -0.6173
 6269TIP3    H240299   5.757   6.522   1.818 -0.7310 -1.3697  1.4896
 6270TIP3   OH240300   5.646   5.982  14.762  0.1200 -0.4982  0.0770
 6270TIP3    H140301   5.628   6.064  14.717  1.1020 -1.0866 -1.4623
 6270TIP3    H240302   5.640   5.915  14.694 -3.2502 -2.1340  1.7123
 6271TIP3   OH240303   3.529   6.222  14.795  0.8617  0.3882 -0.3328
 6271TIP3    H140304   3.529   6.193  14.886  0.1198 -0.0778 -0.4710
 6271TIP3    H240305   3.488   6.308  14.798  0.1602  0.0615 -0.3085
 6272TIP3   OH240306   3.731   4.075   2.537 -0.6037  0.3670 -0.6952
 6272TIP3    H140307   3.769   4.120   2.461  0.7587  0.2868 -0.1042
 6272TIP3    H240308   3.637   4.083   2.526 -0.4248  2.8038 -0.9505
 6273TIP3   OH240309   6.563   6.434   4.358 -0.1691  0.2546 -0.1621
 6273TIP3    H140310   6.569   6.365   4.423 -0.4112 -0.0128 -0.4200
 6273TIP3    H240311   6.503   6.399   4.291 -1.3685  1.2304  0.3557
 6274TIP3   OH240312   6.624   4.007   0.200  0.1994  0.1140 -0.8794
 6274TIP3    H140313   6.555   4.073   0.193 -1.1043 -1.2714 -2.0504
 6274TIP3    H240314   6.606   3.960   0.282  0.3129  0.3431 -0.7234
 6275TIP3   OH240315   3.420   3.145  15.043 -0.3252 -0.1448 -0.6172
 6275TIP3    H140316   3.406   3.091  15.121 -2.9583 -0.3713 -1.1596
 6275TIP3    H240317   3.446   3.230  15.077 -1.7836 -0.1332  0.5517
 6276TIP3   OH240318   2.744   4.349   5.799  0.4067 -0.1600 -0.2013
 6276TIP3    H140319   2.678   4.406   5.761  0.3210  1.0318  1.6162
 6276TIP3    H240320   2.746   4.372   5.892  2.2582 -1.2739  0.0961
 6277TIP3   OH240321   3.718   5.801  16.719 -0.0455 -0.2826 -0.0280
 6277TIP3    H140322   3.624   5.809  16.702 -0.2393  1.9224  1.6406
 6277TIP3    H240323   3.757   5.877  16.676  0.8566 -0.6878  0.0564
 6278TIP3   OH240324   3.429   2.708  17.041 -0.3914  0.2977 -0.2597
 6278TIP3    H140325   3.412   2.670  16.954 -3.4634  1.2511 -0.1889
 6278TIP3    H240326   3.445   2.801  17.023  0.3031  0.2487  0.0995
 6279TIP3   OH240327   3.384   5.185   3.440  0.5653  0.0683 -0.3130
 6279TIP3    H140328   3.413   5.167   3.350 -0.6669 -0.2028 -0.6633
 6279TIP3    H240329   3.429   5.118   3.492  0.2279 -0.6368 -0.9054
 6280TIP3   OH240330   0.827   3.227  11.970 -0.3803 -0.6895  0.5445
 6280TIP3    H140331   0.832   3.295  12.037 -0.1845 -1.1298  0.9875
 6280TIP3    H240332   0.861   3.268  11.891 -0.0895 -0.3262  0.8527
 6281TIP3   OH240333   1.745   4.209  11.531  0.3546 -0.5759  0.1660
 6281TIP3    H140334   1.679   4.144  11.556  0.9379 -0.8228  1.1100
 6281TIP3    H240335   1.787   4.234  11.613  2.5244 -1.6119 -0.5389
 6282TIP3   OH240336   3.127   3.214   1.416  0.0846  0.2759  0.9395
 6282TIP3    H140337   3.202   3.219   1.476 -0.3306 -0.6709  1.5562
 6282TIP3    H240338   3.167   3.196   1.330  0.5219 -1.1012  1.4124
 6283TIP3   OH240339   1.230   5.441   4.399  0.0688  0.3624 -0.4002
 6283TIP3    H140340   1.225   5.447   4.304 -1.8092 -0.4329 -0.4000
 6283TIP3    H240341   1.166   5.374   4.422  0.9249  0.0956  1.3943
 6284TIP3   OH240342   5.425   2.369   3.083 -0.0926  0.0277  0.3196
 6284TIP3    H140343   5.439   2.286   3.129 -0.8745  0.5447  1.5449
 6284TIP3    H240344   5.343   2.356   3.036 -0.1414  0.0513  0.3972
 6285TIP3   OH240345   5.557   3.714   1.869  0.0119 -0.1169 -0.9219
 6285TIP3    H140346   5.519   3.792   1.829  0.0068 -0.2145 -1.1098
 6285TIP3    H240347   5.636   3.746   1.913 -0.1731  0.0500 -0.7073
 6286TIP3   OH240348   1.499   6.206  16.766  0.4381  0.1272 -0.3409
 6286TIP3    H140349   1.477   6.179  16.677 -0.0017  0.4652 -0.3353
 6286TIP3    H240350   1.448   6.148  16.822  1.7654 -1.0227 -0.2752
 6287TIP3   OH240351   2.798   2.075  16.851 -0.6354 -0.2711 -0.5171
 6287TIP3    H140352   2.834   2.070  16.940  2.4811  0.2939 -1.6011
 6287TIP3    H240353   2.758   1.990  16.836  0.5005 -1.0816  0.7935
 6288TIP3   OH240354   5.073   5.305   5.714 -0.0247 -0.4805  0.0230
 6288TIP3    H140355   5.132   5.231   5.728  0.0273 -0.1473  1.7449
 6288TIP3    H240356   4.987   5.273   5.743  0.1042  0.2710  1.3326
 6289TIP3   OH240357   4.773   3.162   6.644 -0.2413  0.3570  0.3059
 6289TIP3    H140358   4.801   3.078   6.608  1.8362  0.6978  0.9894
 6289TIP3    H240359   4.814   3.227   6.587 -1.9173  0.9523 -0.2835
 6290TIP3   OH240360   3.377   1.055  10.827  0.2199 -0.2455 -0.5301
 6290TIP3    H140361   3.419   1.128  10.872 -0.7128 -0.7922  1.3143
 6290TIP3    H240362   3.288   1.085  10.810 -0.0896 -0.8225 -0.0039
 6291TIP3   OH240363   0.602   6.053   0.296 -0.2375  0.5696  0.5024
 6291TIP3    H140364   0.646   6.134   0.319  2.8484 -1.0712  0.9046
 6291TIP3    H240365   0.660   6.011   0.232 -1.5437 -1.4715  0.5466
 6292TIP3   OH240366   2.958   6.377  10.389  0.1925  0.7116  0.0238
 6292TIP3    H140367   3.047   6.364  10.358 -0.1052 -1.1469 -0.1402
 6292TIP3    H240368   2.968   6.405  10.480  0.9614  2.6506 -0.6081
 6293TIP3   OH240369   3.035   2.259   5.190  0.3081  0.2405  0.9266
 6293TIP3    H140370   3.077   2.303   5.116 -0.4131  1.4226  1.1847
 6293TIP3    H240371   2.991   2.330   5.237 -1.2600 -0.8238  1.1253
 6294TIP3   OH240372   1.756   2.391   3.371  0.8289  0.4982 -0.2895
 6294TIP3    H140373   1.813   2.314   3.366  0.3231  0.0405  0.7267
 6294TIP3    H240374   1.669   2.358   3.349  0.7228  0.9181 -0.5128
 6295TIP3   OH240375   5.445   0.683  14.088 -0.0717  0.5372  0.3687
 6295TIP3    H140376   5.439   0.631  14.008 -1.7482  2.1115 -0.6128
 6295TIP3    H240377   5.534   0.671  14.119  0.3718 -0.7410 -1.3023
 6296TIP3   OH240378   4.536   5.968   1.984 -0.2542  0.2432 -0.7758
 6296TIP3    H140379   4.609   6.015   2.026  0.4117 -0.8147 -0.7217
 6296TIP3    H240380   4.557   5.876   1.995 -2.3774 -0.1446  0.5764
 6297TIP3   OH240381   5.002   4.475   4.967 -0.7509 -0.2277 -0.1185
 6297TIP3    H140382   5.033   4.523   5.044 -1.2135 -1.3166  0.7862
 6297TIP3    H240383   4.907   4.474   4.976 -0.7176 -2.6759  0.8235
 6298TIP3   OH240384   3.027   6.434  10.650  0.1071  0.8977  0.0442
 6298TIP3    H140385   3.067   6.453  10.735 -1.6446 -1.4364  1.5168
 6298TIP3    H240386   3.049   6.343  10.633  0.8226  1.4398 -2.3172
 6299TIP3   OH240387   5.371   4.351   2.517  0.0713 -0.1425 -0.2728
 6299TIP3    H140388   5.277   4.353   2.500  0.0940  0.1773 -0.3768
 6299TIP3    H240389   5.380   4.303   2.599 -0.3867  1.8284  1.0109
 6300TIP3   OH240390   2.263   2.760   2.705 -0.1217  0.5283  0.1628
 6300TIP3    H140391   2.342   2.774   2.757 -1.6216  0.9408  2.4589
 6300TIP3    H240392   2.193   2.800   2.757 -1.9884 -0.6188 -1.3621
 6301TIP3   OH240393   0.671   5.771   0.950 -0.0604  0.1412 -0.3326
 6301TIP3    H140394   0.596   5.752   1.007 -0.8226  1.6701 -0.7805
 6301TIP3    H240395   0.642   5.743   0.863  1.4653 -3.1443  0.0406
 6302TIP3   OH240396   2.516   2.934  14.916  0.0107  0.0141 -0.0966
 6302TIP3    H140397   2.431   2.974  14.933 -0.7786 -1.0552 -1.3403
 6302TIP3    H240398   2.575   3.009  14.904 -1.0894  0.8188 -0.7739
 6303TIP3   OH240399   0.598   5.852  13.702 -0.5308 -0.0704 -0.3467
 6303TIP3    H140400   0.586   5.796  13.779  0.1499 -0.1083 -0.2653
 6303TIP3    H240401   0.512   5.853  13.661 -0.4080 -1.7602 -0.7354
 6304TIP3   OH240402   0.406   2.413   1.468 -0.0903  0.5705 -0.4079
 6304TIP3    H140403   0.501   2.417   1.458  0.0594 -0.8578  0.2064
 6304TIP3    H240404   0.391   2.339   1.526 -1.4553  2.1683  1.4107
 6305TIP3   OH240405   3.631   0.885   2.330  0.0603  0.2987 -0.4669
 6305TIP3    H140406   3.700   0.819   2.339  1.9075  2.3765  1.6652
 6305TIP3    H240407   3.568   0.862   2.398 -0.2200 -0.2244 -0.8848
 6306TIP3   OH240408   3.058   4.337   3.120 -0.0124 -0.0795  0.0700
 6306TIP3    H140409   3.066   4.248   3.153 -1.0922  0.3052  1.5075
 6306TIP3    H240410   3.019   4.328   3.034  1.6223 -1.0700 -0.6132
 6307TIP3   OH240411   3.406   1.804   4.104 -0.5118  0.3779 -0.4318
 6307TIP3    H140412   3.371   1.718   4.127  3.2308 -1.1542  0.3077
 6307TIP3    H240413   3.423   1.800   4.010  1.8067 -0.6929 -0.0287
 6308TIP3   OH240414   3.365   1.419   1.116 -0.5593  0.2402  0.0735
 6308TIP3    H140415   3.385   1.510   1.095  0.4704  0.0817  0.3085
 6308TIP3    H240416   3.328   1.384   1.035 -0.7254  0.7997 -0.0968
 6309TIP3   OH240417   0.651   2.419   3.466  0.7894  0.1908  0.5938
 6309TIP3    H140418   0.555   2.413   3.464  0.8595 -2.2353  0.9035
 6309TIP3    H240419   0.675   2.441   3.376 -0.0317 -1.2852 -0.0304
 6310TIP3   OH240420   3.614   2.847  12.759 -0.0005  0.0426  0.2489
 6310TIP3    H140421   3.543   2.820  12.816 -0.0344 -0.0577  0.1573
 6310TIP3    H240422   3.653   2.922  12.804  0.6630 -0.7081  0.9514
 6311TIP3   OH240423   3.478   2.183   6.453  0.3581 -0.0715  0.5627
 6311TIP3    H140424   3.562   2.210   6.416  0.5995  1.5735  2.1764
 6311TIP3    H240425   3.454   2.254   6.513 -1.5649 -1.1087  1.1108
 6312TIP3   OH240426   1.714   4.554   1.063 -0.2579 -0.3227  0.3762
 6312TIP3    H140427   1.624   4.524   1.049 -0.5336  1.4697 -2.3181
 6312TIP3    H240428   1.761   4.528   0.984  0.6081  2.1512 -0.0040
 6313TIP3   OH240429   0.092   3.446   5.490  0.5796 -0.0297  0.3370
 6313TIP3    H140430   0.131   3.444   5.402  1.4014 -0.4133  0.7056
 6313TIP3    H240431  -0.002   3.453   5.473  0.8320  1.9434 -0.5557
 6314TIP3   OH240432   0.142   3.966  11.309  0.4476 -0.3421 -0.6018
 6314TIP3    H140433   0.091   3.897  11.268 -0.6595  0.4758 -0.6325
 6314TIP3    H240434   0.117   4.046  11.263  0.8949  0.2496  0.1557
 6315TIP3   OH240435   2.934   2.801   3.363 -0.2798 -0.3644  0.3370
 6315TIP3    H140436   3.012   2.840   3.402 -0.2715 -1.3785  1.4138
 6315TIP3    H240437   2.939   2.708   3.388 -2.3257 -0.2786  1.3222
 6316TIP3   OH240438   2.762   2.835  10.536  0.0003  0.1799  0.1950
 6316TIP3    H140439   2.718   2.916  10.559  1.5239  1.3280 -0.7596
 6316TIP3    H240440   2.712   2.767  10.581 -0.5676  1.7502  2.0641
 6317TIP3   OH240441   4.592   5.680   1.966 -0.6686  0.5012  0.2422
 6317TIP3    H140442   4.579   5.645   2.054  1.6632  1.7597  1.2000
 6317TIP3    H240443   4.556   5.614   1.908 -0.7771 -1.1625  2.0914
 6318TIP3   OH240444   3.453   5.572   3.786 -0.3579  0.0124 -0.3150
 6318TIP3    H140445   3.493   5.658   3.772 -2.2109  1.1640  1.0206
 6318TIP3    H240446   3.485   5.544   3.872 -1.1809  0.2231  0.0636
 6319TIP3   OH240447   2.331   3.329   3.738  0.2327  0.0433 -0.3385
 6319TIP3    H140448   2.337   3.252   3.681  0.1848 -0.7353  0.6801
 6319TIP3    H240449   2.247   3.370   3.715  1.0193  0.7574 -2.0500
 6320TIP3   OH240450   4.677   5.533  11.806  0.8203 -0.4810  0.0157
 6320TIP3    H140451   4.766   5.549  11.837  0.6902 -1.1475  0.7743
 6320TIP3    H240452   4.667   5.438  11.811 -0.1357 -0.3662  0.5455
 6321TIP3   OH240453   0.700   3.631  16.809 -0.1005 -0.0122 -0.3049
 6321TIP3    H140454   0.761   3.589  16.870 -1.4218 -0.0176  1.0576
 6321TIP3    H240455   0.680   3.716  16.850 -1.8928 -0.4888 -0.1098
 6322TIP3   OH240456   2.771   4.981  14.912  0.1715 -0.3201  0.3392
 6322TIP3    H140457   2.680   4.959  14.890  0.1861  0.1203 -0.1843
 6322TIP3    H240458   2.798   4.913  14.973  0.3154 -1.9651 -1.4411
 6323TIP3   OH240459   1.960   3.456  11.560  0.0983 -0.4994 -0.4033
 6323TIP3    H140460   1.993   3.384  11.506 -1.4895 -0.0021 -2.1264
 6323TIP3    H240461   1.868   3.463  11.537 -0.5526  0.0356  2.1176
 6324TIP3   OH240462   0.551   4.493  13.227  0.1745  0.3622  0.1862
 6324TIP3    H140463   0.601   4.456  13.300  0.0115  0.1367  0.1847
 6324TIP3    H240464   0.464   4.454  13.235  0.2964 -0.0422 -0.4142
 6325TIP3   OH240465   4.487   6.456  15.779 -0.0447  0.2139 -0.3842
 6325TIP3    H140466   4.523   6.505  15.853 -0.4349 -0.3547  0.1915
 6325TIP3    H240467   4.411   6.506  15.751 -0.1255  0.2183 -0.1505
 6326TIP3   OH240468   6.710   5.293  12.846 -0.4804 -0.1086  0.1118
 6326TIP3    H140469   6.768   5.326  12.778 -0.5929 -2.8425 -1.4433
 6326TIP3    H240470   6.625   5.284  12.803 -0.3864 -2.6047  0.3207
 6327TIP3   OH240471   2.658   1.304   2.427  0.2099 -0.4357  0.0667
 6327TIP3    H140472   2.701   1.389   2.435  1.1064 -1.0261  2.6905
 6327TIP3    H240473   2.727   1.246   2.393  0.5575 -0.7182  1.2165
 6328TIP3   OH240474   1.930   5.515  14.410 -0.0656  0.6417 -0.1399
 6328TIP3    H140475   1.853   5.465  14.381  0.2572 -1.1724  1.8724
 6328TIP3    H240476   2.004   5.467  14.374  0.1899  1.5284 -0.8213
 6329TIP3   OH240477   3.082   6.717   1.244  0.6672 -0.0995 -0.2994
 6329TIP3    H140478   3.022   6.647   1.218  1.0951 -0.3479 -0.6417
 6329TIP3    H240479   3.157   6.706   1.185  1.1737  0.0210  0.3145
 6330TIP3   OH240480   4.254   3.420   5.318 -0.0601  0.0173 -0.4550
 6330TIP3    H140481   4.320   3.361   5.282 -0.2044 -0.3661 -0.1103
 6330TIP3    H240482   4.189   3.429   5.249  0.4148  0.4993 -0.8437
 6331TIP3   OH240483   4.692   5.214   6.285 -0.2806 -0.0314  0.2992
 6331TIP3    H140484   4.649   5.189   6.366 -0.8576 -0.3523 -0.1062
 6331TIP3    H240485   4.644   5.169   6.216 -0.0161  0.5133 -0.2568
 6332TIP3   OH240486   3.817   5.975  11.020 -0.3786 -0.5417 -0.3115
 6332TIP3    H140487   3.766   5.935  11.090 -0.0350 -1.2363 -0.4508
 6332TIP3    H240488   3.901   5.995  11.060 -0.3248 -0.5622 -0.4128
 6333TIP3   OH240489   4.130   3.044   5.281  0.1797 -0.2467 -0.5116
 6333TIP3    H140490   4.169   3.101   5.214 -0.1988  0.2167 -0.3431
 6333TIP3    H240491   4.037   3.065   5.280  0.3623  0.9058  1.2110
 6334TIP3   OH240492   1.271   2.487   0.771  0.1997 -0.1516  0.2553
 6334TIP3    H140493   1.216   2.566   0.771 -1.6005 -1.2578  2.7913
 6334TIP3    H240494   1.209   2.415   0.759  1.7548 -1.2649 -1.5579
 6335TIP3   OH240495   0.947   1.183   0.789 -0.4214  0.0017 -0.2804
 6335TIP3    H140496   0.999   1.258   0.818 -0.1580  0.3456 -1.5718
 6335TIP3    H240497   0.880   1.220   0.732  0.3280 -0.7845 -1.7577
 6336TIP3   OH240498   2.856   4.425  12.377 -0.1928 -0.5498 -0.3091
 6336TIP3    H140499   2.898   4.502  12.339 -0.2674 -0.7646 -0.8358
 6336TIP3    H240500   2.922   4.387  12.434 -1.2556  1.9074  2.8659
 6337TIP3   OH240501   1.633   2.216  13.570  0.6718 -0.0452  0.1831
 6337TIP3    H140502   1.708   2.274  13.559  0.3943  0.3724  0.4544
 6337TIP3    H240503   1.631   2.197  13.664 -0.9196  1.8292  0.5886
 6338TIP3   OH240504   4.498   2.333  10.896 -0.0540  0.3475  0.2691
 6338TIP3    H140505   4.563   2.376  10.840 -0.8738  1.0554 -0.1502
 6338TIP3    H240506   4.448   2.277  10.837  2.1164 -2.6645  1.0553
 6339TIP3   OH240507   0.802   1.425  15.665 -0.0360  0.0900  0.3517
 6339TIP3    H140508   0.751   1.364  15.612  1.7952 -1.0413 -0.2080
 6339TIP3    H240509   0.793   1.509  15.621  0.9748 -0.6993 -1.4910
 6340TIP3   OH240510   0.609   5.209  15.197  0.3545  0.5519 -0.1309
 6340TIP3    H140511   0.659   5.130  15.177  0.8186  0.7213  0.3339
 6340TIP3    H240512   0.540   5.211  15.131 -0.2291 -0.7349  0.3905
 6341TIP3   OH240513   6.183   3.453   1.618 -0.0875 -0.0681 -0.3849
 6341TIP3    H140514   6.176   3.456   1.523 -0.5468 -0.7979 -0.3823
 6341TIP3    H240515   6.183   3.360   1.640 -0.8557  0.0931  0.3779
 6342TIP3   OH240516   2.854   2.980   4.406 -1.1425 -0.1875  0.3448
 6342TIP3    H140517   2.947   2.999   4.419 -1.3601  0.3782  1.1588
 6342TIP3    H240518   2.847   2.886   4.420 -0.5427 -0.4015 -0.6850
 6343TIP3   OH240519   3.268   3.016   0.745  0.3777 -0.6927  0.0274
 6343TIP3    H140520   3.248   2.926   0.721  1.5208 -1.2052  0.9082
 6343TIP3    H240521   3.363   3.019   0.751  0.3155  0.3281  0.8650
 6344TIP3   OH240522   5.310   4.502  14.781  0.2390  0.0202  0.4134
 6344TIP3    H140523   5.223   4.482  14.749 -0.4900  3.1987  0.0860
 6344TIP3    H240524   5.312   4.465  14.869 -0.1673 -2.9370 -0.7191
 6345TIP3   OH240525   3.382   5.329  16.498 -0.1707 -0.4117 -0.2006
 6345TIP3    H140526   3.457   5.343  16.555  1.1555 -1.5474 -1.5853
 6345TIP3    H240527   3.343   5.416  16.488 -0.7676 -0.2484  2.7482
 6346TIP3   OH240528   6.559   1.302  16.744  0.1576 -0.3448 -0.0763
 6346TIP3    H140529   6.626   1.277  16.680  0.1144  1.6173 -0.9666
 6346TIP3    H240530   6.554   1.397  16.737  1.0009  0.1574  3.7080
 6347TIP3   OH240531   2.778   5.021   2.018  0.3749  0.0584 -0.0559
 6347TIP3    H140532   2.766   4.933   2.055  0.2016 -0.4422 -1.2590
 6347TIP3    H240533   2.866   5.047   2.047  0.1068 -0.1575  0.9927
 6348TIP3   OH240534   5.546   3.896   2.745  0.4226  0.2623 -0.7763
 6348TIP3    H140535   5.492   3.833   2.697 -0.7474 -0.1297  0.9518
 6348TIP3    H240536   5.500   3.980   2.733  1.4682  0.6459 -2.3049
 6349TIP3   OH240537   6.069   2.368   0.348  0.3243  0.5657  0.2226
 6349TIP3    H140538   6.095   2.276   0.349 -0.5111  0.3184  1.1666
 6349TIP3    H240539   6.151   2.417   0.352  0.7631 -0.1464 -0.0229
 6350TIP3   OH240540   2.719   1.148  15.080  0.4153 -0.3288  0.3992
 6350TIP3    H140541   2.652   1.156  15.148 -1.7354 -2.1035 -1.3690
 6350TIP3    H240542   2.746   1.056  15.084  1.8755  0.0813  0.2701
 6351TIP3   OH240543   2.378   6.022  12.443 -0.6010 -0.3935 -0.1964
 6351TIP3    H140544   2.466   5.986  12.440 -0.1111  0.6123  1.2556
 6351TIP3    H240545   2.380   6.094  12.379 -0.4478 -0.5042 -0.3172
 6352TIP3   OH240546   4.475   1.775  12.040 -0.3443 -0.3227  0.1946
 6352TIP3    H140547   4.397   1.731  12.072 -1.4173  0.2259 -1.5150
 6352TIP3    H240548   4.534   1.704  12.014 -0.9591 -0.7451 -0.0446
 6353TIP3   OH240549   2.438   6.073  13.192  0.2732  0.5493  0.7519
 6353TIP3    H140550   2.402   6.023  13.119 -1.0230  0.3676  1.4969
 6353TIP3    H240551   2.385   6.152  13.195 -1.2213 -0.4542  2.8819
 6354TIP3   OH240552   3.741   4.721   0.240  0.0758 -0.1764 -0.3830
 6354TIP3    H140553   3.717   4.644   0.188 -1.1936  0.8784 -1.4615
 6354TIP3    H240554   3.729   4.795   0.180 -1.3022  1.0928  1.3347
 6355TIP3   OH240555   2.324   4.442  14.172  0.8043 -0.3058  0.1121
 6355TIP3    H140556   2.315   4.444  14.267  3.0853  2.2348  0.3967
 6355TIP3    H240557   2.418   4.433  14.156  0.5368 -0.0819 -1.9037
 6356TIP3   OH240558   1.190   3.885  12.944 -0.3373  0.3984  0.2910
 6356TIP3    H140559   1.145   3.860  13.024 -1.3493  0.7060 -0.1604
 6356TIP3    H240560   1.252   3.953  12.971 -0.0627 -0.1071  0.9438
 6357TIP3   OH240561   0.554   1.489  13.679  0.4907  0.0620 -0.4393
 6357TIP3    H140562   0.629   1.508  13.622  0.9433  0.6160  0.3168
 6357TIP3    H240563   0.576   1.531  13.762 -0.6676  0.2441 -0.2037
 6358TIP3   OH240564   5.000   0.395   5.595  0.0315 -0.6020  0.6102
 6358TIP3    H140565   5.036   0.308   5.612  2.0812 -0.2148 -1.2413
 6358TIP3    H240566   5.050   0.454   5.652 -1.3106 -0.5917  1.8189
 6359TIP3   OH240567   3.486   2.811  13.455 -0.1318  0.0057  0.2205
 6359TIP3    H140568   3.570   2.838  13.493 -1.3266  1.5110  1.9263
 6359TIP3    H240569   3.468   2.876  13.387 -0.6449  0.6394  0.9451
 6360TIP3   OH240570   3.547   3.988   5.186 -0.5075  0.1669 -0.1419
 6360TIP3    H140571   3.515   4.044   5.256 -1.7023 -0.0529 -0.4911
 6360TIP3    H240572   3.616   3.936   5.227 -3.7386 -2.8355  2.0842
 6361TIP3   OH240573   6.100   5.158   1.690 -0.6245  0.5493 -0.3410
 6361TIP3    H140574   6.130   5.166   1.599 -0.5138 -1.7331 -0.5457
 6361TIP3    H240575   6.005   5.169   1.684 -0.7060 -0.3531 -0.8592
 6362TIP3   OH240576   3.624   2.146  13.857 -0.1344  0.0743  0.5321
 6362TIP3    H140577   3.559   2.216  13.844  1.1622  1.6626  1.9478
 6362TIP3    H240578   3.656   2.126  13.770 -0.2131  1.6299  0.1135
 6363TIP3   OH240579   2.343   5.248  13.060 -0.2310 -0.1091  0.2475
 6363TIP3    H140580   2.265   5.214  13.105 -0.3896  1.0853  0.9001
 6363TIP3    H240581   2.309   5.287  12.979 -0.5989  2.0572  1.3777
 6364TIP3   OH240582   5.292   1.647  12.097 -0.6081 -0.2709  0.3206
 6364TIP3    H140583   5.225   1.715  12.106 -1.3475 -0.9709  0.2654
 6364TIP3    H240584   5.330   1.663  12.010 -1.6244 -0.6568 -0.2085
 6365TIP3   OH240585   0.189   3.493  10.223 -0.2947  0.0638 -0.0134
 6365TIP3    H140586   0.226   3.445  10.297 -1.7484  0.4176  0.9872
 6365TIP3    H240587   0.143   3.426  10.171  1.4108 -0.3229 -1.0889
 6366TIP3   OH240588   4.477   3.373  11.971  0.1055 -0.4877 -0.3697
 6366TIP3    H140589   4.458   3.357  11.878  4.0608 -1.5434 -1.1714
 6366TIP3    H240590   4.508   3.463  11.974 -0.5905 -0.2527  0.0932
 6367TIP3   OH240591   4.786   6.066   1.724 -0.5765  0.1941 -0.7765
 6367TIP3    H140592   4.721   6.053   1.654 -0.2707 -0.0579 -1.0135
 6367TIP3    H240593   4.734   6.099   1.798 -0.8012  1.1465 -1.3390
 6368TIP3   OH240594   6.053   4.274   5.547  0.4159 -0.2593  0.2773
 6368TIP3    H140595   6.006   4.190   5.553  0.6913 -0.4981 -0.7273
 6368TIP3    H240596   6.083   4.291   5.636 -0.3554 -0.8167  0.6559
 6369TIP3   OH240597   0.405   0.125   2.762 -0.1501  0.7184 -0.1246
 6369TIP3    H140598   0.446   0.197   2.810  0.5799 -0.0086  0.3598
 6369TIP3    H240599   0.311   0.143   2.766 -0.4097 -0.6841  3.8976
 6370TIP3   OH240600   1.874   6.551   0.829 -0.1069 -0.0310 -0.0227
 6370TIP3    H140601   1.928   6.478   0.798  1.3323  1.3279 -0.8875
 6370TIP3    H240602   1.853   6.600   0.750 -1.7231  0.0865  0.4524
 6371TIP3   OH240603   1.916   2.159   5.868 -0.8383 -0.3690 -0.1858
 6371TIP3    H140604   1.944   2.170   5.959 -0.5244 -0.3927 -0.2776
 6371TIP3    H240605   1.948   2.238   5.824 -1.1143 -0.2909 -0.2464
 6372TIP3   OH240606   6.022   1.591   1.569 -0.0650  0.3483  0.1312
 6372TIP3    H140607   6.102   1.542   1.587  0.0563  0.1315 -0.9160
 6372TIP3    H240608   5.991   1.620   1.655 -0.1421 -1.5537  0.7854
 6373TIP3   OH240609   5.883   4.768   2.461  0.2704 -0.1451  0.4998
 6373TIP3    H140610   5.890   4.734   2.550  0.3691  0.5593  0.7647
 6373TIP3    H240611   5.816   4.713   2.420  1.4032 -1.5609  0.4809
 6374TIP3   OH240612   3.123   5.097   4.844 -0.6685 -0.4328 -0.2633
 6374TIP3    H140613   3.196   5.158   4.839 -1.8658  1.1136  0.2166
 6374TIP3    H240614   3.151   5.031   4.908 -0.1696  0.8655  0.9089
 6375TIP3   OH240615   6.764   2.724   5.116 -0.0983  0.7372 -0.0793
 6375TIP3    H140616   6.858   2.745   5.113 -0.2333  1.2054 -1.1924
 6375TIP3    H240617   6.721   2.808   5.128 -0.3803  0.4892  0.7303
 6376TIP3   OH240618   5.379   1.903   3.271 -0.2937 -0.4623  0.4708
 6376TIP3    H140619   5.287   1.912   3.247 -0.1452 -1.3031 -0.4648
 6376TIP3    H240620   5.384   1.820   3.317  0.3896 -1.6905 -1.6829
 6377TIP3   OH240621   3.233   4.430  17.096 -0.5117 -0.5947  0.4330
 6377TIP3    H140622   3.190   4.411  17.180  2.0295  1.5747  2.4327
 6377TIP3    H240623   3.229   4.526  17.088  0.1595 -0.6868 -1.4516
 6378TIP3   OH240624   4.158   1.897   3.272  0.2861 -0.3902 -0.7409
 6378TIP3    H140625   4.242   1.929   3.241  1.0792 -1.3811  0.2840
 6378TIP3    H240626   4.165   1.802   3.267 -1.6430 -0.5022 -2.7801
 6379TIP3   OH240627   2.990   0.922   4.611 -0.0915  0.4533 -0.0318
 6379TIP3    H140628   3.011   0.895   4.701 -1.3256 -0.9400 -0.1129
 6379TIP3    H240629   2.920   0.863   4.585 -1.9494  2.8523 -0.8252
 6380TIP3   OH240630   5.110   3.349  12.789  0.0561 -0.1558  0.2497
 6380TIP3    H140631   5.051   3.419  12.815 -0.7122 -0.5641 -0.3355
 6380TIP3    H240632   5.085   3.274  12.843  1.6125  0.2913  1.6763
 6381TIP3   OH240633   5.789   6.177   5.100 -0.7003  0.2744  0.8926
 6381TIP3    H140634   5.761   6.263   5.068  0.2968  0.6800  1.0713
 6381TIP3    H240635   5.817   6.194   5.191 -0.7135 -0.2785  0.9987
 6382TIP3   OH240636   2.902   2.227  15.272  0.5960  0.2734  0.3559
 6382TIP3    H140637   2.937   2.232  15.183 -3.0852  1.9482 -1.2255
 6382TIP3    H240638   2.892   2.318  15.299 -0.0955 -0.1734  1.6890
 6383TIP3   OH240639   2.465   5.069  12.654  0.0774  0.1537 -0.1061
 6383TIP3    H140640   2.501   5.149  12.615  0.1644 -0.5230 -1.5003
 6383TIP3    H240641   2.477   5.081  12.748  2.3070  0.7577 -0.3976
 6384TIP3   OH240642   3.179   0.267  10.316 -0.4804 -0.6877 -0.3424
 6384TIP3    H140643   3.150   0.337  10.375 -3.7721 -1.0738 -1.3059
 6384TIP3    H240644   3.142   0.187  10.354  1.7108 -1.7270 -0.2349
 6385TIP3   OH240645   1.467   0.571  16.036 -0.2730  0.1703 -0.2789
 6385TIP3    H140646   1.469   0.486  15.993 -0.3586 -0.2043  0.4432
 6385TIP3    H240647   1.559   0.597  16.042 -0.1222 -0.5360  0.7679
 6386TIP3   OH240648   6.216   6.824  15.152  0.2231  0.1400  0.1995
 6386TIP3    H140649   6.291   6.870  15.191  1.5944 -1.2229 -0.7254
 6386TIP3    H240650   6.236   6.731  15.165 -2.0002 -0.2635  1.1432
 6387TIP3   OH240651   6.071   4.398   0.232 -0.0037  0.4445  0.8728
 6387TIP3    H140652   6.155   4.377   0.191  0.2672  2.0225  0.5569
 6387TIP3    H240653   6.086   4.481   0.276 -0.9821 -0.0242  2.1500
 6388TIP3   OH240654   3.544   4.280   1.652 -1.0524  0.0105  0.2667
 6388TIP3    H140655   3.629   4.250   1.619 -1.3740 -0.0035 -0.5876
 6388TIP3    H240656   3.559   4.371   1.679 -1.0250  0.3801 -0.9502
 6389TIP3   OH240657   4.819   1.334  12.607 -0.1560 -0.2543  0.0466
 6389TIP3    H140658   4.855   1.303  12.524 -0.2816 -2.2673  0.6957
 6389TIP3    H240659   4.725   1.315  12.601 -0.3309  0.4985  0.2742
 6390TIP3   OH240660   0.018   0.805  13.374 -0.0796 -0.0338 -0.3948
 6390TIP3    H140661   0.061   0.731  13.416 -1.4618  0.3592  1.8299
 6390TIP3    H240662   0.013   0.780  13.281  1.1839 -1.8562 -0.0267
 6391TIP3   OH240663   5.393   1.002  11.990 -0.2828  0.0316  0.1428
 6391TIP3    H140664   5.303   1.033  11.981 -0.7994 -1.5134 -0.4707
 6391TIP3    H240665   5.386   0.907  11.982  1.3620 -0.1574  0.5403
 6392TIP3   OH240666   4.148   3.102   3.839  0.7863  0.1479 -0.4734
 6392TIP3    H140667   4.109   3.077   3.755 -0.3972 -0.1844  0.1547
 6392TIP3    H240668   4.173   3.193   3.827  0.4379  0.1679 -1.1211
 6393TIP3   OH240669   3.606   0.006   2.804 -0.1214 -0.0286 -0.2811
 6393TIP3    H140670   3.555   0.083   2.827 -1.0176 -0.8941  0.7304
 6393TIP3    H240671   3.562  -0.066   2.849  0.7779 -1.1092 -1.0862
 6394TIP3   OH240672   1.134   4.106   3.492  0.0786  0.2647 -0.2774
 6394TIP3    H140673   1.168   4.034   3.438  1.6682  0.3023  0.6240
 6394TIP3    H240674   1.093   4.062   3.567  1.4415  0.2542  0.5017
 6395TIP3   OH240675   0.826   4.371   1.908 -0.8188 -0.7655 -0.0975
 6395TIP3    H140676   0.893   4.399   1.846  0.1319 -0.0132  1.2061
 6395TIP3    H240677   0.863   4.295   1.952 -0.7408 -0.2809  0.7094
 6396TIP3   OH240678   6.320   2.139   3.141 -0.3402 -0.3705  0.4495
 6396TIP3    H140679   6.327   2.082   3.065 -1.8063 -0.7513  0.5761
 6396TIP3    H240680   6.307   2.078   3.215  0.0947  0.0423  0.8765
 6397TIP3   OH240681   3.024   4.348   6.038  0.1414  0.0221  0.4937
 6397TIP3    H140682   3.102   4.386   6.078  0.2522 -0.7223  1.0006
 6397TIP3    H240683   3.022   4.384   5.950  1.4352 -0.4775  0.2417
 6398TIP3   OH240684   0.066   0.541   5.016  0.0374  0.0070  0.1759
 6398TIP3    H140685  -0.007   0.577   5.066  0.5678  1.9191 -0.3399
 6398TIP3    H240686   0.084   0.607   4.949  2.6321 -0.0989  0.6695
 6399TIP3   OH240687   3.894   4.720  11.738 -0.9625 -1.2095  0.4555
 6399TIP3    H140688   3.947   4.697  11.662  0.9886  0.5064  1.1714
 6399TIP3    H240689   3.914   4.653  11.803 -0.7325 -1.3467  0.2451
 6400TIP3   OH240690   5.618   5.870   4.336  0.1861 -0.1226 -0.5728
 6400TIP3    H140691   5.662   5.798   4.290  0.5777  0.9703 -1.9966
 6400TIP3    H240692   5.547   5.897   4.277 -0.9137 -0.2969  0.6200
 6401TIP3   OH240693   0.575   6.388  16.875 -0.0881  0.2043 -0.2269
 6401TIP3    H140694   0.485   6.393  16.908  0.1941 -0.8942  0.7775
 6401TIP3    H240695   0.624   6.449  16.929  0.1103 -0.5715  0.4863
 6402TIP3   OH240696   6.314   5.338  16.487  0.0633 -0.1422 -0.4769
 6402TIP3    H140697   6.404   5.327  16.519 -0.4257 -0.5274  0.8244
 6402TIP3    H240698   6.324   5.343  16.392  1.4262 -0.6538 -0.3985
 6403TIP3   OH240699   2.434   3.755  13.676  0.3774  0.0212  0.0685
 6403TIP3    H140700   2.394   3.712  13.752  0.7408  0.5371  0.5579
 6403TIP3    H240701   2.389   3.717  13.601  1.0299 -1.6061  0.4469
 6404TIP3   OH240702   6.220   5.994  14.281  0.1476  0.4408  0.3589
 6404TIP3    H140703   6.272   5.916  14.264  1.1200  1.1126  0.1887
 6404TIP3    H240704   6.138   5.960  14.317  1.3319 -0.6003  2.2944
 6405TIP3   OH240705   3.127   5.655  15.435  0.5685 -0.0850 -0.7051
 6405TIP3    H140706   3.078   5.590  15.385 -0.3060 -1.3931  1.6741
 6405TIP3    H240707   3.187   5.603  15.489  1.1190  1.2061 -0.0443
 6406TIP3   OH240708   6.844   1.657   3.392 -0.0162  0.2980 -0.1338
 6406TIP3    H140709   6.902   1.721   3.432  1.7432 -1.2156 -0.1338
 6406TIP3    H240710   6.867   1.658   3.299  2.1258 -2.2699  0.2559
 6407TIP3   OH240711   2.691   5.751  14.566 -0.1664  0.2332 -0.3948
 6407TIP3    H140712   2.752   5.799  14.510 -0.5909  0.8052 -0.3816
 6407TIP3    H240713   2.643   5.819  14.613  1.6446 -0.2380  2.3206
 6408TIP3   OH240714   2.787   3.287   5.398 -0.7780  0.6752  0.0905
 6408TIP3    H140715   2.859   3.292   5.461 -0.5353 -0.4608 -0.0632
 6408TIP3    H240716   2.740   3.369   5.408  0.3009  1.2633  0.4866
 6409TIP3   OH240717   6.730   3.650   4.698 -0.4462 -0.3769  0.9968
 6409TIP3    H140718   6.733   3.581   4.632 -0.5288 -0.5419  1.1645
 6409TIP3    H240719   6.640   3.681   4.696  0.1766  1.5219 -0.9099
 6410TIP3   OH240720   1.764   2.962  13.268 -0.0321 -0.5646  0.4275
 6410TIP3    H140721   1.781   2.957  13.174  0.5265 -0.6821  0.5326
 6410TIP3    H240722   1.722   2.879  13.289  1.1684 -1.1762  0.5397
 6411TIP3   OH240723   6.762   2.566  16.677  0.2962  0.6335  0.5550
 6411TIP3    H140724   6.754   2.653  16.639  1.2881  0.9680  1.0886
 6411TIP3    H240725   6.717   2.572  16.761 -1.0456  0.1624 -0.0972
 6412TIP3   OH240726   2.373   2.974  16.602  0.6024  0.0507  0.0938
 6412TIP3    H140727   2.341   2.947  16.516 -1.0339  0.4886  0.5346
 6412TIP3    H240728   2.324   2.921  16.665  0.2743  1.1717  0.8146
 6413TIP3   OH240729   0.053   1.710  14.258  0.2335  0.1606  0.5646
 6413TIP3    H140730   0.128   1.743  14.208 -0.1132 -1.2771 -0.9922
 6413TIP3    H240731  -0.010   1.783  14.256  0.6070  0.4849 -0.2899
 6414TIP3   OH240732   3.475   0.233   3.794  0.1493 -0.6084  0.0783
 6414TIP3    H140733   3.530   0.303   3.759  0.7078 -1.1693 -0.1862
 6414TIP3    H240734   3.451   0.181   3.717 -1.8345  0.3403 -0.0304
 6415TIP3   OH240735   3.090   3.867  16.850  0.2757 -0.8947 -0.2024
 6415TIP3    H140736   3.036   3.851  16.927 -0.5209  0.3314 -0.4708
 6415TIP3    H240737   3.179   3.877  16.885 -0.2359  0.8758  0.7641
 6416TIP3   OH240738   2.204   3.744   4.713 -0.5371 -0.8398  0.3178
 6416TIP3    H140739   2.168   3.804   4.648 -0.4731 -0.6786  0.4305
 6416TIP3    H240740   2.127   3.710   4.759 -0.5088  0.3047  1.2698
 6417TIP3   OH240741   4.557   3.079  13.424 -0.2569  0.2372  0.4856
 6417TIP3    H140742   4.551   3.025  13.346  2.6352  0.0348  0.3229
 6417TIP3    H240743   4.567   3.017  13.496 -0.8984  0.4772  0.7924
 6418TIP3   OH240744   4.232   3.865  13.717  0.1961  0.5742 -0.7245
 6418TIP3    H140745   4.246   3.785  13.768  0.8692  1.0450 -0.1523
 6418TIP3    H240746   4.304   3.865  13.653  2.2543  2.3930  1.4437
 6419TIP3   OH240747   4.520   2.807   2.229 -1.0737  0.0309 -0.0613
 6419TIP3    H140748   4.461   2.882   2.240 -0.4532  0.6074 -0.5601
 6419TIP3    H240749   4.494   2.769   2.145  0.3031  1.2814 -1.1147
 6420TIP3   OH240750   4.539   6.292   0.029 -0.3801  0.2507 -0.9375
 6420TIP3    H140751   4.471   6.248  -0.022  0.7297 -0.3730 -1.9071
 6420TIP3    H240752   4.621   6.254  -0.001  0.3571  0.2156  0.9671
 6421TIP3   OH240753   6.438   4.181  14.169 -0.6252  0.4449 -0.1081
 6421TIP3    H140754   6.524   4.215  14.146 -1.3391  2.5035  0.0562
 6421TIP3    H240755   6.386   4.189  14.088 -0.7056 -0.7131 -0.1880
 6422TIP3   OH240756   5.872   3.531   5.762  0.2805 -0.5011 -0.3398
 6422TIP3    H140757   5.952   3.492   5.728  1.3642  2.1196 -1.0372
 6422TIP3    H240758   5.896   3.567   5.847 -0.8195 -1.6855  0.5174
 6423TIP3   OH240759   6.217   3.356  15.681 -0.2099  0.1060  0.3215
 6423TIP3    H140760   6.139   3.322  15.637  0.7944 -1.8353 -0.0892
 6423TIP3    H240761   6.190   3.367  15.773 -1.4296  1.1504 -0.1403
 6424TIP3   OH240762   4.577   3.339   3.915 -0.0261  0.0712  0.3510
 6424TIP3    H140763   4.509   3.405   3.921 -0.1510  0.1942 -1.5450
 6424TIP3    H240764   4.547   3.280   3.845  1.7209  0.0695 -0.4668
 6425TIP3   OH240765   1.811   6.579  16.905  0.3133  0.0370 -0.6039
 6425TIP3    H140766   1.755   6.560  16.980  1.6653  1.7961  0.9438
 6425TIP3    H240767   1.887   6.522  16.917  0.6040  0.4352 -0.5354
 6426TIP3   OH240768   6.332   1.748   0.863  0.7651  0.5096 -0.2826
 6426TIP3    H140769   6.250   1.763   0.910  0.0762 -0.4672 -1.1238
 6426TIP3    H240770   6.386   1.698   0.923  0.0415 -0.4039 -0.3773
 6427TIP3   OH240771   0.364   3.671   2.850  0.1644 -0.4037  0.0151
 6427TIP3    H140772   0.383   3.742   2.911  1.0418  0.4652 -1.2048
 6427TIP3    H240773   0.311   3.609   2.900  0.0734  0.7129  1.3590
 6428TIP3   OH240774   2.181   5.338  14.373  0.0529 -1.0560 -0.1555
 6428TIP3    H140775   2.201   5.327  14.280 -0.0868 -1.7492 -0.1095
 6428TIP3    H240776   2.221   5.262  14.416  1.8299  0.2442  0.6281
 6429TIP3   OH240777   4.142   4.475   2.753  0.8030 -0.4690  0.1120
 6429TIP3    H140778   4.212   4.502   2.694  1.0166 -0.7267  0.2467
 6429TIP3    H240779   4.140   4.543   2.820 -1.5450  1.6005 -1.8422
 6430TIP3   OH240780   4.977   6.348   3.868 -0.1112  0.3776 -0.0280
 6430TIP3    H140781   4.971   6.347   3.772  2.2898 -2.1432 -0.2850
 6430TIP3    H240782   5.012   6.434   3.889  2.8202 -0.2221 -1.8552
 6431TIP3   OH240783   0.344   6.319   1.830 -0.1995 -0.1467 -0.7037
 6431TIP3    H140784   0.341   6.402   1.782  1.8579  0.7267  0.5379
 6431TIP3    H240785   0.397   6.261   1.775  0.3895  0.1654 -0.4732
 6432TIP3   OH240786   1.220   0.918   6.058  0.5242  0.0910  0.4282
 6432TIP3    H140787   1.131   0.932   6.091  0.8049  0.0594  1.2071
 6432TIP3    H240788   1.257   1.006   6.050 -0.0847  0.2205 -1.3733
 6433TIP3   OH240789   1.498   5.768   0.808 -0.2802  0.4689 -0.3940
 6433TIP3    H140790   1.553   5.755   0.885 -1.7925  0.0759  0.6492
 6433TIP3    H240791   1.557   5.805   0.743  0.9218  1.2834  1.1018
 6434TIP3   OH240792   6.157   0.426  16.376  0.1305 -0.2894  0.2227
 6434TIP3    H140793   6.108   0.425  16.458  0.9017 -2.1000  0.7195
 6434TIP3    H240794   6.209   0.346  16.378  0.8119  0.0444 -1.6667
 6435TIP3   OH240795   6.063   1.217  15.356 -0.2555  0.2073 -0.2811
 6435TIP3    H140796   6.116   1.221  15.276  0.2138 -1.0502 -0.0499
 6435TIP3    H240797   6.119   1.255  15.424 -0.7749  1.5737 -0.5896
 6436TIP3   OH240798   1.903   2.225   4.112  0.0107  0.1320  0.0413
 6436TIP3    H140799   1.881   2.140   4.150 -0.8962 -0.1613 -1.1065
 6436TIP3    H240800   1.828   2.249   4.059  1.3065  0.3996 -1.7872
 6437TIP3   OH240801   0.620   1.890  11.418 -0.6389  0.4757 -0.7264
 6437TIP3    H140802   0.695   1.843  11.381  0.7104  1.7341  0.3052
 6437TIP3    H240803   0.655   1.936  11.494 -3.0544 -1.1476  1.5535
 6438TIP3   OH240804   3.630   0.985   1.808  0.2832 -0.0077 -0.0912
 6438TIP3    H140805   3.635   0.943   1.894  2.4015  1.5933  0.6609
 6438TIP3    H240806   3.715   0.966   1.767 -0.8821 -1.1853 -2.0906
 6439TIP3   OH240807   1.128   4.685   3.716 -0.0258 -0.2609 -0.0350
 6439TIP3    H140808   1.211   4.694   3.670  0.6855 -0.1155  1.2245
 6439TIP3    H240809   1.123   4.764   3.771  0.6418 -1.8098  2.3967
 6440TIP3   OH240810   6.195   2.646   3.522 -0.2211 -0.2797  0.0035
 6440TIP3    H140811   6.135   2.599   3.581  0.4710 -0.0346  0.9345
 6440TIP3    H240812   6.222   2.723   3.572  0.4517 -0.1043 -0.6074
 6441TIP3   OH240813   4.042   4.936  14.333  0.0710 -0.0176  0.0119
 6441TIP3    H140814   3.991   5.004  14.290  0.9820  0.3096 -0.5791
 6441TIP3    H240815   4.115   4.919  14.274 -0.2994 -1.7502 -0.0015
 6442TIP3   OH240816   5.349   5.538  14.222 -0.7923  0.0772  0.0778
 6442TIP3    H140817   5.329   5.601  14.291  1.7719 -0.3109  1.2960
 6442TIP3    H240818   5.383   5.591  14.150 -3.2853  0.4632 -0.9117
 6443TIP3   OH240819   3.292   3.999   4.513  0.4060 -0.3345 -0.0245
 6443TIP3    H140820   3.347   3.921   4.511 -0.6560 -1.0987 -0.5261
 6443TIP3    H240821   3.262   4.009   4.423 -0.8879 -0.3986  0.3790
 6444TIP3   OH240822   2.535   5.379  17.101  0.0707  0.5031  0.0201
 6444TIP3    H140823   2.550   5.462  17.146 -2.2831  0.0171  1.9410
 6444TIP3    H240824   2.449   5.350  17.132  1.1070 -3.0326  0.0820
 6445TIP3   OH240825   3.697   4.592   5.089 -0.2281 -0.0690 -0.5521
 6445TIP3    H140826   3.760   4.655   5.054  0.5874 -0.2605  0.5066
 6445TIP3    H240827   3.713   4.512   5.040  1.7920 -0.7206  1.0066
 6446TIP3   OH240828   3.436   4.194   3.955 -0.6109 -0.1131  0.3780
 6446TIP3    H140829   3.356   4.200   4.007 -1.8117  2.2891 -1.5155
 6446TIP3    H240830   3.491   4.265   3.986  0.5484 -1.3421  1.2123
 6447TIP3   OH240831   6.234   0.973   3.272 -0.1184 -0.4038  0.7937
 6447TIP3    H140832   6.172   0.991   3.201  1.8528 -0.2599 -0.9996
 6447TIP3    H240833   6.251   1.059   3.310  1.3447  0.1054 -0.8578
 6448TIP3   OH240834   3.619   3.186   3.838  0.0903  0.6629 -0.4365
 6448TIP3    H140835   3.596   3.189   3.931 -0.1836  0.7421 -0.5043
 6448TIP3    H240836   3.556   3.245   3.796 -0.0253  0.3442 -0.7192
 6449TIP3   OH240837   2.383   3.698   4.938 -0.0423  0.2440  0.2682
 6449TIP3    H140838   2.378   3.773   4.997 -0.5499 -0.1434  0.7284
 6449TIP3    H240839   2.298   3.697   4.894  0.5556  0.9079 -0.9582
 6450TIP3   OH240840   1.688   5.694  14.440  0.2054  0.4324 -0.2746
 6450TIP3    H140841   1.624   5.760  14.414 -1.4394 -1.3549 -1.0259
 6450TIP3    H240842   1.688   5.631  14.367  1.4218 -0.5950  0.5734
 6451TIP3   OH240843   5.987   1.299   3.036 -0.0718  0.3625 -0.4889
 6451TIP3    H140844   5.905   1.261   3.068 -0.0282  0.2485 -0.5128
 6451TIP3    H240845   6.031   1.329   3.116 -0.2896  0.7332 -0.5035
 6452TIP3   OH240846   4.970   1.473   0.770  0.0719 -0.3492 -0.9283
 6452TIP3    H140847   4.915   1.540   0.729 -0.0068 -0.8618 -1.6857
 6452TIP3    H240848   4.947   1.392   0.724 -0.3172 -1.0335  0.4092
 6453TIP3   OH240849   0.392   4.662  13.976  0.8696 -0.2806  0.4330
 6453TIP3    H140850   0.456   4.673  14.046 -0.0090  2.0136  0.9416
 6453TIP3    H240851   0.332   4.595  14.009 -0.2146  1.5695  2.5035
 6454TIP3   OH240852   2.773   0.997   1.562  0.5482  0.7188 -0.0645
 6454TIP3    H140853   2.784   1.076   1.615 -2.3903 -0.5473  2.8047
 6454TIP3    H240854   2.783   0.925   1.624 -2.3907 -0.9282 -1.2949
 6455TIP3   OH240855   2.550   1.838   0.468  0.3659  0.0272  0.0122
 6455TIP3    H140856   2.576   1.889   0.545  0.1169 -1.8076  1.4018
 6455TIP3    H240857   2.488   1.894   0.422 -0.1354  0.8681  1.6258
 6456TIP3   OH240858   6.453   5.006  12.728  0.5255 -0.5309 -0.7047
 6456TIP3    H140859   6.415   5.082  12.685  0.1564 -0.9337 -1.1002
 6456TIP3    H240860   6.387   4.978  12.791  1.1022  0.1155  0.2248
 6457TIP3   OH240861   1.311   3.517  11.660 -0.1982 -0.0905 -0.0249
 6457TIP3    H140862   1.265   3.435  11.677 -1.7293  0.4006 -1.4298
 6457TIP3    H240863   1.290   3.537  11.568 -0.7697  2.3835  0.5666
 6458TIP3   OH240864   6.783   2.377  15.049  0.4498 -0.0724  0.0243
 6458TIP3    H140865   6.853   2.381  15.114 -0.4932  0.2155  1.0732
 6458TIP3    H240866   6.820   2.329  14.975  1.6034 -0.2948  0.7268
 6459TIP3   OH240867   3.138   1.495  17.082 -0.6773  0.2044  0.5710
 6459TIP3    H140868   3.161   1.534  16.998 -2.1323  0.4436  0.2489
 6459TIP3    H240869   3.087   1.417  17.059  0.0484 -0.4817  1.2303
 6460TIP3   OH240870   1.967   1.748   2.476  0.1378 -0.1827 -0.6756
 6460TIP3    H140871   1.899   1.757   2.409 -0.2724  0.4357 -0.1963
 6460TIP3    H240872   1.924   1.778   2.557  0.9072 -0.0277 -0.3179
 6461TIP3   OH240873   2.861   0.141  13.778 -0.0276  0.0865  0.2163
 6461TIP3    H140874   2.906   0.060  13.800  1.2900  0.4682 -0.9264
 6461TIP3    H240875   2.827   0.127  13.690 -1.8814 -0.0425  0.8996
 6462TIP3   OH240876   6.782   1.312   4.195 -0.1805 -0.4522  0.6765
 6462TIP3    H140877   6.756   1.254   4.123  0.4484 -1.1484  0.9946
 6462TIP3    H240878   6.871   1.284   4.216  0.0793  0.5477  0.9291
 6463TIP3   OH240879   0.795   4.234  16.089 -0.0413  0.2062 -0.2295
 6463TIP3    H140880   0.775   4.327  16.098 -0.5217 -0.0013  1.0464
 6463TIP3    H240881   0.719   4.189  16.125 -0.3477 -0.7267 -1.9361
 6464TIP3   OH240882   0.807   0.324  12.597 -0.1588  0.4872  0.0262
 6464TIP3    H140883   0.873   0.338  12.664  0.0331 -0.1948 -0.0243
 6464TIP3    H240884   0.793   0.411  12.559 -0.0997  0.8315  0.7835
 6465TIP3   OH240885   5.866   2.964  16.951  0.5000 -0.3225  0.8902
 6465TIP3    H140886   5.778   2.930  16.938  0.4293 -0.1399  0.8893
 6465TIP3    H240887   5.882   3.021  16.875  0.3125  0.2748  1.2864
 6466TIP3   OH240888   2.286   4.730  10.607  0.1695  0.3528  0.3951
 6466TIP3    H140889   2.326   4.816  10.589  1.0721 -0.2167 -0.4096
 6466TIP3    H240890   2.358   4.668  10.602 -0.6492 -0.5956 -0.1024
 6467TIP3   OH240891   6.258   0.144  11.765 -0.0331  0.3382  0.1788
 6467TIP3    H140892   6.315   0.211  11.803  0.7308 -0.4376  0.4316
 6467TIP3    H240893   6.179   0.191  11.739  0.1214  1.1745  1.1789
 6468TIP3   OH240894   1.693   4.909   3.104  0.1443 -0.1660 -0.4157
 6468TIP3    H140895   1.690   4.931   3.011 -0.0889  2.5109  0.1489
 6468TIP3    H240896   1.700   4.993   3.149  2.9478 -1.4500  1.9157
 6469TIP3   OH240897   2.407   4.752  14.778 -0.2002 -0.3678  0.0181
 6469TIP3    H140898   2.373   4.831  14.737 -0.4513  0.2826  1.4096
 6469TIP3    H240899   2.452   4.784  14.857 -0.7663 -1.6440  0.8934
 6470TIP3   OH240900   3.435   4.287   1.131 -0.2092  0.2911 -0.0736
 6470TIP3    H140901   3.376   4.344   1.081  2.0663  1.2646 -1.8467
 6470TIP3    H240902   3.519   4.333   1.129  0.5930 -0.8366  2.6779
 6471TIP3   OH240903   1.021   5.578  13.211  0.0613 -0.5460  0.2198
 6471TIP3    H140904   1.075   5.528  13.150  0.1104 -1.4284  0.9654
 6471TIP3    H240905   1.029   5.669  13.181  1.9440 -0.6401  0.2975
 6472TIP3   OH240906   0.146   3.582  14.902  0.2135 -0.1155  0.2241
 6472TIP3    H140907   0.061   3.579  14.946 -1.0863 -1.5970 -2.1893
 6472TIP3    H240908   0.157   3.673  14.877 -0.8303  0.0388  0.2718
 6473TIP3   OH240909   3.565   2.285  16.647 -0.3504 -0.0214  0.2722
 6473TIP3    H140910   3.485   2.251  16.606  0.1031  0.3920 -1.0072
 6473TIP3    H240911   3.589   2.219  16.711 -2.6195  0.5833  1.8961
 6474TIP3   OH240912   1.881   5.330  13.976  0.3011 -0.2777  0.4622
 6474TIP3    H140913   1.865   5.246  14.020  1.1248 -0.4318  0.4977
 6474TIP3    H240914   1.799   5.350  13.931  0.7158 -2.1480 -1.2739
 6475TIP3   OH240915   4.788   1.014  15.669  0.1255 -0.0391  0.2879
 6475TIP3    H140916   4.855   1.038  15.733  0.3351 -0.6725  0.3140
 6475TIP3    H240917   4.832   0.951  15.611 -0.7216 -1.1804  0.8609
 6476TIP3   OH240918   1.687   4.135  15.218  0.1730  0.3164  0.0170
 6476TIP3    H140919   1.690   4.190  15.139  1.3635 -1.6748 -1.4329
 6476TIP3    H240920   1.665   4.048  15.185  1.2708 -0.6995  1.8051
 6477TIP3   OH240921   4.795   2.403  15.240 -0.6032 -0.1252 -0.2314
 6477TIP3    H140922   4.787   2.466  15.312  0.3474  1.7928 -1.7070
 6477TIP3    H240923   4.886   2.375  15.243 -0.5441  0.0022 -0.6889
 6478TIP3   OH240924   1.604   6.544  12.453 -0.5696 -0.1197  0.8790
 6478TIP3    H140925   1.674   6.485  12.481 -1.0383 -0.5366  1.2125
 6478TIP3    H240926   1.563   6.572  12.535  0.1884  1.3746  0.7764
 6479TIP3   OH240927   4.851   2.583  10.586  0.1488 -0.2403 -0.1441
 6479TIP3    H140928   4.877   2.609  10.497 -2.2826  0.8379 -0.6318
 6479TIP3    H240929   4.923   2.611  10.641  2.1302 -1.7219 -1.8206
 6480TIP3   OH240930   4.895   2.035   0.412 -0.6333  0.4554  0.8279
 6480TIP3    H140931   4.893   1.944   0.442 -0.2893  0.4377  0.8027
 6480TIP3    H240932   4.808   2.050   0.375  0.0153 -0.5867 -1.2824
 6481TIP3   OH240933   1.354   6.527   1.775  0.3384  0.9967  0.1990
 6481TIP3    H140934   1.376   6.599   1.716  0.3428  0.4958 -0.4365
 6481TIP3    H240935   1.377   6.558   1.862  1.1882  1.4279 -0.1688
 6482TIP3   OH240936   5.551   2.631  11.706 -0.0454  0.3008 -0.1604
 6482TIP3    H140937   5.472   2.611  11.757  0.6137  3.1373  2.2271
 6482TIP3    H240938   5.522   2.695  11.641 -0.1351 -0.5313 -0.9696
 6483TIP3   OH240939   4.854   3.287  15.013 -0.5502 -0.2941 -0.1518
 6483TIP3    H140940   4.810   3.353  15.065 -0.6111 -0.3912 -0.0792
 6483TIP3    H240941   4.856   3.323  14.924  0.9750  0.5937  0.1938
 6484TIP3   OH240942   5.761   5.432  16.864  0.3158 -0.4914 -0.6572
 6484TIP3    H140943   5.825   5.484  16.816  0.6733 -0.0804  0.2510
 6484TIP3    H240944   5.732   5.489  16.935  1.3083 -1.7554  0.8466
 6485TIP3   OH240945   2.009   1.610  16.730 -0.3611  0.1561 -0.6786
 6485TIP3    H140946   2.043   1.539  16.675  0.7753  0.6001 -0.5703
 6485TIP3    H240947   1.967   1.566  16.803  3.0810 -0.4922  1.1057
 6486TIP3   OH240948   0.578   4.033  13.511 -0.2081  0.2021  0.5042
 6486TIP3    H140949   0.656   3.994  13.470  0.7305  2.4122  0.0585
 6486TIP3    H240950   0.532   4.075  13.439 -0.7760  0.5880  1.0851
 6487TIP3   OH240951   4.062   1.615  15.133  0.6324  0.3272 -0.3530
 6487TIP3    H140952   3.990   1.601  15.195  1.1940 -0.5046  0.1200
 6487TIP3    H240953   4.130   1.554  15.161  1.5382  1.1215 -0.7818
 6488TIP3   OH240954   5.688   5.662   1.966  0.2445  0.1559  0.3343
 6488TIP3    H140955   5.692   5.745   1.918 -1.7603  0.6321  0.8964
 6488TIP3    H240956   5.670   5.688   2.056 -0.6422 -0.8838  0.4702
 6489TIP3   OH240957   3.548   5.262  15.196 -0.2672 -0.6461 -0.5546
 6489TIP3    H140958   3.463   5.237  15.234 -1.4017 -1.1272 -3.1605
 6489TIP3    H240959   3.591   5.179  15.178  0.9100 -0.3982  0.9154
 6490TIP3   OH240960   0.587   6.395  16.354  0.3239 -0.3418 -0.7833
 6490TIP3    H140961   0.602   6.399  16.260 -1.7505  1.1119 -1.1079
 6490TIP3    H240962   0.545   6.479  16.376  1.6331 -0.2028  1.6180
 6491TIP3   OH240963   3.094   1.311   2.175 -0.1546 -0.3440 -0.0498
 6491TIP3    H140964   3.154   1.237   2.178 -0.6575 -0.7425  0.4419
 6491TIP3    H240965   3.090   1.335   2.083  0.5693 -0.4669 -0.1161
 6492TIP3   OH240966   4.928   4.183  12.941  0.7977  0.1410  0.0262
 6492TIP3    H140967   4.949   4.259  12.995 -0.3219  1.4237 -1.2489
 6492TIP3    H240968   4.850   4.209  12.892  0.3917 -1.8390 -0.4822
 6493TIP3   OH240969   3.405   4.915   3.596 -0.1204 -0.3280  1.0734
 6493TIP3    H140970   3.401   4.929   3.691 -0.4441 -1.7450  1.3000
 6493TIP3    H240971   3.357   4.833   3.583  0.2461 -0.3380 -0.2800
 6494TIP3   OH240972   4.756   1.496  13.395 -0.3752  0.1789  0.0082
 6494TIP3    H140973   4.748   1.582  13.355  3.0975  1.2014  1.1420
 6494TIP3    H240974   4.850   1.476  13.390 -0.7060 -2.4465  1.9902
 6495TIP3   OH240975   2.148   1.467  12.931  0.1858 -0.1287  0.1689
 6495TIP3    H140976   2.238   1.462  12.899 -0.0546 -0.6940 -0.4488
 6495TIP3    H240977   2.127   1.561  12.929  1.1019  0.1161  1.3138
 6496TIP3   OH240978   6.188   6.484   0.967  0.0127  0.0122  0.5384
 6496TIP3    H140979   6.123   6.415   0.954 -0.4080  0.8588 -2.4598
 6496TIP3    H240980   6.140   6.565   0.952  1.4428  0.7272 -0.3298
 6497TIP3   OH240981   6.623   2.207   4.520 -0.0763 -0.1453  0.3358
 6497TIP3    H140982   6.637   2.289   4.472 -0.6848 -0.2011  0.0491
 6497TIP3    H240983   6.574   2.232   4.598  0.1462 -0.1721  0.4835
 6498TIP3   OH240984   6.122   6.651   3.828 -0.0140  0.0105 -0.0097
 6498TIP3    H140985   6.120   6.744   3.805  0.2738  0.7118  2.4687
 6498TIP3    H240986   6.210   6.637   3.864 -0.3097 -1.0182  0.3560
 6499TIP3   OH240987   3.724   0.545   5.972 -0.2739  0.3363  0.2607
 6499TIP3    H140988   3.805   0.593   5.988  0.2193 -0.2120 -0.5086
 6499TIP3    H240989   3.753   0.455   5.954 -0.9674  0.3109 -0.8675
 6500TIP3   OH240990   2.514   3.226   2.695  0.1866 -0.3432 -0.4010
 6500TIP3    H140991   2.601   3.213   2.657  0.9027  0.9909  0.6886
 6500TIP3    H240992   2.475   3.297   2.644  1.8693  2.7570  2.2483
 6501TIP3   OH240993   6.130   6.271  16.784 -0.4314 -0.4709  0.1109
 6501TIP3    H140994   6.119   6.177  16.771 -0.2555 -0.3854 -0.7591
 6501TIP3    H240995   6.224   6.286  16.768  0.2144 -0.5702  3.1706
 6502TIP3   OH240996   5.551   6.770  16.550  0.5992 -0.7503  0.6667
 6502TIP3    H140997   5.525   6.802  16.464  2.1476 -2.0303 -0.3423
 6502TIP3    H240998   5.534   6.676  16.547  0.0175 -0.7217  2.0382
 6503TIP3   OH240999   3.450   4.659   6.608  0.2783  0.1088 -0.4244
 6503TIP3    H141000   3.424   4.706   6.528 -0.1609 -0.3878 -0.5764
 6503TIP3    H241001   3.505   4.587   6.577  0.7237  0.3540 -0.2134
 6504TIP3   OH241002   6.034   4.439   0.887  0.4790 -0.4425  0.1647
 6504TIP3    H141003   5.954   4.400   0.923  0.2986  0.9112  1.3108
 6504TIP3    H241004   6.092   4.365   0.871 -0.0687 -1.2443  1.7170
 6505TIP3   OH241005   0.913   0.217   0.769  0.5784 -0.0444  0.0589
 6505TIP3    H141006   0.847   0.155   0.801  0.6686 -0.7773 -1.1547
 6505TIP3    H241007   0.949   0.177   0.691  1.9460  0.7069  0.2758
 6506TIP3   OH241008   3.002   4.310  16.683  0.5041  0.5988  0.0340
 6506TIP3    H141009   3.060   4.320  16.759 -1.4582  4.5410  1.3351
 6506TIP3    H241010   2.951   4.232  16.702  2.6206 -0.6997  0.7735
 6507TIP3   OH241011   6.618   2.464   3.159 -0.0964 -0.6860 -0.1439
 6507TIP3    H141012   6.667   2.438   3.237 -0.0540 -1.1987 -0.3362
 6507TIP3    H241013   6.529   2.479   3.190  0.0825 -0.1667  0.1302
 6508TIP3   OH241014   3.025   2.919  12.008 -0.6486 -0.0917 -0.2042
 6508TIP3    H141015   2.987   2.837  12.040 -1.2153 -0.2497 -1.2447
 6508TIP3    H241016   2.993   2.985  12.069 -1.3537 -0.4435 -0.1851
 6509TIP3   OH241017   1.262   2.294  11.154 -0.2093  0.0521 -0.3471
 6509TIP3    H141018   1.229   2.205  11.161 -0.5758  0.2008 -0.1167
 6509TIP3    H241019   1.291   2.303  11.063  0.4781 -0.5196 -0.1878
 6510TIP3   OH241020   2.550   6.800   5.512  0.7029  0.1080 -0.3910
 6510TIP3    H141021   2.600   6.718   5.509  1.6002  0.5937  0.4967
 6510TIP3    H241022   2.551   6.832   5.422 -1.0696 -1.6339 -1.1145
 6511TIP3   OH241023   1.101   5.975   3.679  0.0839  0.3174 -0.0091
 6511TIP3    H141024   1.188   6.011   3.662 -0.0352  0.8057  0.3770
 6511TIP3    H241025   1.086   5.990   3.772  0.8613 -2.6287  0.6936
 6512TIP3   OH241026   3.891   2.326   5.799  0.2780 -0.2587 -0.4454
 6512TIP3    H141027   3.980   2.298   5.820  0.8145  0.2530 -1.9133
 6512TIP3    H241028   3.835   2.263   5.844  1.3991 -1.6084 -0.8757
 6513TIP3   OH241029   4.928   4.044  14.796  0.1305  0.3196 -0.2618
 6513TIP3    H141030   4.953   3.994  14.874 -1.1447 -3.1280 -1.9028
 6513TIP3    H241031   5.009   4.053  14.746  0.3942  0.0491  0.1163
 6514TIP3   OH241032   6.100   4.683   5.143  0.8039 -0.2725 -0.1088
 6514TIP3    H141033   6.125   4.706   5.053 -1.4753 -1.0757 -1.0165
 6514TIP3    H241034   6.177   4.638   5.178  1.3776 -0.8674 -2.0207
 6515TIP3   OH241035   5.534   5.298  14.266  0.0552 -0.0429 -0.5564
 6515TIP3    H141036   5.509   5.285  14.175  1.6047  4.0322 -1.7829
 6515TIP3    H241037   5.490   5.380  14.292 -0.5497 -1.2009  2.5110
 6516TIP3   OH241038   5.550   4.757   1.376 -0.0972 -0.4269  0.3648
 6516TIP3    H141039   5.476   4.808   1.345  0.1160  0.8015  1.7964
 6516TIP3    H241040   5.511   4.675   1.407 -0.5320 -0.8335 -1.1514
 6517TIP3   OH241041   3.083   1.101  13.867  0.0619  0.1110  0.1607
 6517TIP3    H141042   3.174   1.072  13.864  0.2761  0.5703  1.3746
 6517TIP3    H241043   3.064   1.130  13.778  0.8840 -0.6234 -0.2718
 6518TIP3   OH241044   4.724   5.464  16.133  0.0928 -0.4179  0.1338
 6518TIP3    H141045   4.728   5.492  16.225  0.0760  0.9386 -0.2490
 6518TIP3    H241046   4.654   5.517  16.096  2.2800  1.5486 -1.4528
 6519TIP3   OH241047   2.800   3.531  15.535  0.0649  0.1442  0.1248
 6519TIP3    H141048   2.881   3.528  15.484 -0.3506  0.7501 -0.6067
 6519TIP3    H241049   2.827   3.515  15.625  0.9833  0.2514 -0.1218
 6520TIP3   OH241050   5.289   3.888   5.661  0.1342  0.2548 -0.1645
 6520TIP3    H141051   5.332   3.836   5.729  1.6019  0.4737 -0.8597
 6520TIP3    H241052   5.234   3.825   5.614 -1.6899  0.3109  1.8011
 6521TIP3   OH241053   2.596   2.567   2.144 -0.2072  0.6555  0.0773
 6521TIP3    H141054   2.592   2.596   2.235 -2.0001  0.8006 -0.0027
 6521TIP3    H241055   2.658   2.627   2.102  0.6917  0.5441  1.1931
 6522TIP3   OH241056   5.540   4.197   1.192 -0.2292  0.2363 -0.2742
 6522TIP3    H141057   5.504   4.212   1.280 -0.2274 -1.0467 -0.0384
 6522TIP3    H241058   5.632   4.221   1.200  0.5365 -2.6391  0.9477
 6523TIP3   OH241059   3.380   0.282   0.925 -0.5035  0.0855  0.1133
 6523TIP3    H141060   3.442   0.237   0.982 -1.3131  0.0803  1.0084
 6523TIP3    H241061   3.422   0.366   0.906  0.5109 -0.5683 -0.6613
 6524TIP3   OH241062   1.279   1.515  11.353 -0.3108 -0.4803 -0.1514
 6524TIP3    H141063   1.206   1.508  11.414  0.3614 -0.1063  0.7163
 6524TIP3    H241064   1.356   1.498  11.406  0.3847  1.0319 -0.6296
 6525TIP3   OH241065   0.281   3.497   2.180  0.1696 -0.0737  0.4924
 6525TIP3    H141066   0.250   3.580   2.143 -0.3515  0.2921  1.6674
 6525TIP3    H241067   0.346   3.465   2.118  0.3917  1.2258  0.0202
 6526TIP3   OH241068   0.566   3.531  13.895  0.5683  0.5498  0.3774
 6526TIP3    H141069   0.659   3.553  13.902  0.5106  0.6598  0.7907
 6526TIP3    H241070   0.522   3.592  13.954  0.4937 -1.2283  2.2481
 6527TIP3   OH241071   4.169   4.888   5.642  0.4053  0.1778 -0.4312
 6527TIP3    H141072   4.142   4.964   5.591 -0.5983 -0.6430 -1.1556
 6527TIP3    H241073   4.096   4.871   5.701  1.0308  0.3512  0.4086
 6528TIP3   OH241074   6.752   1.988  12.114  0.0617  0.5696 -0.1673
 6528TIP3    H141075   6.767   2.038  12.034  0.7485  0.0610 -0.3598
 6528TIP3    H241076   6.666   2.018  12.144  0.9816  2.8341  0.4433
 6529TIP3   OH241077   6.578   2.510  14.036 -0.3028 -0.1624 -0.0265
 6529TIP3    H141078   6.515   2.522  13.965  1.6143  2.0430 -1.5386
 6529TIP3    H241079   6.593   2.599  14.070  1.1918 -0.7572  0.9806
 6530TIP3   OH241080   4.968   6.581  14.419 -0.1698  0.3307  0.8182
 6530TIP3    H141081   4.991   6.492  14.444  1.3820  0.1329 -1.0967
 6530TIP3    H241082   4.877   6.591  14.449 -1.7030 -3.1502 -1.8788
 6531TIP3   OH241083   6.233   2.656   3.028  0.0970  0.8949 -0.0013
 6531TIP3    H141084   6.215   2.570   2.990 -1.7753  1.4919 -0.5621
 6531TIP3    H241085   6.271   2.636   3.114 -0.7953 -0.5062  0.1112
 6532TIP3   OH241086   4.309   6.294   3.889  0.1532 -0.6340 -0.6970
 6532TIP3    H141087   4.267   6.216   3.854 -2.5021  0.3795  0.0262
 6532TIP3    H241088   4.280   6.365   3.832  0.4192  0.1910  0.1581
 6533TIP3   OH241089   1.245   1.437   0.368  0.1843  0.1564  0.3846
 6533TIP3    H141090   1.215   1.408   0.282  1.1041  0.5126 -0.0673
 6533TIP3    H241091   1.238   1.359   0.423  1.9818 -0.7861 -0.6485
 6534TIP3   OH241092   0.312   6.854   4.974  0.1843  0.0903 -0.5414
 6534TIP3    H141093   0.286   6.909   5.048  0.3842  0.3832 -0.6881
 6534TIP3    H241094   0.292   6.907   4.897  1.8441  0.6016 -0.6443
 6535TIP3   OH241095   2.494   6.257  15.808 -0.3472  0.1380  0.5421
 6535TIP3    H141096   2.405   6.283  15.831 -1.0027 -1.4361 -0.0626
 6535TIP3    H241097   2.549   6.328  15.840 -1.7571  0.8414  1.5001
 6536TIP3   OH241098   6.384   3.650   0.458  0.0892 -0.1560 -0.2344
 6536TIP3    H141099   6.344   3.611   0.535  2.3829  0.0496  1.1617
 6536TIP3    H241100   6.432   3.578   0.416 -0.5094 -0.0974 -1.0318
 6537TIP3   OH241101   4.554   6.833  11.429  0.4527 -0.0783  0.4334
 6537TIP3    H141102   4.577   6.824  11.521 -0.0715  3.5113  1.0437
 6537TIP3    H241103   4.475   6.886  11.428 -0.5943 -1.4767 -2.0858
 6538TIP3   OH241104   3.567   1.335  15.176  0.0657  0.4035  0.4982
 6538TIP3    H141105   3.569   1.421  15.218  1.3384  0.4120  0.4515
 6538TIP3    H241106   3.475   1.323  15.150 -0.2823  1.3880  1.2255
 6539TIP3   OH241107   4.359   2.518   3.042  0.3909 -0.2634  0.4256
 6539TIP3    H141108   4.377   2.552   2.954  0.2966  0.3752  0.6501
 6539TIP3    H241109   4.399   2.583   3.100 -0.1031 -0.3574  0.8673
 6540TIP3   OH241110   6.189   0.773  11.013 -0.0618 -0.3369 -0.2404
 6540TIP3    H141111   6.135   0.698  11.039 -0.0547 -0.2668 -0.0282
 6540TIP3    H241112   6.220   0.750  10.925 -0.9130 -0.1209 -0.6096
 6541TIP3   OH241113   4.560   1.407  12.998  0.3280 -0.1178 -0.1169
 6541TIP3    H141114   4.568   1.501  12.988 -0.3528 -0.0688 -0.2793
 6541TIP3    H241115   4.642   1.371  12.964  0.4985  0.3983 -0.2529
 6542TIP3   OH241116   2.212   2.174   5.793  0.5636 -0.0307 -0.5869
 6542TIP3    H141117   2.219   2.177   5.698 -1.3982  1.1638 -0.7358
 6542TIP3    H241118   2.230   2.082   5.816  0.6690 -0.4131 -2.1131
 6543TIP3   OH241119   4.103   1.970   3.907  0.1474 -0.5732  0.1786
 6543TIP3    H141120   4.116   1.877   3.927 -0.2265 -0.4096  1.2593
 6543TIP3    H241121   4.009   1.979   3.892  0.0037 -0.1799  1.2262
 6544TIP3   OH241122   6.714   3.779   3.862 -0.3274 -0.5564 -1.2972
 6544TIP3    H141123   6.762   3.831   3.797  1.5077 -0.9971 -0.3499
 6544TIP3    H241124   6.718   3.689   3.828  1.8334 -1.0155  0.0318
 6545TIP3   OH241125   5.890   6.787   1.231  0.1871  0.6187  0.3730
 6545TIP3    H141126   5.845   6.871   1.218 -0.6792 -0.0004 -0.7641
 6545TIP3    H241127   5.854   6.753   1.313 -1.2755  0.2579 -0.3867
 6546TIP3   OH241128   5.049   3.199  11.902 -0.1374 -0.0703 -0.0662
 6546TIP3    H141129   5.084   3.135  11.963  0.1065  0.2908  0.1710
 6546TIP3    H241130   4.997   3.259  11.956  1.3377  1.1649  0.0299
 6547TIP3   OH241131   5.779   3.783   2.006 -0.5830  0.2606  0.6309
 6547TIP3    H141132   5.827   3.865   2.010  1.5166 -0.9691  2.5402
 6547TIP3    H241133   5.741   3.773   2.093 -2.2945 -0.0060 -0.1066
 6548TIP3   OH241134   1.309   1.260  15.297  0.0677  0.2373  0.2370
 6548TIP3    H141135   1.327   1.270  15.391 -0.8920 -0.9632  0.5722
 6548TIP3    H241136   1.306   1.350  15.264  0.4529  0.6800  1.3483
 6549TIP3   OH241137   5.434   0.161  13.816 -0.2051  0.0900 -0.3282
 6549TIP3    H141138   5.435   0.217  13.894 -1.0786  0.1017 -0.3158
 6549TIP3    H241139   5.419   0.221  13.743 -3.7547 -0.3047 -0.0898
 6550TIP3   OH241140   2.213   3.525   3.191 -0.3591 -0.3550  0.4399
 6550TIP3    H141141   2.223   3.494   3.281 -0.2447  0.5825  0.7612
 6550TIP3    H241142   2.140   3.475   3.156  0.2800 -1.4915  0.7042
 6551TIP3   OH241143   6.230   6.587  12.966 -0.3025  0.6944 -0.3361
 6551TIP3    H141144   6.208   6.611  13.056  0.9686  0.0659  0.1727
 6551TIP3    H241145   6.245   6.671  12.922 -2.2529  1.0705 -0.3513
 6552TIP3   OH241146   3.743   2.339   3.825  0.5132  0.0950  0.3830
 6552TIP3    H141147   3.713   2.258   3.866 -0.9024  1.9867  3.4600
 6552TIP3    H241148   3.817   2.367   3.879 -0.3114  1.8281  0.6946
 6553TIP3   OH241149   1.292   2.963   4.037 -0.4100 -0.2228 -0.6063
 6553TIP3    H141150   1.375   2.954   3.988  1.6122  0.6517  2.3804
 6553TIP3    H241151   1.281   3.058   4.047  0.8479 -0.3281  2.9223
 6554TIP3   OH241152   1.959   5.341  11.769  0.5025 -0.6568 -0.1961
 6554TIP3    H141153   1.934   5.250  11.783 -0.0343 -0.3385  1.0896
 6554TIP3    H241154   1.876   5.389  11.772  0.6681 -0.2170 -1.8470
 6555TIP3   OH241155   5.593   0.065   5.091  0.1101  0.0308  0.0090
 6555TIP3    H141156   5.677   0.094   5.053 -0.8334 -0.0393 -2.3353
 6555TIP3    H241157   5.594   0.099   5.180  1.4846  2.3857 -0.7987
 6556TIP3   OH241158   0.997   1.035   2.902  0.6782  0.1205  0.2876
 6556TIP3    H141159   0.987   0.939   2.904  0.3718  0.1353 -0.4456
 6556TIP3    H241160   0.910   1.068   2.883  0.5591  0.6104  1.5871
 6557TIP3   OH241161   6.839   0.698   3.242  0.4022 -0.5263  0.5600
 6557TIP3    H141162   6.845   0.740   3.328 -0.1403  0.7996 -0.0171
 6557TIP3    H241163   6.758   0.647   3.246 -0.6444  1.0371  0.2458
 6558TIP3   OH241164   6.772   3.886  16.776 -0.3739  0.1354 -0.9775
 6558TIP3    H141165   6.714   3.959  16.757 -0.5008 -0.1816 -1.8438
 6558TIP3    H241166   6.780   3.886  16.872 -1.2302  0.6097 -0.8958
 6559TIP3   OH241167   3.535   0.275  16.637 -0.7404 -0.1480 -0.1058
 6559TIP3    H141168   3.556   0.353  16.688  0.7536  0.2107 -1.1886
 6559TIP3    H241169   3.487   0.308  16.561 -0.6616 -0.3431 -0.2429
 6560TIP3   OH241170   6.576   2.544   4.994  0.3896 -0.3082 -0.0188
 6560TIP3    H141171   6.625   2.621   5.023  1.2839 -1.0340  0.4600
 6560TIP3    H241172   6.586   2.481   5.066  0.5745 -1.2492 -0.8450
 6561TIP3   OH241173   4.650   4.633  16.515 -0.0983  0.2941  0.2469
 6561TIP3    H141174   4.624   4.627  16.608  0.4960  2.0798  0.5657
 6561TIP3    H241175   4.739   4.669  16.518  0.7287 -1.5257 -0.9826
 6562TIP3   OH241176   3.988   5.939  15.360 -0.2298  0.1729 -0.1352
 6562TIP3    H141177   3.958   6.008  15.419 -0.0700  0.4444 -0.3676
 6562TIP3    H241178   4.036   5.985  15.291  0.3714 -0.2168  0.0112
 6563TIP3   OH241179   1.920   1.744   5.590 -0.0374 -0.1610  0.3690
 6563TIP3    H141180   1.902   1.834   5.564  1.1971 -0.2184 -0.8172
 6563TIP3    H241181   2.014   1.743   5.608 -0.3322 -0.8338  2.0971
 6564TIP3   OH241182   1.029   3.770   4.702  0.2281  0.5134 -0.3128
 6564TIP3    H141183   1.038   3.730   4.789  1.3349  0.2792 -0.5122
 6564TIP3    H241184   0.979   3.850   4.717 -1.5767 -0.6584  0.1806
 6565TIP3   OH241185   4.327   3.919   2.920  0.3704  0.0789  0.1267
 6565TIP3    H141186   4.317   3.924   3.015  1.6995  0.1531  0.2818
 6565TIP3    H241187   4.319   3.826   2.899 -0.7190  0.1486  0.2055
 6566TIP3   OH241188   1.414   5.818   3.691  0.2661  0.3344  0.1946
 6566TIP3    H141189   1.400   5.820   3.786  1.7868 -1.1404  0.4949
 6566TIP3    H241190   1.409   5.909   3.664 -1.4809  0.6617  1.4761
 6567TIP3   OH241191   0.656   0.138  16.698 -0.0977  0.3152 -0.1323
 6567TIP3    H141192   0.688   0.051  16.674  1.0903  0.6836  0.0677
 6567TIP3    H241193   0.730   0.197  16.682 -0.8995  1.3088 -0.3194
 6568TIP3   OH241194   0.273   4.122   0.423 -0.5514 -0.4278 -0.7982
 6568TIP3    H141195   0.299   4.214   0.415 -0.9035 -0.4823 -3.6817
 6568TIP3    H241196   0.183   4.120   0.391 -0.0504 -1.9848 -2.2224
 6569TIP3   OH241197   1.341   1.135   2.590 -0.2789  0.0778  0.6023
 6569TIP3    H141198   1.250   1.118   2.565  0.2300 -1.7474 -0.1179
 6569TIP3    H241199   1.350   1.094   2.676 -0.2134  0.5887  0.8475
 6570TIP3   OH241200   3.752   4.683   2.217 -0.1517  0.2955 -0.5215
 6570TIP3    H141201   3.684   4.734   2.174  0.2525  0.7968 -0.5731
 6570TIP3    H241202   3.816   4.748   2.247 -0.1501 -0.0857  0.3476
 6571TIP3   OH241203   0.552   1.587  15.913  0.5544  0.0661 -0.3380
 6571TIP3    H141204   0.570   1.626  15.998 -1.2337 -0.3874  0.2802
 6571TIP3    H241205   0.602   1.505  15.913  1.3593  0.5458 -0.1545
 6572TIP3   OH241206   0.337   6.183  14.409 -0.1654  0.2362 -0.2746
 6572TIP3    H141207   0.242   6.188  14.401 -0.4423 -1.7339  1.1540
 6572TIP3    H241208   0.362   6.109  14.353  0.3977  0.0766  0.1804
 6573TIP3   OH241209   3.054   1.839   3.919  0.6188 -0.2165  0.1335
 6573TIP3    H141210   3.081   1.918   3.966  1.0110 -0.6808  0.7081
 6573TIP3    H241211   3.101   1.843   3.836 -2.0346  1.9436 -1.4431
 6574TIP3   OH241212   0.080   5.715  12.691  0.2673 -0.0621  0.2428
 6574TIP3    H141213   0.086   5.631  12.736 -0.5568  0.2240  0.9103
 6574TIP3    H241214   0.072   5.691  12.598 -1.7360 -0.8135  0.5597
 6575TIP3   OH241215   6.445   3.314   1.246  0.5025 -0.1957 -0.5272
 6575TIP3    H141216   6.435   3.325   1.341 -0.5908 -0.7885 -0.5480
 6575TIP3    H241217   6.529   3.271   1.236  0.4389 -0.5217  0.2181
 6576TIP3   OH241218   0.452   2.619  16.467  0.0210  0.3883 -0.5158
 6576TIP3    H141219   0.478   2.532  16.497 -0.3552 -0.0864 -1.5286
 6576TIP3    H241220   0.396   2.653  16.537  1.4271  0.4744  0.6049
 6577TIP3   OH241221   4.109   5.999  11.357 -0.5682  0.0365 -0.4981
 6577TIP3    H141222   4.026   6.020  11.399  0.3643  4.0693 -0.2475
 6577TIP3    H241223   4.100   6.034  11.268  0.1890 -1.2576 -1.1073
 6578TIP3   OH241224   6.206   3.782   3.864  0.3508  0.5777 -0.3220
 6578TIP3    H141225   6.215   3.745   3.776 -0.3556  0.4653 -0.3539
 6578TIP3    H241226   6.253   3.721   3.921 -0.2642 -0.0471 -0.4606
 6579TIP3   OH241227   0.838   1.497  15.306  0.6862  0.1737 -0.2881
 6579TIP3    H141228   0.878   1.530  15.387  0.8606 -1.6399  0.4222
 6579TIP3    H241229   0.745   1.517  15.315  0.7157  0.0385  0.3500
 6580TIP3   OH241230   4.815   2.092  14.066 -0.4334  0.1002 -0.0897
 6580TIP3    H141231   4.783   2.182  14.064 -1.9969 -0.3140  2.4541
 6580TIP3    H241232   4.847   2.080  14.155  1.0605 -1.4843 -0.7785
 6581TIP3   OH241233   0.144   0.045   5.856  0.6551 -0.3637 -0.4390
 6581TIP3    H141234   0.055   0.030   5.825 -0.2046  0.7619  1.2866
 6581TIP3    H241235   0.163   0.136   5.831  0.9586 -0.3094 -0.0205
 6582TIP3   OH241236   6.397   4.387  12.302  0.0912 -0.3278 -0.1066
 6582TIP3    H141237   6.410   4.452  12.233 -2.4668 -0.6254 -0.9932
 6582TIP3    H241238   6.381   4.305  12.255  1.9885 -1.3869  0.9731
 6583TIP3   OH241239   3.961   0.110  16.447 -0.2158 -0.0796  0.0006
 6583TIP3    H141240   4.034   0.056  16.418  0.4589  1.1998 -0.8218
 6583TIP3    H241241   4.002   0.194  16.471 -1.3087  0.3626  0.3579
 6584TIP3   OH241242   5.540   5.234  16.903  0.3649  0.2806  0.4605
 6584TIP3    H141243   5.585   5.311  16.869  0.2809 -0.3372 -1.1049
 6584TIP3    H241244   5.542   5.171  16.831  0.5240 -1.2292  1.7223
 6585TIP3   OH241245   6.158   5.265   1.370  0.2002  0.0201  0.0689
 6585TIP3    H141246   6.208   5.253   1.290 -0.5138 -0.3072 -0.3401
 6585TIP3    H241247   6.098   5.190   1.372 -0.1258  0.2915  0.6458
 6586TIP3   OH241248   3.692   3.650   1.239  0.2407  0.0206  0.1403
 6586TIP3    H141249   3.718   3.676   1.327  0.7289 -0.6995  0.2134
 6586TIP3    H241250   3.718   3.558   1.232  2.1077  0.6054 -1.4753
 6587TIP3   OH241251   6.065   0.025  13.678  0.6904 -0.2743 -0.4962
 6587TIP3    H141252   6.064  -0.044  13.612  0.8693  0.7987 -1.6627
 6587TIP3    H241253   6.025  -0.015  13.755  0.5441 -1.5850 -1.2211
 6588TIP3   OH241254   4.158   1.100  14.176  0.4198 -0.0947 -0.5269
 6588TIP3    H141255   4.171   1.181  14.126  0.9768  0.3087  0.2516
 6588TIP3    H241256   4.092   1.051  14.126  0.3757  0.6562 -1.2216
 6589TIP3   OH241257   2.904   3.508   2.295 -0.0059 -0.0060  0.5771
 6589TIP3    H141258   2.820   3.543   2.265  1.1552  1.3150 -1.3786
 6589TIP3    H241259   2.968   3.576   2.272  1.7612 -1.4671  0.9047
 6590TIP3   OH241260   2.804   0.015  10.456 -0.1727 -0.4369  0.0214
 6590TIP3    H141261   2.895   0.011  10.428  0.3047 -0.0174  1.4416
 6590TIP3    H241262   2.799   0.093  10.511 -0.7383 -1.8995  2.1482
 6591TIP3   OH241263   1.916   1.096   5.740 -0.2854 -0.2631  1.1319
 6591TIP3    H141264   1.946   1.007   5.758  0.7437 -0.2035 -0.1749
 6591TIP3    H241265   1.894   1.096   5.647  0.9044  1.1673  0.8256
 6592TIP3   OH241266   2.838   3.247   0.835 -0.2817  0.3626  0.2798
 6592TIP3    H141267   2.863   3.303   0.761 -0.3066 -1.8003 -1.4495
 6592TIP3    H241268   2.765   3.195   0.803  0.3439 -1.3440  1.4723
 6593TIP3   OH241269   1.707   1.797  14.858  0.2701  0.4909  0.4347
 6593TIP3    H141270   1.626   1.844  14.877  0.1268  0.2302  0.4692
 6593TIP3    H241271   1.766   1.864  14.823 -0.5970  0.3469 -1.4350
 6594TIP3   OH241272   4.077   1.319   2.396 -0.0179 -0.5174  0.3226
 6594TIP3    H141273   4.017   1.315   2.470 -1.1956  1.3699 -0.4349
 6594TIP3    H241274   4.042   1.390   2.341  3.6166  1.6365  0.4763
 6595TIP3   OH241275   0.125   2.792  15.331  0.4717 -0.2645  0.2115
 6595TIP3    H141276   0.184   2.838  15.271 -0.3667  0.2430 -0.2416
 6595TIP3    H241277   0.051   2.767  15.276 -0.4041  0.3696  1.0698
 6596TIP3   OH241278   3.091   1.423  10.733  0.0083  0.0690 -0.0172
 6596TIP3    H141279   3.088   1.328  10.741  0.2311 -0.1500 -1.9711
 6596TIP3    H241280   3.172   1.440  10.685 -0.7569  1.1018 -0.9972
 6597TIP3   OH241281   2.483   2.293   1.630  0.2693  0.1041  0.0965
 6597TIP3    H141282   2.468   2.377   1.586 -0.9518  0.0498  0.3589
 6597TIP3    H241283   2.410   2.238   1.602  1.6898 -1.3001 -1.0158
 6598TIP3   OH241284   0.222   2.969  12.248  0.2105 -0.0516  0.3274
 6598TIP3    H141285   0.263   3.050  12.219  1.9250 -0.8955  0.3169
 6598TIP3    H241286   0.158   2.948  12.179  1.7842 -0.2040 -1.1370
 6599TIP3   OH241287   4.381   5.162  10.807  0.4204  0.1010 -0.3445
 6599TIP3    H141288   4.326   5.100  10.856  0.5149 -0.6694 -1.1999
 6599TIP3    H241289   4.320   5.229  10.777  0.1250 -0.1900 -0.3993
 6600TIP3   OH241290   4.074   3.039  11.508  0.7878 -0.0638 -0.2647
 6600TIP3    H141291   4.019   2.982  11.454  0.3706 -0.7249  0.8276
 6600TIP3    H241292   4.022   3.119  11.520  0.4148 -0.3532  0.0631
 6601TIP3   OH241293   6.573   2.723  15.421  0.4628 -0.0415  0.0615
 6601TIP3    H141294   6.563   2.646  15.364 -2.3751  1.1375 -1.2420
 6601TIP3    H241295   6.495   2.722  15.476 -0.6487  2.8269 -1.2631
 6602TIP3   OH241296   4.475   0.131   2.221  0.4248 -0.3156  1.0269
 6602TIP3    H141297   4.384   0.128   2.190  0.6397  0.9107  0.1968
 6602TIP3    H241298   4.525   0.161   2.145  1.5797 -1.2400  1.3934
 6603TIP3   OH241299   0.171   6.690   4.294  0.1126 -0.0662 -0.0090
 6603TIP3    H141300   0.209   6.622   4.349  0.9686 -0.7592 -1.3967
 6603TIP3    H241301   0.094   6.650   4.254  0.0997  0.0784 -0.1338
 6604TIP3   OH241302   0.470   0.424  10.537 -0.1076  0.3416  0.1730
 6604TIP3    H141303   0.392   0.369  10.535  0.2972 -0.2201 -0.6437
 6604TIP3    H241304   0.528   0.383  10.600  0.8217 -1.0920 -1.5161
 6605TIP3   OH241305   1.670   6.292   4.525  0.8922 -0.3460  0.0590
 6605TIP3    H141306   1.653   6.214   4.578  0.4335 -0.3252 -0.0533
 6605TIP3    H241307   1.694   6.259   4.439 -1.0338 -0.3658 -0.5167
 6606TIP3   OH241308   3.318   0.600  14.792  0.1178 -0.1658 -0.2573
 6606TIP3    H141309   3.396   0.556  14.760 -0.3967 -0.3388 -1.3101
 6606TIP3    H241310   3.313   0.680  14.740  0.9826  1.1352  1.5502
 6607TIP3   OH241311   4.114   2.987   1.786  1.0953  0.2290 -0.3120
 6607TIP3    H141312   4.197   3.032   1.767  1.4862  0.1247  1.0201
 6607TIP3    H241313   4.079   2.965   1.700  2.0775  0.9506 -0.9297
 6608TIP3   OH241314   0.176   5.879  15.778 -0.1379  0.2263  0.0963
 6608TIP3    H141315   0.267   5.884  15.748  0.2030 -0.1502  1.0301
 6608TIP3    H241316   0.144   5.969  15.772  0.1692  0.3036 -0.5850
 6609TIP3   OH241317   1.077   4.955   2.085  0.2030 -0.0700 -0.6542
 6609TIP3    H141318   1.067   4.927   1.994  1.7889 -0.1460 -0.8353
 6609TIP3    H241319   1.099   4.876   2.133 -0.8354 -0.0660 -0.1551
 6610TIP3   OH241320   0.097   2.138  15.043  0.3597  0.2999 -0.1597
 6610TIP3    H141321   0.042   2.062  15.064 -0.0629  0.6269 -0.0663
 6610TIP3    H241322   0.159   2.143  15.116  3.1512 -2.4170 -2.1022
 6611TIP3   OH241323   5.240   4.126   1.627 -0.1939  0.1814 -0.2800
 6611TIP3    H141324   5.160   4.078   1.604 -0.5259  0.5203  0.1349
 6611TIP3    H241325   5.208   4.207   1.666  0.3611  0.5705 -0.6204
 6612TIP3   OH241326   2.232   5.824  11.417  0.0847 -0.3825 -0.2096
 6612TIP3    H141327   2.177   5.902  11.421 -0.1819 -0.4458 -2.0721
 6612TIP3    H241328   2.287   5.837  11.340 -0.8441 -2.5867 -1.3187
 6613TIP3   OH241329   4.480   2.871   3.489  0.5852  0.3269  0.5896
 6613TIP3    H141330   4.569   2.837   3.501  0.7652  1.1629  1.7967
 6613TIP3    H241331   4.436   2.855   3.572 -1.3823 -2.7014 -0.8608
 6614TIP3   OH241332   4.519   0.362  12.323 -0.0239 -0.0851  0.2227
 6614TIP3    H141333   4.474   0.288  12.364 -0.5579 -0.5000 -1.0592
 6614TIP3    H241334   4.509   0.346  12.229  0.9101  0.9844 -0.0706
 6615TIP3   OH241335   3.356   1.048  13.815 -0.4420  0.3215  0.5223
 6615TIP3    H141336   3.435   1.072  13.864 -0.3431  0.5625  0.2454
 6615TIP3    H241337   3.384   1.046  13.724 -0.5226 -0.5483  0.5089
 6616TIP3   OH241338   0.519   3.194   1.987 -0.0360  0.6556  0.6306
 6616TIP3    H141339   0.537   3.147   1.906  1.9496 -0.5650  1.7139
 6616TIP3    H241340   0.515   3.126   2.055 -1.2640  1.6742  1.6578
 6617TIP3   OH241341   5.317   4.570   3.404  0.1454  0.2875  0.8814
 6617TIP3    H141342   5.256   4.640   3.423 -0.7676 -0.9696  2.9740
 6617TIP3    H241343   5.393   4.589   3.459  0.0437 -0.1598  1.1825
 6618TIP3   OH241344   1.923   6.642  12.490 -0.1179 -0.3662 -0.2514
 6618TIP3    H141345   1.906   6.567  12.433 -0.8879 -0.6448  0.3300
 6618TIP3    H241346   1.964   6.604  12.568 -0.6094 -0.2085  0.0908
 6619TIP3   OH241347   0.980   6.499  16.183  0.4324 -0.4627  0.4871
 6619TIP3    H141348   1.056   6.557  16.185 -1.6509  2.4837  0.3217
 6619TIP3    H241349   0.954   6.491  16.274  1.1868 -1.9295  0.6052
 6620TIP3   OH241350   2.078   3.904  16.271 -0.2605 -0.5018 -0.0512
 6620TIP3    H141351   2.160   3.856  16.269 -0.7722 -1.4214 -2.7877
 6620TIP3    H241352   2.104   3.996  16.281  1.0528 -0.8311 -0.3139
 6621TIP3   OH241353   5.876   5.998   1.026  0.4952  0.3272 -0.0399
 6621TIP3    H141354   5.878   5.907   0.996 -2.4161  0.7202 -1.7900
 6621TIP3    H241355   5.817   5.998   1.102 -3.7622  1.2556 -2.9902
 6622TIP3   OH241356   6.358   6.085  13.314 -0.5933  0.4984  0.1108
 6622TIP3    H141357   6.391   6.026  13.382  0.6717 -0.2028 -1.0697
 6622TIP3    H241358   6.335   6.028  13.241 -0.6459  1.3545 -0.5566
 6623TIP3   OH241359   1.352   4.415   6.314  0.0214  0.5043  0.7570
 6623TIP3    H141360   1.360   4.510   6.300  1.4288  0.1211 -1.6810
 6623TIP3    H241361   1.258   4.400   6.324 -0.5230  1.9138 -1.4668
 6624TIP3   OH241362   5.360   4.098  15.988 -0.3243 -0.8100 -0.3157
 6624TIP3    H141363   5.341   4.088  15.895 -0.9033 -0.8216 -0.2012
 6624TIP3    H241364   5.285   4.145  16.023 -0.9729 -2.3288  0.4631
 6625TIP3   OH241365   1.867   1.009   1.508  0.0320 -0.9950 -0.4256
 6625TIP3    H141366   1.785   1.054   1.528 -0.0561 -0.5710 -1.6222
 6625TIP3    H241367   1.868   1.003   1.412  0.3345 -3.0372 -0.3211
 6626TIP3   OH241368   0.361   0.898  11.982  0.2725 -0.0386  0.2501
 6626TIP3    H141369   0.303   0.973  11.997 -0.6205 -0.5850 -0.3194
 6626TIP3    H241370   0.375   0.898  11.887  0.7996 -0.2167  0.3250
 6627TIP3   OH241371   6.397   2.919   1.024 -0.2166  0.4661 -0.3934
 6627TIP3    H141372   6.486   2.945   0.998 -0.0636  0.3165 -0.0335
 6627TIP3    H241373   6.406   2.827   1.049 -0.7675  0.0328 -1.7351
 6628TIP3   OH241374   1.073   2.721   5.347 -0.0651  0.3639  0.1272
 6628TIP3    H141375   1.008   2.726   5.417 -1.0984 -1.9606 -0.5535
 6628TIP3    H241376   1.141   2.664   5.382  0.2969  0.6329 -0.1306
 6629TIP3   OH241377   5.779   1.596   4.259  0.4801 -0.3362  0.0685
 6629TIP3    H141378   5.826   1.584   4.176  2.1284  0.9092  0.7668
 6629TIP3    H241379   5.709   1.531   4.256  0.9514 -0.8405 -1.9609
 6630TIP3   OH241380   1.077   5.528   1.405 -0.0634 -0.4060  0.4547
 6630TIP3    H141381   1.047   5.547   1.316  0.5268 -0.8529  0.1497
 6630TIP3    H241382   1.044   5.440   1.424  0.6579 -0.7287  0.2778
 6631TIP3   OH241383   4.414   5.105   5.035 -0.3352  0.2232  0.6888
 6631TIP3    H141384   4.423   5.174   4.969 -0.2795 -0.8591 -0.4634
 6631TIP3    H241385   4.488   5.047   5.020 -1.6185 -1.3382  0.1128
 6632TIP3   OH241386   1.104   0.140  13.641  0.2156  0.3671 -0.0593
 6632TIP3    H141387   1.035   0.147  13.575 -1.2852 -0.0132  1.3881
 6632TIP3    H241388   1.067   0.180  13.719  1.3006 -0.6251  1.0239
 6633TIP3   OH241389   2.576   4.266  16.183 -0.7210  0.1459  0.1823
 6633TIP3    H141390   2.577   4.195  16.247 -0.8324  0.3906  0.4573
 6633TIP3    H241391   2.645   4.243  16.120 -2.2617 -1.4004 -1.0407
 6634TIP3   OH241392   1.827   5.696   5.500 -0.5937 -0.2100 -0.8821
 6634TIP3    H141393   1.826   5.765   5.435  3.4030 -1.1994 -2.2532
 6634TIP3    H241394   1.905   5.713   5.553 -2.4768 -0.7094  2.3831
 6635TIP3   OH241395   1.574   1.148  12.715 -0.2156 -0.4988  0.6724
 6635TIP3    H141396   1.669   1.156  12.714 -0.1969 -0.7377  0.3295
 6635TIP3    H241397   1.545   1.210  12.782 -0.0364  1.9666 -1.3797
 6636TIP3   OH241398   1.195   4.504   4.571  0.3411 -0.5845 -0.1985
 6636TIP3    H141399   1.166   4.593   4.555  1.0640 -0.0238  1.3985
 6636TIP3    H241400   1.227   4.505   4.661 -1.7884 -3.0283  0.7136
 6637TIP3   OH241401   5.998   3.421   2.140  0.2420  0.7930 -0.0804
 6637TIP3    H141402   5.971   3.363   2.068  0.3533 -0.5754  0.9413
 6637TIP3    H241403   6.000   3.508   2.100 -1.3405  0.3291 -1.3158
 6638TIP3   OH241404   5.671   1.579   1.646 -0.5279 -0.7893 -0.1359
 6638TIP3    H141405   5.717   1.624   1.716 -0.1827 -1.0881 -0.1708
 6638TIP3    H241406   5.586   1.555   1.685  0.4803 -2.9300  0.9374
 6639TIP3   OH241407   1.215   3.302  13.101  0.2892  0.0401  0.7220
 6639TIP3    H141408   1.140   3.257  13.140  0.9925 -1.7595  0.1077
 6639TIP3    H241409   1.181   3.387  13.075 -1.8122 -1.0641 -0.4128
 6640TIP3   OH241410   0.970   2.290   6.284  0.1990 -0.4801  0.0994
 6640TIP3    H141411   0.906   2.291   6.354 -1.0376 -1.4488 -0.9625
 6640TIP3    H241412   1.041   2.235   6.317  0.7916  1.0450  1.4983
 6641TIP3   OH241413   2.095   6.056   0.629 -0.3499 -0.4178 -0.0393
 6641TIP3    H141414   2.123   6.146   0.612 -0.1229 -0.6600 -1.0251
 6641TIP3    H241415   2.091   6.049   0.725 -0.0332  0.5357  0.0486
 6642TIP3   OH241416   6.818   5.212  16.975 -0.5081 -0.3155  0.5187
 6642TIP3    H141417   6.850   5.170  17.055 -0.7867  0.2132  0.9163
 6642TIP3    H241418   6.815   5.142  16.911  2.9835 -0.1772 -0.0394
 6643TIP3   OH241419   6.066   5.908   1.977 -0.1299  0.0181 -0.6304
 6643TIP3    H141420   6.158   5.922   1.999 -0.1502 -1.3992  0.4427
 6643TIP3    H241421   6.023   5.991   1.998  0.4795 -0.1266  1.2891
 6644TIP3   OH241422   5.178   5.251   1.468  0.0820  0.4740  0.2164
 6644TIP3    H141423   5.163   5.331   1.418  0.7464 -0.0640 -0.8836
 6644TIP3    H241424   5.273   5.241   1.469  0.0247 -0.0725  0.7196
 6645TIP3   OH241425   1.634   4.978   2.817  0.1468 -0.2528  0.0105
 6645TIP3    H141426   1.570   5.019   2.875  0.0040 -0.9420  0.3524
 6645TIP3    H241427   1.689   5.050   2.786 -0.8658  0.3693 -0.3904
 6646TIP3   OH241428   1.492   2.271   4.075 -0.3388 -0.8669 -0.1610
 6646TIP3    H141429   1.571   2.273   4.022  0.4366  2.1704  0.9326
 6646TIP3    H241430   1.515   2.215   4.150 -0.0212 -1.7367 -0.8803
 6647TIP3   OH241431   4.864   3.122   0.323 -0.3302  0.7190 -0.5127
 6647TIP3    H141432   4.874   3.203   0.373 -0.9127  1.1484 -1.0657
 6647TIP3    H241433   4.796   3.142   0.259 -1.4422 -0.6420  0.1948
 6648TIP3   OH241434   4.392   1.993   4.222 -0.1493  0.3242 -0.5115
 6648TIP3    H141435   4.327   2.060   4.200  0.5899  1.3156  0.2065
 6648TIP3    H241436   4.344   1.931   4.277 -0.8035  0.3480 -1.0351
 6649TIP3   OH241437   6.104   0.864   1.290 -0.1269  0.1867  0.4084
 6649TIP3    H141438   6.158   0.917   1.348  0.0467 -1.1197  1.4945
 6649TIP3    H241439   6.059   0.803   1.349 -1.6904  0.2935 -0.6132
 6650TIP3   OH241440   6.428   4.240   2.299 -0.4675 -0.1354  0.1304
 6650TIP3    H141441   6.504   4.297   2.301 -1.8715  1.8559 -0.1612
 6650TIP3    H241442   6.400   4.239   2.208  0.4115 -2.6248 -0.1870
 6651TIP3   OH241443   3.006   3.737   6.811 -0.2063 -0.0379 -0.3870
 6651TIP3    H141444   3.022   3.644   6.824  0.7826  0.0520 -0.8614
 6651TIP3    H241445   2.962   3.743   6.726  0.6568 -0.0090 -0.8457
 6652TIP3   OH241446   4.144   2.258   5.901 -0.1854  0.6591 -0.1457
 6652TIP3    H141447   4.086   2.182   5.892  0.3155  0.3184 -0.5090
 6652TIP3    H241448   4.193   2.241   5.981  0.5516  0.1679 -0.6902
 6653TIP3   OH241449   6.276   3.975  15.664  0.4395 -0.5818 -0.5106
 6653TIP3    H141450   6.191   3.980  15.708  0.7126 -0.1736 -0.0224
 6653TIP3    H241451   6.256   3.991  15.572 -0.4713 -3.7056 -0.9781
 6654TIP3   OH241452   6.279   1.246  16.777  0.0053  0.7036 -0.1548
 6654TIP3    H141453   6.373   1.249  16.793  0.2726 -0.8472 -1.2179
 6654TIP3    H241454   6.271   1.239  16.682 -1.1308 -0.2368 -0.0053
 6655TIP3   OH241455   1.261   5.116  13.524  0.2615 -0.5312 -0.1363
 6655TIP3    H141456   1.230   5.078  13.442  0.9572 -1.1930 -0.1040
 6655TIP3    H241457   1.333   5.173  13.498  0.8840 -1.2077  0.0548
 6656TIP3   OH241458   4.421   2.347   2.171  0.6506 -0.4232  0.0708
 6656TIP3    H141459   4.504   2.378   2.134  0.0252  0.7812 -0.3866
 6656TIP3    H241460   4.421   2.253   2.156  1.5094 -0.2934 -0.8050
 6657TIP3   OH241461   3.463   4.966   1.053  0.0127 -0.7391 -0.0747
 6657TIP3    H141462   3.549   5.005   1.067  0.0199 -0.1193 -1.6799
 6657TIP3    H241463   3.417   5.028   0.996 -1.2668 -1.3749  0.2283
 6658TIP3   OH241464   1.689   4.473   1.725 -0.3067  0.2605 -0.0870
 6658TIP3    H141465   1.628   4.455   1.653 -1.1768  1.8886  0.2072
 6658TIP3    H241466   1.760   4.521   1.684  0.4937 -1.0521 -0.3018
 6659TIP3   OH241467   2.235   3.299   0.716 -0.6148  0.2300 -0.2282
 6659TIP3    H141468   2.302   3.330   0.777  0.9706  0.1180 -1.8440
 6659TIP3    H241469   2.190   3.378   0.687  0.5334  0.6014 -1.0521
 6660TIP3   OH241470   4.130   2.473  15.216 -0.2938 -0.3724 -0.6293
 6660TIP3    H141471   4.081   2.394  15.193  0.7065 -1.2975  0.2849
 6660TIP3    H241472   4.173   2.451  15.299 -0.0039  1.1445 -0.3594
 6661TIP3   OH241473   4.638   4.328  16.464 -0.1724  0.2112 -0.0442
 6661TIP3    H141474   4.614   4.409  16.508  0.2107  0.3651 -0.1118
 6661TIP3    H241475   4.697   4.356  16.393  0.6090 -0.1948  0.4284
 6662TIP3   OH241476   0.021   2.271  10.461  0.2400 -0.4058  0.4979
 6662TIP3    H141477   0.002   2.185  10.424  2.0304 -0.6935  0.1330
 6662TIP3    H241478   0.063   2.319  10.390 -0.7068  0.7853  0.7089
 6663TIP3   OH241479   4.654   4.953   1.112  0.7111 -0.2087 -0.0613
 6663TIP3    H141480   4.578   4.895   1.115 -0.7855  1.7072  0.6444
 6663TIP3    H241481   4.679   4.955   1.019 -2.0199  1.4671 -0.8530
 6664TIP3   OH241482   3.199   0.714   0.048 -0.2757  0.5055  0.1321
 6664TIP3    H141483   3.186   0.669   0.132 -1.2219  0.8746  0.2051
 6664TIP3    H241484   3.291   0.702   0.028  0.5134  2.2547  2.3010
 6665TIP3   OH241485   2.509   0.980  12.375 -0.6560  0.7059  0.1811
 6665TIP3    H141486   2.509   1.049  12.308  1.0748  1.5267  0.9588
 6665TIP3    H241487   2.530   1.026  12.457 -0.4584 -0.6027  0.8926
 6666TIP3   OH241488   6.491   1.220   3.132 -0.0532 -0.3594  0.6656
 6666TIP3    H141489   6.556   1.285   3.159 -0.7007  0.5114  0.1785
 6666TIP3    H241490   6.409   1.249   3.172 -0.2647 -1.1280  0.8063
 6667TIP3   OH241491   0.027   5.292   1.180 -0.7806  0.2997  0.1064
 6667TIP3    H141492  -0.045   5.354   1.170 -1.8184 -1.2164 -2.7637
 6667TIP3    H241493   0.005   5.242   1.259 -0.9406  2.1754  1.3129
 6668TIP3   OH241494   2.236   1.084   5.257  0.3074  0.2140 -0.4555
 6668TIP3    H141495   2.237   1.008   5.198  1.9877 -0.5158  0.4660
 6668TIP3    H241496   2.199   1.154   5.203  0.8096 -0.6829 -2.0547
 6669TIP3   OH241497   4.480   6.661  14.544  0.0676  0.0386  0.0742
 6669TIP3    H141498   4.390   6.677  14.516 -0.5535  0.7687  2.2515
 6669TIP3    H241499   4.485   6.700  14.631  2.1641 -1.0047  0.4929
 6670TIP3   OH241500   3.975   3.265  11.772  0.7597  0.7716  0.3374
 6670TIP3    H141501   3.998   3.172  11.772 -2.3162 -0.0977 -0.0974
 6670TIP3    H241502   4.046   3.308  11.820  2.4803 -1.7090  0.1840
 6671TIP3   OH241503   3.356   3.351  11.872 -0.2045 -0.0711 -0.1367
 6671TIP3    H141504   3.424   3.404  11.914  1.5891 -1.5447 -1.0585
 6671TIP3    H241505   3.310   3.310  11.945  1.0900 -0.4768  0.4865
 6672TIP3   OH241506   2.468   2.306   0.194  0.1785 -0.3648 -0.3822
 6672TIP3    H141507   2.436   2.216   0.196 -2.1248  0.4066  0.4333
 6672TIP3    H241508   2.557   2.300   0.228 -0.3386 -2.2053  0.7851
 6673TIP3   OH241509   4.714   6.350   4.924 -0.5045 -0.0459 -0.0400
 6673TIP3    H141510   4.635   6.402   4.911  0.1941  0.8507 -0.8564
 6673TIP3    H241511   4.767   6.401   4.985  0.1084  0.1305 -0.7064
 6674TIP3   OH241512   6.683   5.159   4.845  0.0265  0.4624 -0.1394
 6674TIP3    H141513   6.755   5.177   4.784  0.5299 -0.9436 -0.0003
 6674TIP3    H241514   6.704   5.210   4.923  0.7852  0.1909 -0.1630
 6675TIP3   OH241515   2.393   0.718   5.820  0.4643 -0.0720  0.6778
 6675TIP3    H141516   2.476   0.689   5.784  0.4995  1.7338 -0.8446
 6675TIP3    H241517   2.411   0.736   5.912  1.2490 -1.4923  0.8300
 6676TIP3   OH241518   4.750   1.852  12.656  0.3276 -0.2916 -1.2220
 6676TIP3    H141519   4.833   1.835  12.702  0.3047  1.1907 -0.5951
 6676TIP3    H241520   4.700   1.907  12.716 -1.9944 -2.7761 -0.6998
 6677TIP3   OH241521   5.663   5.962  13.785 -0.4233 -0.2046  0.3850
 6677TIP3    H141522   5.591   5.941  13.726  1.4354 -0.8669 -1.7845
 6677TIP3    H241523   5.691   5.877  13.820  0.6790 -0.2468 -0.5344
 6678TIP3   OH241524   4.372   5.421   1.438 -0.6350 -0.1382  0.4033
 6678TIP3    H141525   4.337   5.488   1.496 -2.9049 -1.1555  0.3567
 6678TIP3    H241526   4.313   5.423   1.362  1.2798  0.0613 -1.1707
 6679TIP3   OH241527   3.302   0.941  15.999  0.0299 -0.2874  0.7031
 6679TIP3    H141528   3.294   0.919  16.091  0.6105  0.9969  1.0815
 6679TIP3    H241529   3.385   0.990  15.993  0.4491 -1.1093 -0.6492
 6680TIP3   OH241530   0.839   6.290  12.679  0.7211 -0.3313  0.6193
 6680TIP3    H141531   0.917   6.301  12.734  0.7843  0.6695  0.3657
 6680TIP3    H241532   0.775   6.351  12.715  0.6915  0.1843 -0.2518
 6681TIP3   OH241533   2.224   3.650   4.245  0.6695 -0.3544  0.1696
 6681TIP3    H141534   2.161   3.715   4.216  0.3918 -0.6949  0.0033
 6681TIP3    H241535   2.308   3.681   4.211  0.5124 -0.1726 -0.0548
 6682TIP3   OH241536   4.548   4.513   0.279 -0.0738  0.3908 -0.2564
 6682TIP3    H141537   4.497   4.519   0.199  1.4679  0.0164 -1.3168
 6682TIP3    H241538   4.626   4.566   0.262  1.1342 -1.1221  0.2786
 6683TIP3   OH241539   6.496   3.357  15.988  0.4011  0.1033  0.4523
 6683TIP3    H141540   6.521   3.320  15.903  1.0002 -1.2892  1.2118
 6683TIP3    H241541   6.439   3.430  15.966  1.5042  0.5343 -1.2034
 6684TIP3   OH241542   0.602   3.024   0.546 -0.1678  0.6578 -0.1482
 6684TIP3    H141543   0.669   3.091   0.534 -0.1769  0.8046  0.5719
 6684TIP3    H241544   0.547   3.030   0.468 -0.6132  2.0096  0.2401
 6685TIP3   OH241545   4.740   1.394   0.490  0.3619  0.1338 -0.6363
 6685TIP3    H141546   4.825   1.393   0.447  0.2963 -1.3424 -0.7593
 6685TIP3    H241547   4.699   1.310   0.467 -0.1304 -0.2314  1.3678
 6686TIP3   OH241548   4.898   1.057  16.583 -0.5214  0.2582  0.0071
 6686TIP3    H141549   4.821   1.006  16.608  0.6693 -1.2155  0.8345
 6686TIP3    H241550   4.885   1.142  16.625 -1.7274  0.0816  0.0420
 6687TIP3   OH241551   5.190   4.217   2.005  0.0018 -0.0346  0.0615
 6687TIP3    H141552   5.145   4.143   2.047  0.8415 -0.4664  0.2254
 6687TIP3    H241553   5.122   4.260   1.954 -0.1686 -2.0386 -1.5453
 6688TIP3   OH241554   5.022   3.736  12.029  0.4382 -0.0791  0.2431
 6688TIP3    H141555   5.111   3.751  11.999  0.1811  1.1607  0.0553
 6688TIP3    H241556   4.978   3.820  12.019 -0.4286 -0.3553  1.4530
 6689TIP3   OH241557   2.636   5.030  16.600 -0.4660  0.3812 -0.9239
 6689TIP3    H141558   2.582   5.039  16.678 -1.4263 -0.7596 -1.4240
 6689TIP3    H241559   2.722   5.003  16.634 -0.9491 -0.3759 -0.2551
 6690TIP3   OH241560   0.788   3.196  15.856 -0.4125  0.3660 -0.4025
 6690TIP3    H141561   0.742   3.113  15.850 -0.4243  0.3366  0.0683
 6690TIP3    H241562   0.831   3.194  15.941  0.0088  0.6285 -0.6027
 6691TIP3   OH241563   6.272   2.594   2.464 -0.2462 -0.1513  0.5771
 6691TIP3    H141564   6.224   2.642   2.532  0.6133  0.6788  0.6288
 6691TIP3    H241565   6.205   2.567   2.401 -0.7226  1.4404  0.3662
 6692TIP3   OH241566   1.730   0.249  16.244 -0.0648  0.2092 -0.6130
 6692TIP3    H141567   1.653   0.227  16.297 -0.0254  0.5439 -0.4152
 6692TIP3    H241568   1.717   0.201  16.163  0.1326 -0.7301 -0.1027
 6693TIP3   OH241569   0.914   6.792  12.943  0.0546 -0.0349 -0.0141
 6693TIP3    H141570   0.941   6.777  12.852 -1.2058  0.0823 -0.4296
 6693TIP3    H241571   0.990   6.768  12.995  0.4702 -1.0671 -1.0485
 6694TIP3   OH241572   2.282   4.002   3.931  0.4417  0.4607 -0.5030
 6694TIP3    H141573   2.260   4.044   3.848  1.5275  1.3588 -0.3680
 6694TIP3    H241574   2.355   4.053   3.965  0.9270 -0.7343  0.3407
 6695TIP3   OH241575   2.541   3.026   1.448 -0.0285  0.2944 -0.2585
 6695TIP3    H141576   2.540   3.091   1.518  1.4565  0.2513 -0.1637
 6695TIP3    H241577   2.632   3.023   1.419 -0.1380 -1.4374 -0.5519
 6696TIP3   OH241578   3.655   1.352  14.098  0.0047  0.2520 -0.5742
 6696TIP3    H141579   3.741   1.377  14.065 -0.5458  0.8813 -1.6153
 6696TIP3    H241580   3.644   1.402  14.179 -0.0926  1.5532 -1.3716
 6697TIP3   OH241581   2.126   0.946   2.144 -0.3060  0.3162 -0.0221
 6697TIP3    H141582   2.196   0.886   2.169  0.2304  0.6587 -0.6593
 6697TIP3    H241583   2.053   0.889   2.119  0.0093 -0.0579 -0.0918
 6698TIP3   OH241584   4.986   3.600  16.276  0.2028 -0.2250  0.3299
 6698TIP3    H141585   4.925   3.665  16.241 -0.7392 -0.3449  1.6497
 6698TIP3    H241586   5.055   3.652  16.317 -0.5127 -0.0108  1.3228
 6699TIP3   OH241587   3.631   5.023  13.942  0.3460 -0.2914 -0.0937
 6699TIP3    H141588   3.634   5.110  13.902 -0.8744 -1.2664 -2.4990
 6699TIP3    H241589   3.542   5.017  13.979  1.6932  0.9150  3.8565
 6700TIP3   OH241590   2.945   1.195   1.107 -0.4174  0.6866 -0.1644
 6700TIP3    H141591   2.866   1.141   1.114 -0.1158  0.2611  0.0384
 6700TIP3    H241592   3.016   1.136   1.134 -0.0293  1.0553 -0.3748
 6701TIP3   OH241593   2.725   3.143  14.294 -0.1595  0.0014  0.6321
 6701TIP3    H141594   2.635   3.173  14.281 -0.1867 -0.0705  0.6500
 6701TIP3    H241595   2.776   3.186  14.226 -0.4502 -1.0815 -0.3053
 6702TIP3   OH241596   1.885   1.706   3.697 -0.0621 -0.0028  0.4844
 6702TIP3    H141597   1.829   1.639   3.735  0.0570  0.0330  0.7244
 6702TIP3    H241598   1.928   1.747   3.773 -1.9544  1.9849  0.6004
 6703TIP3   OH241599   5.296   5.624  14.616  0.1913 -0.0589  0.4205
 6703TIP3    H141600   5.213   5.640  14.663  0.2669 -0.9588  0.8929
 6703TIP3    H241601   5.362   5.623  14.685  0.6932  1.2326 -0.0216
 6704TIP3   OH241602   6.100   0.546   0.084 -0.1172 -0.1196  0.7607
 6704TIP3    H141603   6.025   0.498   0.119 -1.1197 -0.8354 -2.0894
 6704TIP3    H241604   6.083   0.637   0.107 -2.0682 -0.2317 -0.0286
 6705TIP3   OH241605   5.301   4.895   6.344  0.3517 -0.2907 -0.2875
 6705TIP3    H141606   5.369   4.940   6.294 -1.3238  1.4122 -1.1508
 6705TIP3    H241607   5.288   4.949   6.421 -1.4808  0.6786 -1.1925
 6706TIP3   OH241608   3.517   0.263  15.740  0.0165 -0.6393  0.1378
 6706TIP3    H141609   3.466   0.343  15.753  2.9291  1.2733  0.7837
 6706TIP3    H241610   3.563   0.277  15.657  0.3836 -1.7762  0.1269
 6707TIP3   OH241611   4.405   2.293  14.288  0.1237  0.5160  0.1683
 6707TIP3    H141612   4.331   2.275  14.347  0.8804  0.0245  0.9804
 6707TIP3    H241613   4.483   2.279  14.341  0.8185  1.1324 -0.6540
 6708TIP3   OH241614   1.365   4.722  13.297  0.8297  0.2084 -0.3595
 6708TIP3    H141615   1.413   4.642  13.273  0.3311 -0.0357 -0.5613
 6708TIP3    H241616   1.432   4.781  13.330  1.0079 -0.9119  1.4259
 6709TIP3   OH241617   5.361   1.759   3.619 -0.2572  0.3251  0.2095
 6709TIP3    H141618   5.303   1.690   3.587  0.4544 -0.2548  0.1297
 6709TIP3    H241619   5.357   1.752   3.714  2.6028 -2.3373  0.2890
 6710TIP3   OH241620   5.775   4.216  13.179 -0.2275  0.4678 -0.5063
 6710TIP3    H141621   5.686   4.185  13.163 -0.1441 -1.5682  2.2165
 6710TIP3    H241622   5.807   4.161  13.250  3.0657  1.4707 -1.0382
 6711TIP3   OH241623   6.471   4.689  14.902  0.6176 -0.1028  0.0476
 6711TIP3    H141624   6.537   4.620  14.901  1.7708  0.9546 -0.6074
 6711TIP3    H241625   6.503   4.752  14.967 -0.3305 -0.0919  0.5258
 6712TIP3   OH241626   6.325   6.122   5.087 -0.3051  0.3090 -0.1074
 6712TIP3    H141627   6.317   6.178   5.164  0.6255 -0.5551  0.6528
 6712TIP3    H241628   6.289   6.175   5.015 -1.1709  1.1386  0.8979
 6713TIP3   OH241629   4.507   5.763  15.689  0.2102 -0.3461 -0.4043
 6713TIP3    H141630   4.572   5.724  15.632  1.9849  2.6326 -0.6077
 6713TIP3    H241631   4.554   5.781  15.770 -1.1835 -0.7419  0.5325
 6714TIP3   OH241632   0.202   2.739   5.318  0.1868 -0.4442  0.3946
 6714TIP3    H141633   0.218   2.693   5.400  0.8704 -0.4601  0.2594
 6714TIP3    H241634   0.220   2.831   5.338  0.0675 -0.4109  0.3439
 6715TIP3   OH241635   3.256   1.998  12.979  0.3332 -0.0194  0.3307
 6715TIP3    H141636   3.290   2.071  12.927  0.1421 -0.0767  0.1260
 6715TIP3    H241637   3.305   2.003  13.061  0.3542  0.3106  0.2988
 6716TIP3   OH241638   5.467   4.298   1.937 -0.6080 -0.1220  0.5061
 6716TIP3    H141639   5.378   4.288   1.902 -0.1649 -0.1120 -0.6552
 6716TIP3    H241640   5.457   4.358   2.011 -1.4303  0.5954 -0.1703
 6717TIP3   OH241641   0.541   1.353  12.144  0.4909  0.2497 -0.0252
 6717TIP3    H141642   0.567   1.442  12.120  0.1338  0.2504 -0.4172
 6717TIP3    H241643   0.449   1.347  12.119  0.5823 -0.3137 -0.2310
 6718TIP3   OH241644   6.272   2.333  16.525 -0.0625 -0.1121 -0.0613
 6718TIP3    H141645   6.310   2.411  16.566 -0.7468  0.4390 -0.4470
 6718TIP3    H241646   6.277   2.351  16.431 -1.6124  0.1608 -0.1170
 6719TIP3   OH241647   5.445   4.463  15.468 -0.1031  0.2979 -0.2166
 6719TIP3    H141648   5.457   4.542  15.417 -0.0380  0.0151 -0.6476
 6719TIP3    H241649   5.514   4.403  15.437 -0.0587  0.1256  0.2037
 6720TIP3   OH241650   0.316   1.381  16.158 -0.2431 -0.2495  0.0450
 6720TIP3    H141651   0.352   1.298  16.127  0.7999 -0.2003  1.0646
 6720TIP3    H241652   0.373   1.407  16.230 -0.9913  0.9907  0.2260
 6721TIP3   OH241653   4.742   6.563   5.436 -0.5648 -0.0268 -0.4997
 6721TIP3    H141654   4.674   6.630   5.425  0.0444  0.5037 -1.2432
 6721TIP3    H241655   4.823   6.614   5.445 -0.3701 -0.6130  1.4706
 6722TIP3   OH241656   2.104   2.145  14.976  0.4293 -0.6938 -0.3226
 6722TIP3    H141657   2.060   2.104  15.051  0.0095 -1.0405 -0.7539
 6722TIP3    H241658   2.195   2.152  15.003  0.1530 -0.1843  0.4938
 6723TIP3   OH241659   3.159   6.592   4.052 -0.7412  0.2161 -0.1261
 6723TIP3    H141660   3.137   6.593   4.146  2.2724 -1.2557  0.7089
 6723TIP3    H241661   3.144   6.502   4.025 -0.1693  0.2917 -0.6938
 6724TIP3   OH241662   5.556   4.436  11.162 -0.2692 -0.2236  0.0273
 6724TIP3    H141663   5.593   4.460  11.077 -1.9900  0.4441 -0.5701
 6724TIP3    H241664   5.546   4.341  11.159 -1.4086 -0.0959 -1.0121
 6725TIP3   OH241665   2.635   2.754  14.664  0.0003  0.1757  0.1250
 6725TIP3    H141666   2.618   2.842  14.633 -0.3698 -0.4003 -1.3998
 6725TIP3    H241667   2.567   2.700  14.624 -0.4143 -0.6629  1.8560
 6726TIP3   OH241668   0.546   4.816   1.835 -0.3084 -0.0186 -0.2589
 6726TIP3    H141669   0.506   4.902   1.851  0.6050  0.1560  1.2682
 6726TIP3    H241670   0.527   4.766   1.914  0.2571 -0.7964 -0.6075
 6727TIP3   OH241671   0.806   4.768  11.636  0.4525  0.0916  0.0281
 6727TIP3    H141672   0.803   4.779  11.541  1.0076  2.5214  0.2248
 6727TIP3    H241673   0.718   4.787  11.665  0.6921  1.1448  0.1116
 6728TIP3   OH241674   2.187   4.889  13.803  0.3435  0.1596  0.2589
 6728TIP3    H141675   2.154   4.853  13.720 -0.4970  1.6954 -0.1217
 6728TIP3    H241676   2.214   4.812  13.853 -1.5257 -1.0276 -0.4244
 6729TIP3   OH241677   0.437   3.057  11.165 -0.2931  0.0132  0.0919
 6729TIP3    H141678   0.520   3.074  11.120 -0.0292  0.7107  0.8192
 6729TIP3    H241679   0.378   3.026  11.096  0.0517  1.2012 -0.7676
 6730TIP3   OH241680   3.482   3.375   3.436 -0.1929  0.7054  0.2301
 6730TIP3    H141681   3.452   3.438   3.502 -1.1871  2.7297 -2.0181
 6730TIP3    H241682   3.424   3.300   3.446 -1.2445  1.5607  0.7350
 6731TIP3   OH241683   6.329   3.298  10.813 -0.2051  0.0120  0.1594
 6731TIP3    H141684   6.317   3.203  10.804 -0.9061  0.1228 -0.0745
 6731TIP3    H241685   6.420   3.313  10.785  0.1600 -0.6855  0.9205
 6732TIP3   OH241686   4.926   5.631   0.886  0.4975  0.5816  0.5123
 6732TIP3    H141687   4.955   5.542   0.904  0.1190  0.6850  1.8022
 6732TIP3    H241688   4.858   5.647   0.953 -1.2354  0.9531 -1.2531
 6733TIP3   OH241689   1.707   6.341  15.367 -0.2042 -0.1959 -0.2292
 6733TIP3    H141690   1.651   6.347  15.290 -1.3271 -0.6309  0.5207
 6733TIP3    H241691   1.652   6.371  15.440  1.9334  3.8382  0.0005
 6734TIP3   OH241692   5.041   1.739   1.291  0.1487 -0.1451 -0.4002
 6734TIP3    H141693   5.049   1.675   1.363  1.1180  0.0304 -0.3399
 6734TIP3    H241694   5.109   1.713   1.229 -0.5279 -0.1459 -1.1457
 6735TIP3   OH241695   3.284   4.401  13.582  0.4099  0.5196 -0.4495
 6735TIP3    H141696   3.285   4.416  13.677  0.7866 -0.1870 -0.3338
 6735TIP3    H241697   3.357   4.342  13.567 -0.4918 -0.4924 -0.9918
 6736TIP3   OH241698   3.834   3.326   5.946  0.3434 -0.1398  0.0968
 6736TIP3    H141699   3.776   3.252   5.926  0.2340 -0.4626  1.5186
 6736TIP3    H241700   3.905   3.317   5.882  0.0793 -1.1873 -0.0835
 6737TIP3   OH241701   6.021   1.958  14.611  0.2740 -0.3691 -0.1717
 6737TIP3    H141702   6.085   2.026  14.632  0.4516 -0.2220 -1.1581
 6737TIP3    H241703   6.006   1.913  14.694 -0.5018  1.4169  0.7154
 6738TIP3   OH241704   6.608   2.956   5.220 -0.0678  0.1534  0.3897
 6738TIP3    H141705   6.694   2.978   5.255  0.6801 -0.0922 -1.2104
 6738TIP3    H241706   6.575   3.038   5.185 -0.8698  0.4253  1.7037
 6739TIP3   OH241707   2.552   1.696  14.698 -0.7471 -0.0707  0.2563
 6739TIP3    H141708   2.622   1.689  14.633  0.3400 -0.8549  1.4720
 6739TIP3    H241709   2.472   1.683  14.647  0.0789 -0.8989 -0.9011
 6740TIP3   OH241710   3.665   2.991   1.384  0.1550  0.8845  0.3758
 6740TIP3    H141711   3.751   3.010   1.423  0.9946 -0.2125 -0.8830
 6740TIP3    H241712   3.674   3.017   1.293 -0.5853  0.0143  0.0414
 6741TIP3   OH241713   4.872   2.527   4.166 -0.6898 -0.2752  0.6634
 6741TIP3    H141714   4.885   2.433   4.178 -0.5301 -0.1063  1.8921
 6741TIP3    H241715   4.954   2.567   4.195  0.1105  0.1479 -1.9007
 6742TIP3   OH241716   0.665   5.581   6.161 -0.1975  0.4717 -0.7918
 6742TIP3    H141717   0.652   5.594   6.255 -0.1613  1.3941 -0.9040
 6742TIP3    H241718   0.589   5.530   6.133 -0.5470  0.7543 -0.3760
 6743TIP3   OH241719   2.983   6.341   4.561 -0.1395 -0.3579  0.7218
 6743TIP3    H141720   2.946   6.260   4.527 -1.9531  0.3433  0.8915
 6743TIP3    H241721   3.067   6.316   4.599 -0.5037 -2.0745  0.4543
 6744TIP3   OH241722   5.094   0.780   3.185  0.3158 -0.0194  0.2234
 6744TIP3    H141723   5.059   0.699   3.221 -0.0962 -0.5678 -1.3196
 6744TIP3    H241724   5.017   0.835   3.169  0.4567  0.0949 -0.0798
 6745TIP3   OH241725   2.148   3.158  15.355  0.6149  0.3665  0.1721
 6745TIP3    H141726   2.140   3.108  15.436 -0.6176 -0.9142 -0.6826
 6745TIP3    H241727   2.058   3.170  15.325  1.0621 -1.0194 -2.0249
 6746TIP3   OH241728   1.946   4.132   4.028  0.1002  0.2105 -0.3410
 6746TIP3    H141729   1.951   4.110   3.935 -0.3834 -0.1083 -0.2958
 6746TIP3    H241730   1.852   4.141   4.045  0.1041 -0.9903  0.4057
 6747TIP3   OH241731   4.152   5.922   3.068 -0.3585 -0.1944 -0.2442
 6747TIP3    H141732   4.100   5.988   3.023 -1.6891 -0.4229  0.9159
 6747TIP3    H241733   4.095   5.888   3.137  1.1494 -0.7967  0.7740
 6748TIP3   OH241734   1.267   3.209  15.104  0.1273 -0.4923 -0.0497
 6748TIP3    H141735   1.199   3.254  15.155 -0.4110 -2.4680  1.1041
 6748TIP3    H241736   1.224   3.185  15.022 -0.1441 -0.5288  0.1025
 6749TIP3   OH241737   2.364   3.967   2.585 -0.4487  0.6057  0.3659
 6749TIP3    H141738   2.324   3.885   2.615 -1.5652  1.1510  0.4377
 6749TIP3    H241739   2.455   3.945   2.569 -1.0432 -1.0098 -1.0514
 6750TIP3   OH241740   3.057   2.653  14.948  0.4323  0.0365  0.5145
 6750TIP3    H141741   2.984   2.711  14.928  0.3968 -0.3241 -0.4619
 6750TIP3    H241742   3.016   2.575  14.985 -0.0004 -1.2763 -2.4214
 6751TIP3   OH241743   5.351   0.728   5.014 -0.2908  0.2251 -0.4564
 6751TIP3    H141744   5.365   0.820   4.992 -1.7616  0.1681 -1.7923
 6751TIP3    H241745   5.347   0.684   4.929  3.0873 -1.5739  0.1559
 6752TIP3   OH241746   0.837   5.080   4.275 -0.0245  0.4313 -0.2193
 6752TIP3    H141747   0.784   5.003   4.295  1.3187 -1.1385 -2.3022
 6752TIP3    H241748   0.783   5.131   4.215 -0.6278  0.7786  0.5998
 6753TIP3   OH241749   1.492   0.345  15.324 -0.5452  0.2480  0.0983
 6753TIP3    H141750   1.532   0.264  15.294 -0.5030 -0.0298  0.8625
 6753TIP3    H241751   1.542   0.414  15.282 -1.0135 -0.1142 -1.1078
 6754TIP3   OH241752   3.497   5.841  13.408  0.7797 -0.2808  0.0161
 6754TIP3    H141753   3.515   5.874  13.497 -0.0515 -0.3363  0.2159
 6754TIP3    H241754   3.582   5.811  13.376  1.1224 -0.1152  0.7362
 6755TIP3   OH241755   1.307   1.842  16.824  0.7776  0.4795  0.3005
 6755TIP3    H141756   1.360   1.773  16.865 -1.1659 -0.8410  0.6963
 6755TIP3    H241757   1.344   1.851  16.736  0.8201 -1.3764  0.0977
 6756TIP3   OH241758   0.890   3.143  14.439  0.7671 -0.2162 -0.4145
 6756TIP3    H141759   0.944   3.220  14.425  1.0473 -0.8912 -4.1003
 6756TIP3    H241760   0.813   3.157  14.383  0.2631 -2.0984 -0.2757
 6757TIP3   OH241761   4.738   3.137   4.037  0.1078 -0.6172  0.4807
 6757TIP3    H141762   4.833   3.136   4.025  0.2722  1.8183  1.0100
 6757TIP3    H241763   4.705   3.194   3.967 -0.9876 -1.5279  0.2276
 6758TIP3   OH241764   2.851   2.312  17.057 -0.4206 -0.6113  0.5966
 6758TIP3    H141765   2.847   2.372  17.131  2.1572  0.6059 -0.1441
 6758TIP3    H241766   2.777   2.338  17.002 -0.1306  1.0612  0.9247
 6759TIP3   OH241767   1.178   5.859  14.166  0.1015 -0.8667 -0.1685
 6759TIP3    H141768   1.231   5.793  14.122  0.3288 -0.6332 -0.2454
 6759TIP3    H241769   1.207   5.943  14.129  2.3022 -0.3721  2.3957
 6760TIP3   OH241770   0.605   4.159   3.686  0.0597 -0.3642  0.1153
 6760TIP3    H141771   0.676   4.167   3.749  0.0638  0.8835 -0.0284
 6760TIP3    H241772   0.599   4.245   3.645 -1.8832 -0.2842  0.4854
 6761TIP3   OH241773   2.466   0.070  13.821  0.1002  0.6737 -0.2249
 6761TIP3    H141774   2.396   0.035  13.876  0.4278  0.7010  0.2197
 6761TIP3    H241775   2.526  -0.003  13.809 -0.6216  0.2983 -1.6438
 6762TIP3   OH241776   5.956   6.636   1.571 -0.6585 -0.5098  0.6600
 6762TIP3    H141777   5.875   6.685   1.554  0.1902  0.2604 -1.4462
 6762TIP3    H241778   5.954   6.564   1.507  1.9472  1.6016 -2.0304
 6763TIP3   OH241779   1.038   4.249  13.848  0.5202  0.0976 -0.3585
 6763TIP3    H141780   1.110   4.300  13.809 -0.2224  0.8804 -0.7394
 6763TIP3    H241781   1.004   4.305  13.917  1.7377 -1.2338  1.3960
 6764TIP3   OH241782   1.915   0.291   0.094  0.0036  0.1547 -0.0335
 6764TIP3    H141783   1.950   0.372   0.056  0.5825 -0.1761 -0.2282
 6764TIP3    H241784   1.835   0.274   0.045 -1.9081  2.2684  2.0496
 6765TIP3   OH241785   6.109   6.294  11.524 -0.4192 -0.2620  0.2932
 6765TIP3    H141786   6.128   6.203  11.546  2.5424 -0.0867 -1.0578
 6765TIP3    H241787   6.073   6.291  11.436 -1.0327 -0.1748  0.5407
 6766TIP3   OH241788   0.277   0.135  16.382  0.3460 -0.3209 -0.2983
 6766TIP3    H141789   0.305   0.092  16.464  0.1171 -0.1437 -0.1269
 6766TIP3    H241790   0.337   0.100  16.316  1.6349  0.8067  0.2317
 6767TIP3   OH241791   2.966   4.565  16.795 -0.7143  0.2494 -0.0140
 6767TIP3    H141792   2.975   4.634  16.729  0.9279  1.4367  1.3740
 6767TIP3    H241793   2.967   4.484  16.744  3.5165  0.9100 -1.3942
 6768TIP3   OH241794   6.597   0.609  14.926  0.2368  0.0669  0.0559
 6768TIP3    H141795   6.645   0.631  15.006 -1.6315  1.6308  0.8039
 6768TIP3    H241796   6.506   0.597  14.954 -0.1977 -0.9833 -1.6017
 6769TIP3   OH241797   3.957   3.259   1.304 -0.3453  0.2321 -0.1685
 6769TIP3    H141798   3.949   3.251   1.399 -0.2666 -0.1220 -0.1929
 6769TIP3    H241799   4.023   3.329   1.292  0.8514 -0.8199  0.0547
 6770TIP3   OH241800   3.729   1.760  12.660 -0.5124 -0.4901 -0.1072
 6770TIP3    H141801   3.817   1.721  12.657 -1.7044 -3.3905 -0.3938
 6770TIP3    H241802   3.714   1.777  12.753 -0.0037 -0.8576  0.0514
 6771TIP3   OH241803   0.338   2.462   2.116 -0.0807  0.3741 -0.2308
 6771TIP3    H141804   0.366   2.553   2.124 -0.8226  0.6121 -0.2483
 6771TIP3    H241805   0.333   2.431   2.206  1.4764 -0.0802 -0.2626
 6772TIP3   OH241806   2.524   6.307  16.694  0.5622 -0.4308 -1.1857
 6772TIP3    H141807   2.601   6.254  16.716  2.3179  2.1301 -0.7759
 6772TIP3    H241808   2.498   6.348  16.776  0.5849  0.9522 -1.8339
 6773TIP3   OH241809   0.714   1.868  14.641  0.8319 -0.3662 -0.1519
 6773TIP3    H141810   0.752   1.839  14.724 -2.2222 -1.8865  0.8378
 6773TIP3    H241811   0.754   1.809  14.576  0.5683 -1.6228  0.7777
 6774TIP3   OH241812   3.639   2.301   4.247 -0.2309 -0.1920 -0.3942
 6774TIP3    H141813   3.548   2.277   4.263 -0.3548  0.3331 -0.2914
 6774TIP3    H241814   3.670   2.238   4.181 -1.3439  1.0216 -2.1638
 6775TIP3   OH241815   6.753   4.729  12.499 -0.2456  0.3005  0.1607
 6775TIP3    H141816   6.757   4.824  12.495 -1.4094  0.3643  0.3464
 6775TIP3    H241817   6.763   4.701  12.408  0.0332  0.5993  0.0981
 6776TIP3   OH241818   0.031   2.422  13.261 -0.2258  1.0316 -0.5954
 6776TIP3    H141819   0.026   2.514  13.288 -1.9936  0.9385 -0.4746
 6776TIP3    H241820  -0.036   2.378  13.313  1.0017 -0.4780 -0.2046
 6777TIP3   OH241821   0.862   4.528  12.874 -0.4697 -0.5808  0.0401
 6777TIP3    H141822   0.873   4.444  12.918  2.7152  0.5895  1.8461
 6777TIP3    H241823   0.875   4.593  12.943 -1.6813  1.4278 -1.5107
 6778TIP3   OH241824   3.676   4.237   7.355 -0.8810  0.3539  0.0128
 6778TIP3    H141825   3.714   4.257   7.269  0.2482  1.3246  0.7219
 6778TIP3    H241826   3.582   4.250   7.343 -0.5603  2.3534 -0.5793
 6779TIP3   OH241827   5.202   3.029   5.010  0.3331 -0.1748 -0.6132
 6779TIP3    H141828   5.138   3.053   5.077 -0.5998  3.5874 -2.5457
 6779TIP3    H241829   5.156   2.966   4.954  0.1163 -1.1945  0.6859
 6780TIP3   OH241830   4.757   0.526  15.254  0.1103 -0.0590 -0.6331
 6780TIP3    H141831   4.706   0.587  15.307  1.7161 -0.2368  1.2306
 6780TIP3    H241832   4.801   0.581  15.190 -0.2807  0.4462 -0.4731
 6781TIP3   OH241833   5.723   6.277   2.651  0.3722 -0.1649  0.8656
 6781TIP3    H141834   5.629   6.258   2.659  0.5971 -0.9048  1.9080
 6781TIP3    H241835   5.726   6.364   2.612 -0.7393 -0.3712  0.2601
 6782TIP3   OH241836   3.632   6.213   2.387  0.2225 -0.2262 -0.1591
 6782TIP3    H141837   3.592   6.219   2.301 -0.9234 -0.1705  0.3570
 6782TIP3    H241838   3.633   6.303   2.420 -1.7454 -0.5093  0.8939
 6783TIP3   OH241839   2.655   6.603  15.198 -0.0678 -0.0097 -0.7726
 6783TIP3    H141840   2.742   6.593  15.237 -0.2989 -1.5963 -0.6302
 6783TIP3    H241841   2.650   6.696  15.176  2.3671 -0.1986 -2.4706
 6784TIP3   OH241842   4.554   0.906   0.624 -0.1500 -0.0187  0.2024
 6784TIP3    H141843   4.502   0.829   0.598  1.5989 -1.3230  0.3970
 6784TIP3    H241844   4.595   0.880   0.707  1.4894  0.6143 -0.3802
 6785TIP3   OH241845   5.410   1.488   2.235  0.4133  0.3745  0.0865
 6785TIP3    H141846   5.343   1.557   2.233 -2.1985 -1.9900 -0.9455
 6785TIP3    H241847   5.411   1.459   2.327  1.4288  1.6106  0.4967
 6786TIP3   OH241848   6.282   6.105  14.021  0.2009 -0.1420 -0.7484
 6786TIP3    H141849   6.226   6.166  14.069 -1.8186 -0.5074 -2.4929
 6786TIP3    H241850   6.302   6.150  13.939  2.3515 -0.1216 -0.2777
 6787TIP3   OH241851   5.827   5.052  14.060 -0.1424 -0.0906  0.3094
 6787TIP3    H141852   5.786   5.120  14.007 -0.6816  0.0888  0.9397
 6787TIP3    H241853   5.906   5.028  14.012 -1.0309 -0.5122 -0.9828
 6788TIP3   OH241854   0.712   3.754  11.417 -0.0922 -0.6001  0.3928
 6788TIP3    H141855   0.633   3.746  11.471 -0.9091 -0.2483 -0.7124
 6788TIP3    H241856   0.704   3.840  11.376  1.2517 -0.2452  0.8383
 6789TIP3   OH241857   3.389   3.141   4.960  0.3007  0.3376 -0.2701
 6789TIP3    H141858   3.473   3.117   4.920  0.5268  1.1616 -0.3140
 6789TIP3    H241859   3.324   3.094   4.909  0.4576  2.4763 -2.6288
 6790TIP3   OH241860   1.112   1.559  13.423 -0.4760  0.0495 -0.3706
 6790TIP3    H141861   1.060   1.516  13.491  0.0993 -0.2101 -0.0879
 6790TIP3    H241862   1.139   1.642  13.462 -0.4371  0.0559 -0.4113
 6791TIP3   OH241863   3.329   2.834  11.315  0.4887  0.0356 -0.1925
 6791TIP3    H141864   3.368   2.748  11.304  1.7642  0.6780 -0.9570
 6791TIP3    H241865   3.254   2.836  11.256  0.5285 -0.4913 -0.2594
 6792TIP3   OH241866   6.710   5.145  13.301  0.1022  0.1130 -0.5227
 6792TIP3    H141867   6.627   5.179  13.336  0.3122  2.0336 -1.8069
 6792TIP3    H241868   6.777   5.195  13.346  0.3965  2.2227 -3.0937
 6793TIP3   OH241869   6.506   4.982  10.170 -0.0750  0.1800 -0.6002
 6793TIP3    H141870   6.426   5.030  10.191  0.1621  0.8048 -1.1060
 6793TIP3    H241871   6.475   4.901  10.128 -0.5383 -0.8590  1.6008
 6794TIP3   OH241872   5.795   0.913   1.873  0.3577  0.0843 -0.4137
 6794TIP3    H141873   5.809   0.836   1.928 -0.0235 -1.0263 -1.8098
 6794TIP3    H241874   5.850   0.981   1.911 -0.7536 -0.2786  2.0121
 6795TIP3   OH241875   1.434   4.311  15.103 -0.1928  0.0599  0.0773
 6795TIP3    H141876   1.519   4.289  15.066 -0.5361 -0.6073 -0.3494
 6795TIP3    H241877   1.388   4.357  15.032 -0.7592 -0.9956 -0.2760
 6796TIP3   OH241878   4.257   3.725  11.792 -0.7507 -0.6091  0.6164
 6796TIP3    H141879   4.184   3.675  11.829 -1.4807 -0.4237 -0.5201
 6796TIP3    H241880   4.239   3.728  11.698  1.6870 -2.1219  0.0207
 6797TIP3   OH241881   6.658   4.864  12.839  0.4590 -0.0878  0.2905
 6797TIP3    H141882   6.619   4.791  12.888 -0.2117 -0.0036 -0.0979
 6797TIP3    H241883   6.583   4.919  12.815  1.0274  1.1519  1.2425
 6798TIP3   OH241884   3.300   0.796  12.626  0.1044 -0.1557 -0.4992
 6798TIP3    H141885   3.232   0.862  12.617 -0.5867 -0.4561  1.8362
 6798TIP3    H241886   3.382   0.846  12.621 -0.3965  0.8928  0.8235
 6799TIP3   OH241887   6.438   3.482  16.450 -0.3321 -0.1189 -0.5826
 6799TIP3    H141888   6.451   3.536  16.527 -1.8494  0.0621 -0.4237
 6799TIP3    H241889   6.513   3.501  16.394  0.7999 -0.2557  0.8229
 6800TIP3   OH241890   6.602   4.982   1.088 -0.1520 -0.1833 -0.2181
 6800TIP3    H141891   6.614   4.935   1.170 -0.2234  1.9470  1.0929
 6800TIP3    H241892   6.510   4.966   1.064 -0.9989  1.4281  1.6806
 6801TIP3   OH241893   1.268   1.219   3.478 -0.1108 -0.0849  0.1308
 6801TIP3    H141894   1.250   1.208   3.385 -0.8863 -1.2151  0.3939
 6801TIP3    H241895   1.207   1.287   3.506 -0.4374 -0.3118 -0.0240
 6802TIP3   OH241896   5.000   1.064   1.929 -0.4496 -0.5414  0.6197
 6802TIP3    H141897   5.046   1.041   1.849  1.1478 -0.5931  1.5050
 6802TIP3    H241898   4.996   1.160   1.929  0.8551 -0.4666  1.1379
 6803TIP3   OH241899   5.814   5.763   0.400  0.3930 -0.1015  0.5822
 6803TIP3    H141900   5.783   5.837   0.347 -0.2785 -1.3604 -0.8438
 6803TIP3    H241901   5.851   5.804   0.478 -1.5424  1.6550  0.6615
 6804TIP3   OH241902   5.228   5.034  16.941 -0.2977 -0.1282 -0.3309
 6804TIP3    H141903   5.279   5.036  16.861  2.0216  0.6259  1.0651
 6804TIP3    H241904   5.273   4.971  16.997 -2.2142 -1.1008  0.1983
 6805TIP3   OH241905   1.562   0.446   6.187 -0.1859  0.3217 -0.1564
 6805TIP3    H141906   1.623   0.374   6.204 -1.2452 -0.3780  0.7906
 6805TIP3    H241907   1.479   0.417   6.225 -1.1406  1.2360 -1.4736
 6806TIP3   OH241908   0.020   6.523  16.996 -0.1603 -0.7064 -0.1785
 6806TIP3    H141909   0.098   6.579  16.993 -1.4292  1.1697 -0.2291
 6806TIP3    H241910   0.037   6.455  16.932  0.3097  1.2805 -2.2950
 6807TIP3   OH241911   5.584   1.654  13.337 -0.3335  0.8530 -0.3058
 6807TIP3    H141912   5.533   1.703  13.273  0.3406  0.4399 -1.1727
 6807TIP3    H241913   5.529   1.580  13.360  0.0450  0.1463 -1.5990
 6808TIP3   OH241914   1.917   2.890   2.578 -0.4021  0.2119  0.7531
 6808TIP3    H141915   1.979   2.834   2.530 -1.1325 -0.0905  0.1340
 6808TIP3    H241916   1.936   2.978   2.546 -0.6441  0.0554  0.1512
 6809TIP3   OH241917   5.429   6.367   5.361 -0.5574  0.1783  0.0002
 6809TIP3    H141918   5.458   6.277   5.376 -0.4567  0.4278  1.3867
 6809TIP3    H241919   5.407   6.369   5.268 -1.3132 -1.4933  0.1037
 6810TIP3   OH241920   2.521   1.385  17.087 -0.0927  0.3559 -0.5449
 6810TIP3    H141921   2.614   1.386  17.106 -0.3428 -0.1509  0.8262
 6810TIP3    H241922   2.492   1.475  17.105 -0.0143  0.2990 -0.1207
 6811TIP3   OH241923   4.578   3.655   0.672 -0.2422  0.1235 -0.3716
 6811TIP3    H141924   4.487   3.678   0.657 -0.6377 -0.3970  1.0763
 6811TIP3    H241925   4.616   3.648   0.584 -1.0262  2.4397 -0.9753
 6812TIP3   OH241926   3.981   2.121  10.523 -0.0673 -0.3984 -0.5166
 6812TIP3    H141927   4.055   2.077  10.564 -0.6810 -1.1501 -0.1944
 6812TIP3    H241928   3.909   2.059  10.530 -1.5250  1.4009  1.7782
 6813TIP3   OH241929   2.639   6.327   1.203 -0.0903  0.3073 -0.2591
 6813TIP3    H141930   2.616   6.235   1.187 -1.9496  0.7339 -0.2502
 6813TIP3    H241931   2.600   6.347   1.288  0.3218  1.1026 -0.2491
 6814TIP3   OH241932   1.052   4.011  13.539 -0.5705 -0.7760 -0.2881
 6814TIP3    H141933   1.129   3.977  13.585 -0.8044 -0.2613  0.4930
 6814TIP3    H241934   1.044   4.102  13.569 -0.3325 -0.2018 -1.8658
 6815TIP3   OH241935   3.171   3.576  12.815  0.9088 -0.4351 -0.3203
 6815TIP3    H141936   3.125   3.626  12.748  1.6548  0.7005 -0.0004
 6815TIP3    H241937   3.186   3.491  12.775 -0.4048 -0.4382 -0.8573
 6816TIP3   OH241938   0.358   5.152  14.427  0.3511 -0.3737  0.0385
 6816TIP3    H141939   0.369   5.062  14.455  0.8788 -0.4706 -0.4635
 6816TIP3    H241940   0.436   5.197  14.457  0.7963 -0.4196 -0.9906
 6817TIP3   OH241941   1.798   0.167   2.706 -0.1958  0.2241 -0.7299
 6817TIP3    H141942   1.880   0.211   2.682 -0.8893  1.8145 -0.3452
 6817TIP3    H241943   1.783   0.194   2.797 -1.6876  0.8768 -1.1359
 6818TIP3   OH241944   1.193   1.263  13.199 -0.1520 -0.3152 -0.5159
 6818TIP3    H141945   1.283   1.286  13.175 -0.2805 -0.6222 -1.3274
 6818TIP3    H241946   1.142   1.340  13.177 -0.0699 -0.0949  0.0625
 6819TIP3   OH241947   0.471   0.224   0.129  0.1361  0.5088  0.4504
 6819TIP3    H141948   0.427   0.289   0.074  0.9681  0.7743  0.0868
 6819TIP3    H241949   0.545   0.194   0.077  0.1268 -0.2740  0.8737
 6820TIP3   OH241950   5.350   3.321  10.685 -0.5372  0.5003 -0.2312
 6820TIP3    H141951   5.290   3.329  10.610  0.6497  1.2010 -1.1519
 6820TIP3    H241952   5.368   3.227  10.692 -1.2706  0.3467 -0.3144
 6821TIP3   OH241953   6.465   3.860  16.499 -0.0061 -0.2199  0.0988
 6821TIP3    H141954   6.473   3.796  16.569 -0.0990 -0.6658 -0.2902
 6821TIP3    H241955   6.391   3.828  16.446  2.2142 -1.8719 -2.2265
 6822TIP3   OH241956   4.330   5.033  16.457  0.0027  0.8910 -0.0074
 6822TIP3    H141957   4.342   5.110  16.512 -2.8423  1.4259  0.0159
 6822TIP3    H241958   4.398   4.972  16.485 -0.2130  1.8401  2.8487
 6823TIP3   OH241959   2.342   4.161  13.805  0.0190 -0.4088 -0.1350
 6823TIP3    H141960   2.433   4.132  13.807 -0.2063 -1.0822  1.1322
 6823TIP3    H241961   2.346   4.254  13.826  0.1651 -1.2596  4.8097
 6824TIP3   OH241962   2.709   4.346  16.886  0.1068  0.0100 -0.0596
 6824TIP3    H141963   2.699   4.282  16.815 -1.4020  0.1512  0.0067
 6824TIP3    H241964   2.683   4.429  16.847 -1.7928 -0.0794  0.9201
 6825TIP3   OH241965   3.351   0.514   5.675 -0.1369 -0.1998 -0.3887
 6825TIP3    H141966   3.361   0.545   5.765 -2.0997 -2.6480  0.7961
 6825TIP3    H241967   3.258   0.530   5.654  0.2582  0.2257 -1.9728
 6826TIP3   OH241968   6.461   1.761   6.009  0.2683  0.2572 -0.1049
 6826TIP3    H141969   6.452   1.672   5.977  0.7159  0.1987 -0.0814
 6826TIP3    H241970   6.554   1.782   5.994 -0.0657  1.1057 -1.1244
 6827TIP3   OH241971   0.416   3.466  14.515 -0.4482 -0.2322 -0.3053
 6827TIP3    H141972   0.352   3.442  14.582  0.2718  3.6778  2.0622
 6827TIP3    H241973   0.501   3.452  14.556  0.0146  1.5415 -0.5726
 6828TIP3   OH241974   1.850   1.310   1.398 -0.0531 -0.0730  0.2251
 6828TIP3    H141975   1.910   1.383   1.413 -0.1304 -0.4132  2.6923
 6828TIP3    H241976   1.787   1.316   1.469 -2.5863 -0.1768 -1.8805
 6829TIP3   OH241977   5.961   4.529  16.962 -0.0671  0.1719 -0.1643
 6829TIP3    H141978   5.995   4.580  17.035 -2.3182 -0.7507  1.6771
 6829TIP3    H241979   5.983   4.439  16.984  0.9145  0.0103 -1.6669
 6830TIP3   OH241980   2.040   4.692  10.734 -0.6727  0.1493  0.1545
 6830TIP3    H141981   2.031   4.787  10.741  2.0364  0.7546 -2.5842
 6830TIP3    H241982   2.131   4.678  10.709 -0.9273 -3.2404  0.6436
 6831TIP3   OH241983   5.180   2.586  13.490 -0.8131  0.3075 -0.1093
 6831TIP3    H141984   5.189   2.594  13.585  0.5247  1.2645 -0.2939
 6831TIP3    H241985   5.110   2.646  13.468 -1.3247 -0.1268  0.2878
 6832TIP3   OH241986   3.691   5.311  14.939  0.1116  0.1891  0.1567
 6832TIP3    H141987   3.707   5.324  15.032  1.1462  2.5096 -0.2822
 6832TIP3    H241988   3.772   5.270  14.907  1.4226  2.9121 -0.3163
 6833TIP3   OH241989   0.709   6.462   1.018  0.6448 -0.3923  0.3048
 6833TIP3    H141990   0.682   6.443   0.928 -2.4026 -0.1959  1.0715
 6833TIP3    H241991   0.741   6.552   1.014  0.2378 -0.2697 -0.5476
 6834TIP3   OH241992   6.830   4.178   4.207 -0.5098 -0.1164  0.0717
 6834TIP3    H141993   6.745   4.135   4.196 -0.8439  0.6872 -0.6278
 6834TIP3    H241994   6.892   4.106   4.222 -0.9642 -0.9131 -1.6170
 6835TIP3   OH241995   4.969   2.744   0.315 -0.3022 -0.3062 -0.4615
 6835TIP3    H141996   4.980   2.828   0.358  1.4633 -0.0900 -1.2355
 6835TIP3    H241997   5.016   2.682   0.371 -2.1351 -0.9527  0.4543
 6836TIP3   OH241998   0.071   2.175  12.259 -0.0660  0.2788  0.4376
 6836TIP3    H141999   0.006   2.227  12.212 -0.6503  0.3189  1.2584
 6836TIP3    H242000   0.046   2.085  12.243  0.2952  0.2724 -0.0940
 6837TIP3   OH242001   5.572   4.111  14.461 -0.0759  0.0269  0.2223
 6837TIP3    H142002   5.658   4.140  14.493 -0.3150  0.2188  0.6988
 6837TIP3    H242003   5.528   4.192  14.434 -0.0164 -0.0958 -0.2612
 6838TIP3   OH242004   3.089   4.861  16.854 -0.5645 -0.2135 -0.1925
 6838TIP3    H142005   3.076   4.766  16.855 -1.5563 -0.1841 -2.8911
 6838TIP3    H242006   3.175   4.873  16.815  0.0524  0.0135  1.1889
 6839TIP3   OH242007   3.780   0.466  14.497 -0.1150 -0.5801  0.1960
 6839TIP3    H142008   3.796   0.440  14.406  0.4849 -1.1951  0.4771
 6839TIP3    H242009   3.716   0.403  14.529 -0.6650 -0.0918  0.0679
 6840TIP3   OH242010   0.656   5.092  13.850 -0.9038  0.0685  0.3587
 6840TIP3    H142011   0.626   5.099  13.941 -0.1948  1.3472  0.5170
 6840TIP3    H242012   0.579   5.112  13.797 -1.1462  0.0319  0.6976
 6841TIP3   OH242013   4.652   2.572  12.678 -0.2452  0.2546  0.3283
 6841TIP3    H142014   4.608   2.629  12.741 -0.4757 -2.2119  2.5636
 6841TIP3    H242015   4.614   2.485  12.693  0.5128 -0.6643 -2.4896
 6842TIP3   OH242016   4.428   6.686   3.726  0.3753  0.2238  0.1613
 6842TIP3    H142017   4.396   6.660   3.812  0.1412 -2.3380 -0.6114
 6842TIP3    H242018   4.523   6.690   3.736  0.2908  0.9127  0.7562
 6843TIP3   OH242019   5.955   2.914  13.366 -0.3265  0.0589 -0.2477
 6843TIP3    H142020   5.980   2.856  13.438 -0.1196 -1.9798 -1.8589
 6843TIP3    H242021   5.871   2.879  13.335 -0.3343  0.7847 -1.1024
 6844TIP3   OH242022   0.992   3.393  15.813  0.1199  0.5144  0.2996
 6844TIP3    H142023   0.930   3.321  15.804  0.7594 -0.0392  0.2461
 6844TIP3    H242024   0.951   3.452  15.876 -0.5343  0.2429  0.1357
 6845TIP3   OH242025   4.053   2.690   6.441 -0.6651 -0.3287 -0.7917
 6845TIP3    H142026   4.102   2.612   6.413 -2.2884 -2.5275  1.9454
 6845TIP3    H242027   4.119   2.747   6.480  0.1652 -1.9757  0.3443
 6846TIP3   OH242028   3.703   4.366   7.045 -0.6507 -0.4422  0.1594
 6846TIP3    H142029   3.794   4.339   7.049 -0.5471 -0.0516  0.5366
 6846TIP3    H242030   3.661   4.301   6.988  0.0318 -0.1214 -0.7198
 6847TIP3   OH242031   0.243   3.838   3.473 -0.0452  0.0969 -0.0099
 6847TIP3    H142032   0.326   3.794   3.490  0.1018 -0.0388 -1.0266
 6847TIP3    H242033   0.210   3.798   3.392 -1.8337 -0.9195  1.1474
 6848TIP3   OH242034   2.282   4.383  16.552  0.6110 -0.0299 -0.6574
 6848TIP3    H142035   2.267   4.307  16.608 -1.0409  0.9989  0.3794
 6848TIP3    H242036   2.227   4.367  16.475 -0.7677  0.6750  0.1481
 6849TIP3   OH242037   5.294   4.482  11.751  0.5514 -0.1681  0.9390
 6849TIP3    H142038   5.284   4.441  11.837 -0.6053  0.5869  1.1803
 6849TIP3    H242039   5.312   4.409  11.692  0.7913 -0.7570  1.7254
 6850TIP3   OH242040   4.861   6.051  15.934 -0.4212 -0.9032 -0.2916
 6850TIP3    H142041   4.902   6.002  15.862  2.4576  1.7901 -0.7269
 6850TIP3    H242042   4.919   6.035  16.009  0.9962  2.1012 -0.6075
 6851TIP3   OH242043   1.884   5.049  16.583 -0.1633 -0.1565  0.9733
 6851TIP3    H142044   1.913   4.981  16.523 -2.3462  0.4562 -0.9283
 6851TIP3    H242045   1.891   5.010  16.670  0.2942 -2.1685  0.0765
 6852TIP3   OH242046   2.359   3.217  11.543 -0.2732 -0.2891  0.7156
 6852TIP3    H142047   2.300   3.171  11.484 -0.1248  0.3744  0.0273
 6852TIP3    H242048   2.329   3.308  11.541 -0.6248 -0.3480  2.1232
 6853TIP3   OH242049   4.040   1.249   1.875 -0.3685  0.1333  0.7345
 6853TIP3    H142050   4.094   1.210   1.807 -0.6994 -2.7641  2.0111
 6853TIP3    H242051   3.961   1.278   1.829 -0.1470 -0.8142 -0.2680
 6854TIP3   OH242052   2.863   0.609   4.264  0.5347  0.2781 -0.2578
 6854TIP3    H142053   2.934   0.596   4.327  0.6172 -2.2136 -0.7467
 6854TIP3    H242054   2.881   0.544   4.195 -1.2240  0.8556 -1.3094
 6855TIP3   OH242055   2.506   4.434  10.871  0.3788  0.0686 -0.1924
 6855TIP3    H142056   2.478   4.519  10.838  1.4434  0.1943 -0.8273
 6855TIP3    H242057   2.601   4.441  10.875  0.4173 -0.7992  0.5813
 6856TIP3   OH242058   5.287   3.542  13.531  0.9855  0.0104 -0.0742
 6856TIP3    H142059   5.380   3.557  13.550  0.6738  0.0845  1.5360
 6856TIP3    H242060   5.255   3.625  13.497  1.2237  0.4000  0.6263
 6857TIP3   OH242061   4.011   6.613   5.502  0.2858  0.6784  0.4136
 6857TIP3    H142062   3.924   6.583   5.476 -0.1603  1.4061  1.0273
 6857TIP3    H242063   4.021   6.581   5.591 -0.0004  1.9210  0.9026
 6858TIP3   OH242064   3.595   2.861  15.750 -0.3227 -0.9056  0.4094
 6858TIP3    H142065   3.523   2.797  15.753 -2.0634  1.0002  1.7998
 6858TIP3    H242066   3.557   2.942  15.783  1.8962  0.8238 -0.9780
 6859TIP3   OH242067   0.190   5.183  11.938 -0.9272  0.4261 -0.7281
 6859TIP3    H142068   0.107   5.136  11.933 -0.8251  0.2389 -0.6780
 6859TIP3    H242069   0.257   5.114  11.933 -0.7724  0.5942 -0.9872
 6860TIP3   OH242070   1.960   0.585  15.596 -0.3942  0.0439 -0.3487
 6860TIP3    H142071   2.036   0.552  15.644  1.4396  0.3558 -2.8608
 6860TIP3    H242072   1.980   0.677  15.579 -1.1855  0.0536 -1.3183
 6861TIP3   OH242073   4.188   3.488   1.480  0.0563 -0.2823 -0.1554
 6861TIP3    H142074   4.136   3.509   1.403 -1.2020  0.7880  0.9352
 6861TIP3    H242075   4.236   3.569   1.500 -1.8270  0.4489  1.7974
 6862TIP3   OH242076   1.995   0.361   6.135 -0.1931 -0.2129  0.1434
 6862TIP3    H142077   2.004   0.437   6.192 -2.6845 -1.0679  1.8577
 6862TIP3    H242078   2.084   0.327   6.126  0.6398  1.4804  1.3065
 6863TIP3   OH242079   5.121   1.340   6.096  0.3019 -0.1874 -0.0103
 6863TIP3    H142080   5.173   1.419   6.089 -1.7829  1.2122 -0.5031
 6863TIP3    H242081   5.042   1.367   6.142  0.4992 -2.5173  1.9314
 6864TIP3   OH242082   3.051   5.830  16.906 -0.3721  0.3399 -0.6486
 6864TIP3    H142083   3.101   5.886  16.846 -2.7650  1.0975 -2.0908
 6864TIP3    H242084   3.044   5.880  16.987  1.3320  0.1133 -0.3320
 6865TIP3   OH242085   5.970   6.652   1.013  0.0072 -0.0794  0.3553
 6865TIP3    H142086   5.939   6.711   0.944  0.0852 -0.5704 -0.1044
 6865TIP3    H242087   5.934   6.689   1.094  0.1597  0.6690  0.0937
 6866TIP3   OH242088   0.929   4.649   0.995  0.1310 -0.0740  0.1606
 6866TIP3    H142089   0.985   4.612   1.063 -0.6539 -0.1006  0.8132
 6866TIP3    H242090   0.902   4.734   1.030  1.3946  0.8694 -1.0382
 6867TIP3   OH242091   4.499   3.654  11.898  0.2736 -0.2479  0.0696
 6867TIP3    H142092   4.512   3.737  11.944  0.2856  0.8038 -1.7406
 6867TIP3    H242093   4.418   3.665  11.850  0.6822 -0.9792 -0.8220
 6868TIP3   OH242094   0.738   3.295   5.207 -0.0710  0.5775 -0.6995
 6868TIP3    H142095   0.832   3.283   5.212 -0.4391 -2.7529  1.2288
 6868TIP3    H242096   0.718   3.357   5.277  0.6535  1.1327 -0.9768
 6869TIP3   OH242097   2.218   5.139   5.317 -0.2377 -0.1055 -0.2856
 6869TIP3    H142098   2.254   5.062   5.275 -0.4674 -1.2927  1.5876
 6869TIP3    H242099   2.136   5.156   5.270 -0.4378 -1.3222 -0.4053
 6870TIP3   OH242100   2.568   0.525   1.082  0.1178 -0.1119 -0.4519
 6870TIP3    H142101   2.503   0.499   1.147  0.6295 -1.2905 -0.3942
 6870TIP3    H242102   2.652   0.503   1.121  0.6257  1.9485 -0.2785
 6871TIP3   OH242103   5.830   0.130   4.154 -0.0092 -0.2682 -0.3316
 6871TIP3    H142104   5.874   0.054   4.192  0.2934 -0.1196 -0.3864
 6871TIP3    H242105   5.822   0.109   4.061  1.0651  0.2360 -0.5514
 6872TIP3   OH242106   1.333   4.129  13.951  0.7250 -0.1125 -0.3533
 6872TIP3    H142107   1.335   4.224  13.936  1.3024 -0.5151 -3.4339
 6872TIP3    H242108   1.421   4.108  13.982  1.4515  0.1087 -2.1187
 6873TIP3   OH242109   2.820   3.175   2.342 -0.1273  0.0841  0.2216
 6873TIP3    H142110   2.897   3.233   2.334  1.2714 -1.4942  1.4525
 6873TIP3    H242111   2.791   3.187   2.432  0.8256 -1.8246  0.8271
 6874TIP3   OH242112   4.780   1.279  12.890  0.1724  0.4950  0.2594
 6874TIP3    H142113   4.805   1.316  12.805  0.1154 -0.2187 -0.0823
 6874TIP3    H242114   4.853   1.222  12.913 -2.0632 -3.8856 -2.1146
 6875TIP3   OH242115   2.221   3.083  14.768 -0.4972  0.1556 -0.3425
 6875TIP3    H142116   2.164   3.138  14.821 -0.6201  0.3436 -0.6687
 6875TIP3    H242117   2.224   3.000  14.816 -0.2362  0.4699  0.1975
 6876TIP3   OH242118   2.572   5.225  13.362  0.3527 -0.2633  0.8422
 6876TIP3    H142119   2.615   5.214  13.447 -0.2529 -2.9825  0.8838
 6876TIP3    H242120   2.478   5.229  13.384  0.1504 -1.5758  0.3271
 6877TIP3   OH242121   5.668   6.640  15.839 -0.6011 -0.4853  0.4168
 6877TIP3    H142122   5.713   6.629  15.922  0.6467  0.3329 -0.1187
 6877TIP3    H242123   5.734   6.677  15.780 -1.5486 -0.6945 -0.8372
 6878TIP3   OH242124   2.755   6.389  12.200  0.8293 -0.4107  0.2605
 6878TIP3    H142125   2.759   6.485  12.194  0.7416 -0.5061 -3.9931
 6878TIP3    H242126   2.667   6.371  12.234  0.6621  0.9804  0.6299
 6879TIP3   OH242127   2.627   5.777  12.044 -0.5482  0.3030 -0.7716
 6879TIP3    H142128   2.704   5.806  11.996 -0.3426  3.1111  1.0007
 6879TIP3    H242129   2.656   5.772  12.135 -1.8507 -1.0835 -0.3955
 6880TIP3   OH242130   6.784   6.042  14.565  0.2346 -0.0890  0.2075
 6880TIP3    H142131   6.697   6.024  14.602 -0.4814  2.3768 -0.1169
 6880TIP3    H242132   6.778   6.011  14.475 -0.4897  0.4483  0.0547
 6881TIP3   OH242133   2.579   5.245  14.815  0.0751 -0.2667 -0.5099
 6881TIP3    H142134   2.511   5.192  14.773 -0.9333  0.1626  0.5305
 6881TIP3    H242135   2.538   5.276  14.896  1.4383  0.2060  0.0142
 6882TIP3   OH242136   2.539   6.751   5.830  0.2901 -0.4971  0.4409
 6882TIP3    H142137   2.578   6.717   5.911 -1.5790 -1.2642  1.0561
 6882TIP3    H242138   2.604   6.732   5.763  0.4874 -2.8606  1.2165
 6883TIP3   OH242139   3.071   3.904   4.672  0.4414  0.1905  0.3339
 6883TIP3    H142140   3.146   3.898   4.613  0.6266 -1.9989  0.7252
 6883TIP3    H242141   3.097   3.969   4.737  0.6428  1.8931 -1.3590
 6884TIP3   OH242142   5.660   3.154  14.617  0.1610 -0.7506 -0.3334
 6884TIP3    H142143   5.645   3.221  14.683 -0.7337  0.4045 -1.6482
 6884TIP3    H242144   5.599   3.083  14.641 -1.1912  0.2474 -0.6701
 6885TIP3   OH242145   0.935   2.373   0.553  0.0297  0.4776  0.1226
 6885TIP3    H142146   0.960   2.324   0.475  0.8853  0.4423  0.4189
 6885TIP3    H242147   0.939   2.465   0.527 -1.5636  0.4339 -0.4295
 6886TIP3   OH242148   2.964   1.118  14.120  0.2450 -0.1425 -0.3829
 6886TIP3    H142149   3.034   1.060  14.150  1.7040  1.0470 -1.2944
 6886TIP3    H242150   2.992   1.145  14.032 -0.9335  1.0238 -0.4299
 6887TIP3   OH242151   5.193   4.952   3.740  0.4775  0.7937 -0.0627
 6887TIP3    H142152   5.221   4.930   3.829  0.8572  1.8427  0.0858
 6887TIP3    H242153   5.122   5.014   3.751 -0.5984 -0.3353 -0.4833
 6888TIP3   OH242154   6.000   1.184  17.007  0.0289  0.3804 -0.2354
 6888TIP3    H142155   6.070   1.149  17.062 -1.9792  0.0819  2.3787
 6888TIP3    H242156   6.038   1.260  16.964  1.9050  0.2967  1.1540
 6889TIP3   OH242157   3.496   6.629  11.540  0.2308  0.4752 -0.0779
 6889TIP3    H142158   3.512   6.609  11.632  2.2091  0.8233 -0.3123
 6889TIP3    H242159   3.465   6.719  11.540  1.2139  0.8215  0.1762
 6890TIP3   OH242160   0.582   5.564   4.715  0.2395  0.2688  0.1265
 6890TIP3    H142161   0.642   5.638   4.726 -0.0544  0.5749 -0.3189
 6890TIP3    H242162   0.589   5.541   4.623  2.5357 -2.1495  0.7700
 6891TIP3   OH242163   5.349   0.890  15.296  0.3644  0.2977 -0.0768
 6891TIP3    H142164   5.316   0.804  15.270 -0.8226  0.9725 -0.9240
 6891TIP3    H242165   5.374   0.932  15.214  2.3269  0.2514  0.4521
 6892TIP3   OH242166   0.892   6.444   3.933 -0.0015 -0.1900  0.4346
 6892TIP3    H142167   0.901   6.363   3.882  2.2246  0.1947  0.1058
 6892TIP3    H242168   0.822   6.492   3.889  0.4762 -0.7700 -1.0172
 6893TIP3   OH242169   1.293   0.701   2.320  0.0086 -0.2468  0.0830
 6893TIP3    H142170   1.233   0.637   2.359  0.6644 -0.7868  0.2018
 6893TIP3    H242171   1.335   0.743   2.395  1.4057 -1.4110 -0.0041
 6894TIP3   OH242172   6.771   3.884   2.546  0.2337  0.2055  0.5875
 6894TIP3    H142173   6.835   3.843   2.487 -1.1534 -2.6024  0.8431
 6894TIP3    H242174   6.802   3.974   2.556  4.0956 -0.9414  0.6714
 6895TIP3   OH242175   4.666   1.779  15.110  0.3610  0.2198 -0.4459
 6895TIP3    H142176   4.614   1.765  15.189  0.0360  0.7857 -0.5615
 6895TIP3    H242177   4.698   1.691  15.087  1.4780  0.2076  1.0040
 6896TIP3   OH242178   2.329   6.088  16.360 -0.6472 -0.3502 -0.0291
 6896TIP3    H142179   2.350   6.160  16.300  0.1244  0.8606  1.6034
 6896TIP3    H242180   2.412   6.043  16.375 -1.1317 -1.6320 -1.0564
 6897TIP3   OH242181   2.983   2.193   0.401  0.0238  0.1689 -0.5897
 6897TIP3    H142182   3.065   2.232   0.432 -0.7329  0.6921  0.8654
 6897TIP3    H242183   3.010   2.112   0.359  1.2176 -0.2388  0.8399
 6898TIP3   OH242184   0.043   1.468   3.154  0.3062  0.3922  0.4476
 6898TIP3    H142185  -0.020   1.418   3.206 -1.0532  0.6401 -0.8860
 6898TIP3    H242186   0.126   1.455   3.199 -0.5742 -0.4327  1.9453
 6899TIP3   OH242187   5.869   0.437   1.615  0.0561  0.4730 -0.0429
 6899TIP3    H142188   5.847   0.394   1.532 -0.4613 -0.4449  0.5519
 6899TIP3    H242189   5.882   0.365   1.677  0.2991  1.1496  0.7105
 6900TIP3   OH242190   1.400   1.058  11.503  0.9579 -0.2159 -0.3409
 6900TIP3    H142191   1.347   0.997  11.452  0.6137 -1.0739  0.9661
 6900TIP3    H242192   1.370   1.044  11.593  3.3556 -0.7078  0.4469
 6901TIP3   OH242193   4.554   1.134  10.465 -0.4286 -0.3247  0.0385
 6901TIP3    H142194   4.572   1.224  10.437  0.7647 -0.2975  0.8117
 6901TIP3    H242195   4.542   1.086  10.383  1.2658  0.0921 -0.5037
 6902TIP3   OH242196   2.529   2.589   0.664 -0.3062  0.1746  0.1905
 6902TIP3    H142197   2.572   2.574   0.748  0.8978 -0.9911 -0.5901
 6902TIP3    H242198   2.448   2.539   0.669 -0.2087  0.0553  0.6171
 6903TIP3   OH242199   4.845   4.544  14.604 -0.0409 -0.3340 -0.3974
 6903TIP3    H142200   4.777   4.477  14.604  0.1413 -0.5328 -1.2120
 6903TIP3    H242201   4.816   4.609  14.539  0.6608 -0.5539 -0.9461
 6904TIP3   OH242202   3.434   6.214   0.038  0.2179 -0.2473 -0.4756
 6904TIP3    H142203   3.487   6.293   0.022  0.2211 -0.3314 -0.9029
 6904TIP3    H242204   3.466   6.181   0.121 -0.4296  0.7263  0.1836
 6905TIP3   OH242205   2.643   1.296   3.106  0.3396 -0.0394  0.0403
 6905TIP3    H142206   2.646   1.205   3.137  2.7555 -0.5736 -1.4599
 6905TIP3    H242207   2.558   1.304   3.064 -0.7873 -0.9087  2.0227
 6906TIP3   OH242208   1.929   6.100  16.461 -0.2957 -0.1631  0.2078
 6906TIP3    H142209   1.850   6.119  16.411 -0.0940  1.9665  0.6114
 6906TIP3    H242210   1.991   6.067  16.396 -0.9839 -0.2863 -0.3981
 6907TIP3   OH242211   0.751   5.766   4.812  0.6006  0.0294 -0.6397
 6907TIP3    H142212   0.803   5.842   4.838  1.9239 -0.7230 -0.9453
 6907TIP3    H242213   0.808   5.691   4.832 -1.7479 -1.1491  2.4393
 6908TIP3   OH242214   5.401   6.714  11.923 -0.0032  0.5404  0.4551
 6908TIP3    H142215   5.419   6.682  12.012 -1.1874  1.2803  0.9954
 6908TIP3    H242216   5.401   6.636  11.869  1.8173  0.1883  0.8960
 6909TIP3   OH242217   1.971   2.038  13.838 -0.1105 -0.4468 -0.8973
 6909TIP3    H142218   1.961   1.953  13.796 -0.2985 -0.7994 -0.1441
 6909TIP3    H242219   2.056   2.033  13.882 -0.7717 -0.7759  0.3607
 6910TIP3   OH242220   1.088   4.769   5.546  0.0760  0.1334 -0.6716
 6910TIP3    H142221   1.040   4.709   5.489  1.9434  0.1993 -2.3846
 6910TIP3    H242222   1.153   4.714   5.590 -0.6140  0.2879  0.6045
 6911TIP3   OH242223   4.084   3.687  13.182 -0.1187  0.5431  0.0689
 6911TIP3    H142224   4.009   3.642  13.220 -0.9256  1.0361 -0.8791
 6911TIP3    H242225   4.069   3.683  13.088  0.8395  1.0131 -0.1171
 6912TIP3   OH242226   4.400   3.302  16.069 -0.4705  0.3120  0.4882
 6912TIP3    H142227   4.417   3.257  15.986 -2.6289 -1.4477  0.9024
 6912TIP3    H242228   4.484   3.304  16.113  0.3059 -0.6080 -0.8792
 6913TIP3   OH242229   2.893   6.508  15.317  0.1306  0.1251  0.3878
 6913TIP3    H142230   2.943   6.553  15.386  1.1717  0.5351 -0.6134
 6913TIP3    H242231   2.916   6.415  15.328  0.5094  0.2202  0.4300
 6914TIP3   OH242232   3.359   0.558   2.305 -0.0917  0.4026 -0.0802
 6914TIP3    H142233   3.405   0.498   2.247  0.6706  0.5029  0.4119
 6914TIP3    H242234   3.355   0.640   2.256  0.0383  0.3251 -0.2212
 6915TIP3   OH242235   5.633   1.198   5.362 -0.2320  0.0362  0.2467
 6915TIP3    H142236   5.580   1.215   5.440 -1.2120  0.6213 -0.5241
 6915TIP3    H242237   5.608   1.267   5.300 -0.0645 -0.8723 -0.8671
 6916TIP3   OH242238   3.372   4.444   7.125 -0.3500 -0.2370  0.0241
 6916TIP3    H142239   3.440   4.510   7.133  0.0213 -0.7394  1.1823
 6916TIP3    H242240   3.335   4.458   7.038 -0.0830  1.2945  0.1376
 6917TIP3   OH242241   5.891   6.622   6.348  0.6127  0.3829  0.3778
 6917TIP3    H142242   5.830   6.604   6.420 -1.4686  1.2938 -1.0546
 6917TIP3    H242243   5.908   6.716   6.354  0.2964  0.4991 -0.3696
 6918TIP3   OH242244   6.289   1.566   5.161  0.3603  0.4897  0.1611
 6918TIP3    H142245   6.209   1.515   5.169  1.5105 -1.5448 -0.4167
 6918TIP3    H242246   6.266   1.641   5.106 -1.4192  0.7041  1.1301
 6919TIP3   OH242247   0.039   6.539  10.754  0.3114 -0.2845 -0.2234
 6919TIP3    H142248   0.015   6.452  10.787  1.2301 -0.3148  0.3886
 6919TIP3    H242249  -0.041   6.570  10.711 -0.9773 -0.2719  1.9857
 6920TIP3   OH242250   3.732   0.664   1.742 -0.3802 -0.4042  0.1336
 6920TIP3    H142251   3.674   0.646   1.816 -0.1778  1.3125  0.7533
 6920TIP3    H242252   3.799   0.721   1.778  0.3318 -0.4100 -1.1439
 6921TIP3   OH242253   6.719   1.825   4.243 -0.0482 -0.1417  0.6986
 6921TIP3    H142254   6.786   1.817   4.175  0.0042  0.9293  0.6091
 6921TIP3    H242255   6.750   1.895   4.300 -0.4710 -0.5065  1.4028
 6922TIP3   OH242256   2.688   0.720   3.066  0.0770 -0.2633 -0.1138
 6922TIP3    H142257   2.593   0.713   3.071 -0.1567  2.1350  0.1056
 6922TIP3    H242258   2.706   0.744   2.975  0.5314 -1.1478 -0.2677
 6923TIP3   OH242259   3.517   3.434  15.006  0.5643 -0.7376  0.1404
 6923TIP3    H142260   3.498   3.473  15.091  0.2994  1.0283 -0.6924
 6923TIP3    H242261   3.561   3.503  14.957 -1.9525 -0.6094 -2.1808
 6924TIP3   OH242262   6.281   2.092  14.642  0.3463  0.2847  0.0162
 6924TIP3    H142263   6.358   2.040  14.664 -0.2697 -1.1733 -1.1456
 6924TIP3    H242264   6.289   2.171  14.696 -0.2325 -2.2380  4.2142
 6925TIP3   OH242265   2.512   5.079  12.924  0.2609 -0.7510 -0.0831
 6925TIP3    H142266   2.475   5.125  12.999  1.1702 -0.1742  0.0296
 6925TIP3    H242267   2.512   4.987  12.951  0.6158 -0.5463  0.6465
 6926TIP3   OH242268   3.890   6.669   2.573  1.0228  0.5085 -0.1625
 6926TIP3    H142269   3.827   6.728   2.530  0.5806 -1.4760 -2.4171
 6926TIP3    H242270   3.975   6.713   2.563  0.3698  2.1710  0.9890
 6927TIP3   OH242271   3.019   0.435   1.984  0.5059  0.3867 -0.2388
 6927TIP3    H142272   3.079   0.361   1.971 -2.5901 -2.3082 -0.3747
 6927TIP3    H242273   3.009   0.472   1.896 -0.2730 -1.0563 -0.7872
 6928TIP3   OH242274   2.293   4.599  13.736  0.2264 -0.0474  0.6307
 6928TIP3    H142275   2.323   4.660  13.669 -2.1443  0.0317 -0.4724
 6928TIP3    H242276   2.363   4.534  13.744  1.0611  0.6002 -1.0624
 6929TIP3   OH242277   2.911   3.468  16.110  0.3288 -0.0438  0.3030
 6929TIP3    H142278   2.955   3.480  16.195  1.0645 -1.1736  0.1060
 6929TIP3    H242279   2.822   3.443  16.133  1.0249 -2.2896  0.8261
 6930TIP3   OH242280   3.028   6.826   3.554 -0.2402 -0.0422 -0.0012
 6930TIP3    H142281   3.084   6.862   3.622 -0.1920 -0.3442  0.1177
 6930TIP3    H242282   2.994   6.904   3.509 -2.1903  0.2848  1.8750
 6931TIP3   OH242283   3.657   6.784  12.237 -0.0784 -0.6831  0.6348
 6931TIP3    H142284   3.663   6.815  12.146  0.0414 -0.0210  0.8645
 6931TIP3    H242285   3.746   6.755  12.258  0.0453 -0.2303  0.7495
 6932TIP3   OH242286   0.501   1.240   2.277  0.1448 -0.0618  0.3595
 6932TIP3    H142287   0.486   1.318   2.332  0.6727  0.7749 -0.6425
 6932TIP3    H242288   0.592   1.250   2.248  0.6370 -1.7241  1.2350
 6933TIP3   OH242289   6.582   4.453   3.950 -0.3416 -0.0893  0.2573
 6933TIP3    H142290   6.625   4.441   4.035  1.2470  0.8090 -0.3645
 6933TIP3    H242291   6.511   4.389   3.950 -0.4468 -0.0467  2.2852
 6934TIP3   OH242292   0.847   3.169   1.839 -0.2151 -0.4716 -0.5420
 6934TIP3    H142293   0.888   3.255   1.831 -0.5795 -0.2631 -0.2386
 6934TIP3    H242294   0.919   3.107   1.833  0.1685 -0.1046  0.2255
 6935TIP3   OH242295   1.650   3.343  11.842  0.1061  0.1437  0.5275
 6935TIP3    H142296   1.597   3.292  11.780 -0.7339  0.9981  0.5132
 6935TIP3    H242297   1.740   3.321  11.820 -0.1501  0.7093 -1.2695
 6936TIP3   OH242298   2.583   2.209   3.812  0.2247 -0.1085 -0.2177
 6936TIP3    H142299   2.651   2.269   3.844 -1.0552  1.7915 -0.8969
 6936TIP3    H242300   2.605   2.196   3.720 -0.7184  1.1719 -0.6586
 6937TIP3   OH242301   0.559   1.443   0.529 -0.3056  0.1146 -0.1380
 6937TIP3    H142302   0.480   1.436   0.583 -0.6600 -0.3563 -0.6987
 6937TIP3    H242303   0.607   1.362   0.547 -0.0102  0.3460  0.1111
 6938TIP3   OH242304   2.084   0.993   1.701  0.3144  0.3484 -0.3546
 6938TIP3    H142305   2.047   1.047   1.771 -0.5284 -0.6089 -0.0510
 6938TIP3    H242306   2.014   0.934   1.675  0.3673  1.1165 -2.4999
 6939TIP3   OH242307   2.783   0.829   0.894 -0.4815  0.4036 -0.1044
 6939TIP3    H142308   2.779   0.904   0.953  0.3243 -0.7449  1.5059
 6939TIP3    H242309   2.854   0.850   0.833 -0.2326  0.9414  0.3631
 6940TIP3   OH242310   6.659   3.609   0.720  0.9467 -0.0151  0.1176
 6940TIP3    H142311   6.687   3.617   0.629 -0.8301  0.2497 -0.4531
 6940TIP3    H242312   6.737   3.628   0.772  1.9307  0.0380 -1.3479
 6941TIP3   OH242313   6.548   3.644   5.948  0.2430  0.6166 -0.5450
 6941TIP3    H142314   6.511   3.719   5.994  1.5438 -1.0342  3.6050
 6941TIP3    H242315   6.475   3.582   5.939 -0.2893  1.3830 -1.9768
 6942TIP3   OH242316   3.989   1.442  13.029 -0.4987 -0.3047  0.6868
 6942TIP3    H142317   4.007   1.451  13.122  2.3396  0.6543  0.1309
 6942TIP3    H242318   4.069   1.470  12.985 -1.4888 -1.3548 -2.0618
 6943TIP3   OH242319   1.387   2.732   2.049 -0.1209  0.6264  0.3951
 6943TIP3    H142320   1.465   2.690   2.084 -0.3723 -1.0677 -0.9078
 6943TIP3    H242321   1.371   2.807   2.106  1.2105 -0.2392  1.9659
 6944TIP3   OH242322   1.284   0.295   2.865  0.2938 -0.3612  0.1261
 6944TIP3    H142323   1.328   0.210   2.873  0.4687 -0.2932 -0.1318
 6944TIP3    H242324   1.271   0.307   2.771 -1.3429 -0.9315  0.2440
 6945TIP3   OH242325   3.296   4.881   0.185  0.2975  0.1026  0.8918
 6945TIP3    H142326   3.240   4.869   0.262  0.0024 -0.1760  0.6312
 6945TIP3    H242327   3.385   4.870   0.219  0.0857 -3.2831  0.6315
 6946TIP3   OH242328   4.790   3.167   5.156 -0.4451 -0.4065 -0.1878
 6946TIP3    H142329   4.849   3.093   5.171 -0.7524 -0.7365 -0.5803
 6946TIP3    H242330   4.796   3.183   5.061  0.8566  1.1181  0.0894
 6947TIP3   OH242331   6.798   5.160  15.919  0.3088 -0.1755 -0.4774
 6947TIP3    H142332   6.791   5.066  15.906 -1.1783 -0.4553  1.8651
 6947TIP3    H242333   6.805   5.196  15.830 -1.1674 -2.3474 -1.5529
 6948TIP3   OH242334   4.101   2.949   6.254  0.0125 -0.7245 -0.0906
 6948TIP3    H142335   4.159   2.896   6.199  0.2980 -0.5560  0.0475
 6948TIP3    H242336   4.160   3.005   6.304 -0.3085  0.0984 -0.6177
 6949TIP3   OH242337   4.228   1.735  14.489  0.0883  0.7272 -0.2439
 6949TIP3    H142338   4.169   1.673  14.448  2.4223  0.1193 -3.0339
 6949TIP3    H242339   4.190   1.821  14.470 -1.2339  0.2886  0.3608
 6950TIP3   OH242340   6.012   4.023  14.745 -0.1150 -0.2699  0.2558
 6950TIP3    H142341   5.925   4.012  14.708  0.1918  0.1423 -0.6285
 6950TIP3    H242342   6.067   4.048  14.670  0.3748  1.3546  1.0899
 6951TIP3   OH242343   3.948   5.722  12.634 -0.9034 -0.5063  0.0396
 6951TIP3    H142344   3.930   5.667  12.710  0.5811  0.0034  0.8056
 6951TIP3    H242345   3.975   5.661  12.566 -0.3870 -0.8413  0.5325
 6952TIP3   OH242346   0.994   4.173   2.316  0.5113  0.1738  0.3725
 6952TIP3    H142347   0.931   4.103   2.299  0.9599 -0.3921  0.9443
 6952TIP3    H242348   1.008   4.214   2.231 -0.3478  0.0685  0.1764
 6953TIP3   OH242349   0.120   6.510   4.926 -0.1852  0.1311  0.0157
 6953TIP3    H142350   0.031   6.490   4.896 -0.5345 -1.2571  1.8185
 6953TIP3    H242351   0.107   6.579   4.991  0.6336  3.7104 -3.2357
 6954TIP3   OH242352   3.655   0.893   3.670  0.0046  0.2379  0.1954
 6954TIP3    H142353   3.653   0.975   3.719  0.2525  0.7141 -0.5590
 6954TIP3    H242354   3.639   0.825   3.735  1.2473  0.7668  1.0855
 6955TIP3   OH242355   0.849   4.834   0.446 -0.5320 -0.4610 -0.8034
 6955TIP3    H142356   0.883   4.818   0.534  0.3763  0.7988 -0.8903
 6955TIP3    H242357   0.896   4.772   0.390  1.0756  0.6778 -0.7908
 6956TIP3   OH242358   0.069   0.066  10.756  0.1963  0.0097 -0.0049
 6956TIP3    H142359   0.099  -0.013  10.711 -1.0779 -0.7416  0.4265
 6956TIP3    H242360  -0.008   0.094  10.707 -0.2614  0.1005  0.7511
 6957TIP3   OH242361   2.351   6.838  14.370 -1.0539  1.0828  0.6161
 6957TIP3    H142362   2.423   6.901  14.359 -0.8039  0.7402  0.2879
 6957TIP3    H242363   2.316   6.859  14.457  0.6204  0.0814  1.6010
 6958TIP3   OH242364   3.490   1.042   4.278  0.0183  0.1178  0.6047
 6958TIP3    H142365   3.552   1.081   4.217  0.0176  0.4682  0.8184
 6958TIP3    H242366   3.480   0.952   4.249  1.3726 -0.2277  1.1492
 6959TIP3   OH242367   4.747   4.175  11.082  0.0916 -0.1767  0.2116
 6959TIP3    H142368   4.667   4.211  11.043 -1.6584  0.2569  3.7414
 6959TIP3    H242369   4.727   4.082  11.093  1.3624 -0.7078 -1.5573
 6960TIP3   OH242370   4.259   1.271  12.492  0.2269 -0.0469 -0.1191
 6960TIP3    H142371   4.334   1.305  12.443  0.9395 -0.2645  0.8092
 6960TIP3    H242372   4.271   1.176  12.491 -1.2315 -0.2710 -1.8478
 6961TIP3   OH242373   5.261   5.503  16.966 -0.0868 -0.0422  0.1976
 6961TIP3    H142374   5.182   5.449  16.976 -0.4859  0.6082  0.5967
 6961TIP3    H242375   5.278   5.503  16.871 -0.0402 -0.9141  0.1945
 6962TIP3   OH242376   2.388   4.736  13.221 -0.4079 -0.0282  0.0333
 6962TIP3    H142377   2.385   4.645  13.250  0.9157  0.0958  0.6667
 6962TIP3    H242378   2.468   4.771  13.261 -1.7837  1.9171  1.2645
 6963TIP3   OH242379   4.183   6.618   3.289  0.0638 -0.8113 -0.1298
 6963TIP3    H142380   4.099   6.657   3.313  0.0732 -0.4736 -0.6325
 6963TIP3    H242381   4.244   6.652   3.355  0.1224  0.2351 -0.7008
 6964TIP3   OH242382   5.099   5.278   1.795 -0.0676 -0.3248 -0.0243
 6964TIP3    H142383   5.127   5.249   1.882  1.5125  1.1854  0.0163
 6964TIP3    H242384   5.071   5.197   1.751  1.3969 -1.4705  1.0628
 6965TIP3   OH242385   5.756   3.450   0.797 -0.1013 -0.1850 -0.0285
 6965TIP3    H142386   5.788   3.372   0.841 -2.0676 -0.3397  1.2288
 6965TIP3    H242387   5.832   3.507   0.791  1.2673 -1.9850 -0.5636
 6966TIP3   OH242388   3.941   6.656  15.987 -0.3343  0.6983 -0.3440
 6966TIP3    H142389   3.887   6.703  16.050 -1.5972 -0.3401 -0.6311
 6966TIP3    H242390   3.974   6.580  16.035 -0.6441  0.3336 -0.7093
 6967TIP3   OH242391   5.815   0.000  12.920  0.5989 -0.4349  0.3613
 6967TIP3    H142392   5.779   0.036  13.001 -1.7666  0.2969 -0.9153
 6967TIP3    H242393   5.765  -0.080  12.905  0.1201  0.0932 -0.9810
 6968TIP3   OH242394   6.794   6.807   1.740 -0.1267 -0.6310 -0.3062
 6968TIP3    H142395   6.884   6.792   1.770 -0.4652  0.1048  1.1530
 6968TIP3    H242396   6.797   6.891   1.694 -0.5748  0.9385  2.3350
 6969TIP3   OH242397   3.001   4.129  14.715 -0.1931 -0.2470  0.0756
 6969TIP3    H142398   3.032   4.172  14.635 -0.1074  0.2129  0.3505
 6969TIP3    H242399   3.080   4.096  14.757  0.0349  1.5034  1.1099
 6970TIP3   OH242400   0.160   1.985  11.678 -0.2247 -0.1645 -0.2247
 6970TIP3    H142401   0.197   1.897  11.683 -0.3449 -0.2457 -0.7174
 6970TIP3    H242402   0.235   2.043  11.682 -0.0835 -0.3139 -0.6050
 6971TIP3   OH242403   0.149   2.400  10.257  0.0178 -0.1338 -0.0024
 6971TIP3    H142404   0.103   2.484  10.259  0.5992  0.1826  1.0823
 6971TIP3    H242405   0.240   2.422  10.274  0.0399 -1.0574  1.2402
 6972TIP3   OH242406   4.368   6.004   0.868 -0.0295  0.1976 -0.2579
 6972TIP3    H142407   4.284   5.965   0.889  0.2353 -0.5096 -0.4904
 6972TIP3    H242408   4.350   6.098   0.862 -0.9995 -0.0347 -1.2619
 6973TIP3   OH242409   3.250   0.136   4.932  0.1467  0.1477 -0.4703
 6973TIP3    H142410   3.190   0.197   4.975  0.7013  0.6791 -0.4451
 6973TIP3    H242411   3.305   0.102   5.002  0.3405  0.1964 -0.5989
 6974TIP3   OH242412   1.829   6.740   6.308  0.2165  0.0694  0.1158
 6974TIP3    H142413   1.774   6.757   6.384 -0.6284  0.9033 -0.6707
 6974TIP3    H242414   1.832   6.823   6.261 -2.0844 -1.2197 -2.5601
 6975TIP3   OH242415   6.263   1.014  14.388 -0.7814 -0.1189 -0.0994
 6975TIP3    H142416   6.208   1.020  14.467 -0.3741 -0.4271  0.2143
 6975TIP3    H242417   6.348   0.986  14.421 -0.7830 -0.8963 -0.7235
 6976TIP3   OH242418   4.027   3.475  16.955 -0.0688  0.0500 -0.3272
 6976TIP3    H142419   3.986   3.457  17.039  0.5326 -0.4999 -0.1431
 6976TIP3    H242420   4.055   3.389  16.923  3.6332  0.6308  0.9392
 6977TIP3   OH242421   2.840   5.755  13.798 -0.3492  0.1712 -0.2185
 6977TIP3    H142422   2.908   5.821  13.806 -0.8757  0.8793 -1.3547
 6977TIP3    H242423   2.795   5.756  13.882 -0.3239  1.2357 -0.2128
 6978TIP3   OH242424   2.653   3.628   1.148 -0.1241 -0.1169  0.5878
 6978TIP3    H142425   2.607   3.706   1.119 -1.4720 -1.2966 -0.6595
 6978TIP3    H242426   2.685   3.588   1.067 -0.1994 -1.2895  1.1155
 6979TIP3   OH242427   3.848   4.437  11.655  0.2560  0.2418 -0.3727
 6979TIP3    H142428   3.793   4.503  11.698 -0.5383  0.6700 -1.9275
 6979TIP3    H242429   3.934   4.446  11.696 -0.1602  1.4266  0.2914
 6980TIP3   OH242430   2.259   4.919   4.181  0.1065 -0.1548  0.3280
 6980TIP3    H142431   2.256   4.918   4.276  1.0065  1.8961  0.4413
 6980TIP3    H242432   2.345   4.955   4.160  0.3081 -1.4456 -1.3050
 6981TIP3   OH242433   4.880   4.075  13.444  0.5119 -0.5813  0.5182
 6981TIP3    H142434   4.964   4.117  13.425 -0.5505  0.8281 -1.4079
 6981TIP3    H242435   4.856   4.031  13.362 -1.6790  1.0267  0.1938
 6982TIP3   OH242436   5.699   5.486  13.414  0.2153 -0.1235 -0.9845
 6982TIP3    H142437   5.727   5.414  13.357  0.1580 -0.1111 -1.0286
 6982TIP3    H242438   5.778   5.540  13.424  0.3642 -0.4041 -0.6325
 6983TIP3   OH242439   0.530   6.665  16.326  0.5208 -0.4960  0.4036
 6983TIP3    H142440   0.445   6.646  16.286  1.1924 -0.9653 -0.8448
 6983TIP3    H242441   0.578   6.714  16.260  1.6634 -1.2978  0.6103
 6984TIP3   OH242442   2.391   1.955   3.400  0.0976 -0.3690  0.1472
 6984TIP3    H142443   2.462   1.914   3.450  0.2232  0.0544  0.3165
 6984TIP3    H242444   2.324   1.975   3.465  0.5251  0.7619  0.2574
 6985TIP3   OH242445   0.807   1.754  13.403  0.1046  0.2025  0.0169
 6985TIP3    H142446   0.778   1.821  13.465  1.2151  1.7216 -1.0410
 6985TIP3    H242447   0.827   1.803  13.323  0.2017 -1.5106 -1.0487
 6986TIP3   OH242448   1.277   1.030  12.874  0.0335 -0.4567 -0.0043
 6986TIP3    H142449   1.311   1.071  12.795  0.5540  0.6539  0.7680
 6986TIP3    H242450   1.183   1.046  12.872  0.2047  0.6434  0.1857
 6987TIP3   OH242451   2.799   2.560   4.287  0.0339 -0.9321 -0.6455
 6987TIP3    H142452   2.704   2.551   4.293 -0.0363 -1.0930 -1.7348
 6987TIP3    H242453   2.825   2.500   4.217  0.8285 -0.2689 -0.9432
 6988TIP3   OH242454   0.039   4.901  11.431 -0.4040 -0.4865 -0.5589
 6988TIP3    H142455   0.026   4.853  11.513  0.1239 -1.3382 -0.9561
 6988TIP3    H242456   0.027   4.835  11.363  0.4233 -0.0770 -1.1178
 6989TIP3   OH242457   4.893   3.051  14.472  0.0023 -0.4108  0.2255
 6989TIP3    H142458   4.950   3.052  14.395  0.1801 -1.3715  0.3266
 6989TIP3    H242459   4.951   3.029  14.545 -0.5486 -2.0088  0.2408
 6990TIP3   OH242460   5.224   4.519  12.583  0.1385 -0.1568  0.0998
 6990TIP3    H142461   5.302   4.464  12.591 -0.1058 -0.5248 -0.0049
 6990TIP3    H242462   5.183   4.515  12.669 -0.2239 -0.6661 -0.0925
 6991TIP3   OH242463   2.007   2.797   1.012  0.2191 -0.0364 -0.5241
 6991TIP3    H142464   1.982   2.875   0.964 -1.1923 -0.3430 -0.3331
 6991TIP3    H242465   2.086   2.822   1.061  0.4110  0.9142 -1.3074
 6992TIP3   OH242466   5.114   1.991   3.242  0.0802  0.7590  0.3485
 6992TIP3    H142467   5.086   2.052   3.174  1.3806  1.2795  0.2491
 6992TIP3    H242468   5.081   2.030   3.323  0.2424  1.1894  0.2094
 6993TIP3   OH242469   3.017   3.761   4.277  0.0917  0.3592 -0.4995
 6993TIP3    H142470   2.962   3.835   4.302 -1.0669 -0.8002  0.5623
 6993TIP3    H242471   2.958   3.702   4.231  0.0067 -1.5302  1.8280
 6994TIP3   OH242472   4.273   2.964   4.052  0.0415 -0.1122 -0.0068
 6994TIP3    H142473   4.348   2.933   4.001 -0.8681 -1.1026 -0.7762
 6994TIP3    H242474   4.220   3.014   3.989 -0.4227 -0.2115  0.2968
 6995TIP3   OH242475   4.146   5.056   6.283  0.5307  0.0152 -0.0711
 6995TIP3    H142476   4.164   5.006   6.363 -2.0353 -0.2288  0.4498
 6995TIP3    H242477   4.186   5.142   6.299  0.0106 -0.0087  1.5231
 6996TIP3   OH242478   1.519   6.571  12.037 -0.2671 -0.0352  0.2378
 6996TIP3    H142479   1.515   6.664  12.015 -0.2711  0.4222  2.0495
 6996TIP3    H242480   1.587   6.564  12.104 -1.5680 -1.0350  1.5076
 6997TIP3   OH242481   1.748   2.101   0.207  0.0463  0.5055  0.3322
 6997TIP3    H142482   1.688   2.045   0.158  0.2552  0.0735  0.5573
 6997TIP3    H242483   1.745   2.067   0.296  0.5814  0.5128  0.3579
 6998TIP3   OH242484   1.110   6.667  13.776  0.5190 -0.3690 -0.1987
 6998TIP3    H142485   1.190   6.666  13.829  0.9650 -2.3152 -0.8252
 6998TIP3    H242486   1.137   6.705  13.693  0.4040  0.3684  0.0869
 6999TIP3   OH242487   5.917   3.125  15.762 -0.2701  0.1397  0.1027
 6999TIP3    H142488   5.845   3.160  15.814 -0.1506  0.6862 -0.0963
 6999TIP3    H242489   5.982   3.096  15.826 -1.1344 -1.4252  0.3292
 7000TIP3   OH242490   4.955   1.948   4.417  0.3071 -0.2845  0.4706
 7000TIP3    H142491   4.932   2.011   4.485 -0.4468  0.7431 -0.6760
 7000TIP3    H242492   5.039   1.980   4.382  0.2200 -0.2530  0.2872
 7001TIP3   OH242493   4.070   2.789   2.340 -0.3298  0.0740  0.3939
 7001TIP3    H142494   4.122   2.723   2.294 -1.3540 -1.2955  1.1368
 7001TIP3    H242495   4.044   2.850   2.271  0.7248 -0.2237 -0.2944
 7002TIP3   OH242496   6.517   4.712  13.011 -0.1185 -0.4274  0.3335
 7002TIP3    H142497   6.465   4.633  13.002 -0.6643  0.0101 -0.4955
 7002TIP3    H242498   6.455   4.780  13.036 -0.1853  0.3335 -1.7303
 7003TIP3   OH242499   1.732   6.750  15.657 -0.3529  0.3952 -0.2753
 7003TIP3    H142500   1.701   6.749  15.747  1.5017 -1.0632  0.4022
 7003TIP3    H242501   1.666   6.701  15.608 -0.5930 -0.1235  0.5568
 7004TIP3   OH242502   3.336   5.362   1.276 -0.2074 -0.1171 -0.1109
 7004TIP3    H142503   3.285   5.319   1.207  0.1271  0.2873 -0.6071
 7004TIP3    H242504   3.378   5.436   1.233 -0.5238  0.5329  0.6737
 7005TIP3   OH242505   3.752   5.033   4.155  0.0344  0.6644 -0.3605
 7005TIP3    H142506   3.833   4.984   4.166  1.2988  2.6599 -0.2212
 7005TIP3    H242507   3.711   4.996   4.077  1.8652  0.6161 -1.3506
 7006TIP3   OH242508   6.306   4.724  10.447  0.0960  0.0071 -0.7260
 7006TIP3    H142509   6.354   4.653  10.405  2.4402  1.2382 -0.3314
 7006TIP3    H242510   6.324   4.713  10.540 -1.5837 -0.2714 -0.3995
 7007TIP3   OH242511   3.999   1.083  11.680 -0.1483  0.1359  0.0632
 7007TIP3    H142512   4.062   1.079  11.608 -0.1077 -0.6117  0.1326
 7007TIP3    H242513   3.975   0.992  11.696  1.0612  0.1107  2.0845
 7008TIP3   OH242514   6.258   1.790  16.509  0.0726 -0.0602  0.7585
 7008TIP3    H142515   6.187   1.789  16.445  0.1756  0.8734  0.6161
 7008TIP3    H242516   6.288   1.699  16.513 -2.0895 -0.7810  1.9140
 7009TIP3   OH242517   6.728   4.381   3.456 -0.1725 -0.4018  0.2182
 7009TIP3    H142518   6.736   4.375   3.551 -0.2339 -0.6056  0.2117
 7009TIP3    H242519   6.805   4.429   3.428 -0.0737 -0.4788  0.3569
 7010TIP3   OH242520   4.578   4.577   3.523  0.3839  0.2785  0.4503
 7010TIP3    H142521   4.505   4.578   3.585 -0.2424 -2.5329 -0.1108
 7010TIP3    H242522   4.636   4.508   3.554  1.1740  0.3090 -0.8736
 7011TIP3   OH242523   5.785   1.902   5.810  0.0039  0.2860  0.3875
 7011TIP3    H142524   5.753   1.869   5.894  1.3157 -0.9063  0.4564
 7011TIP3    H242525   5.879   1.884   5.811 -0.0197 -0.1682 -1.5152
 7012TIP3   OH242526   3.302   1.996  11.742 -0.2157  0.4213 -0.1708
 7012TIP3    H142527   3.362   2.071  11.746  1.4782 -0.7363 -1.8616
 7012TIP3    H242528   3.340   1.932  11.802 -0.8726  0.3854  0.2132
 7013TIP3   OH242529   0.994   2.438  11.796  0.6973 -0.1085 -0.5161
 7013TIP3    H142530   0.995   2.453  11.890  1.0977  1.9120 -0.8084
 7013TIP3    H242531   1.081   2.466  11.766 -0.2562  1.6723 -1.7930
 7014TIP3   OH242532   3.246   0.930  11.518 -0.1712 -0.3287  0.2624
 7014TIP3    H142533   3.317   0.882  11.475 -0.1269  1.2221 -1.5540
 7014TIP3    H242534   3.167   0.882  11.493 -0.1114  0.3450 -1.3474
 7015TIP3   OH242535   1.536   0.468   0.235  0.4052  0.1353  0.1243
 7015TIP3    H142536   1.523   0.383   0.277  1.6913 -0.4247 -0.5528
 7015TIP3    H242537   1.452   0.487   0.194  0.0400 -0.7239  0.4375
 7016TIP3   OH242538   0.451   0.124   5.574 -0.2254 -0.6597 -0.0414
 7016TIP3    H142539   0.450   0.217   5.596 -0.4786  0.1335 -3.0160
 7016TIP3    H242540   0.359   0.103   5.556 -0.0593 -1.2806 -0.1833
 7017TIP3   OH242541   0.806   6.344   4.498  0.5906  0.9959  0.3296
 7017TIP3    H142542   0.728   6.394   4.520 -0.0853  0.5152 -0.8872
 7017TIP3    H242543   0.774   6.270   4.447  1.5953 -0.5184  1.7809
 7018TIP3   OH242544   3.441   5.437   2.544 -0.5179 -0.1748 -0.2109
 7018TIP3    H142545   3.435   5.354   2.592 -0.0443 -0.0234  0.1152
 7018TIP3    H242546   3.395   5.420   2.462  0.3545 -1.0377 -0.5367
 7019TIP3   OH242547   3.213   6.278   2.900  0.4156 -0.2056  0.1567
 7019TIP3    H142548   3.215   6.304   2.992 -1.0443  0.1135  0.1164
 7019TIP3    H242549   3.148   6.209   2.895  0.6650 -0.3999 -0.5993
 7020TIP3   OH242550   3.909   3.430  13.686 -0.0962  0.1763 -0.0396
 7020TIP3    H142551   3.842   3.477  13.637 -0.5701  0.7900  1.1474
 7020TIP3    H242552   3.887   3.446  13.778  1.0746 -0.4790  0.3784
 7021TIP3   OH242553   4.203   3.243   2.591  0.3508  0.3450 -0.2468
 7021TIP3    H142554   4.237   3.287   2.669  1.6453 -1.3345  0.1838
 7021TIP3    H242555   4.199   3.150   2.615 -0.9189  0.0007 -1.6041
 7022TIP3   OH242556   1.350   1.414   6.475 -0.4689 -0.1449 -0.2105
 7022TIP3    H142557   1.323   1.325   6.453 -0.1213 -0.5906  1.0532
 7022TIP3    H242558   1.268   1.462   6.487 -0.6574 -0.2282 -1.1052
 7023TIP3   OH242559   0.496   4.806  11.260  0.8010  0.0619 -0.0457
 7023TIP3    H142560   0.423   4.851  11.303 -0.1234 -1.7977  0.4148
 7023TIP3    H242561   0.459   4.772  11.179  0.5746 -2.5240  1.0697
 7024TIP3   OH242562   0.265   6.807  15.265 -0.2704 -0.1228 -0.0675
 7024TIP3    H142563   0.233   6.887  15.223  0.4359 -0.8787 -2.2205
 7024TIP3    H242564   0.186   6.765  15.300 -0.9892  0.3932 -1.0076
 7025TIP3   OH242565   5.952   1.476   4.053  0.5179 -0.0951  0.0762
 7025TIP3    H142566   5.944   1.566   4.022  1.0074 -0.0508  0.0701
 7025TIP3    H242567   6.031   1.476   4.108  0.0846 -0.3380  0.7157
 7026TIP3   OH242568   1.012   2.173  11.729 -0.3775  0.2515 -0.3737
 7026TIP3    H142569   0.996   2.146  11.638 -4.4690  0.2802  0.1866
 7026TIP3    H242570   0.988   2.265  11.731  0.2319  0.4015  0.6826
 7027TIP3   OH242571   3.008   3.535  11.212 -0.2831  0.4345  0.1243
 7027TIP3    H142572   2.975   3.624  11.203 -0.8760  0.3403  1.2612
 7027TIP3    H242573   3.089   3.534  11.160 -1.0143  1.2192 -1.0827
 7028TIP3   OH242574   4.069   3.163   5.567 -0.3578 -0.3700 -0.1339
 7028TIP3    H142575   4.010   3.149   5.493  0.4382 -0.9738 -0.6609
 7028TIP3    H242576   4.061   3.083   5.620  0.3016 -0.6297 -0.4260
 7029TIP3   OH242577   4.440   0.932   3.097  0.6454  0.0894  0.2697
 7029TIP3    H142578   4.416   1.024   3.105  0.7139  0.0836  0.5603
 7029TIP3    H242579   4.362   0.890   3.061  0.4344  0.1755  0.6184
 7030TIP3   OH242580   1.839   5.182   4.987  0.1043  0.1148  0.0298
 7030TIP3    H142581   1.833   5.268   4.947 -2.5311 -0.9234 -2.0774
 7030TIP3    H242582   1.766   5.179   5.048  0.5838 -0.4305  0.5960
 7031TIP3   OH242583   2.288   3.034  13.998  0.3842  0.3856  0.1174
 7031TIP3    H142584   2.343   3.102  14.036 -0.2559  0.7121  0.4671
 7031TIP3    H242585   2.328   2.952  14.028  0.6707  0.6169  0.3782
 7032TIP3   OH242586   3.350   3.877  16.987 -0.2208 -0.0015  0.5787
 7032TIP3    H142587   3.348   3.789  17.024  2.2593  0.1598  1.2670
 7032TIP3    H242588   3.366   3.934  17.062  0.1922  0.8177 -0.1135
 7033TIP3   OH242589   6.295   4.341  10.640 -0.4193  0.0385  0.1621
 7033TIP3    H142590   6.367   4.300  10.592  0.3810  0.3327  1.0685
 7033TIP3    H242591   6.233   4.367  10.572  1.2183  1.5303 -0.8784
 7034TIP3   OH242592   0.009   5.103  13.001 -0.4250 -0.8547 -0.2629
 7034TIP3    H142593   0.054   5.053  12.932 -0.6591  0.9525 -1.8318
 7034TIP3    H242594  -0.036   5.173  12.953 -1.7921 -0.3756  1.6336
 7035TIP3   OH242595   1.179   4.485   0.830 -0.6572  0.1466 -0.3543
 7035TIP3    H142596   1.112   4.424   0.861 -0.2424  0.5811  1.5492
 7035TIP3    H242597   1.152   4.570   0.866  1.3324  0.1784  1.2670
 7036TIP3   OH242598   0.435   5.218  14.981 -0.1226 -0.6300 -0.1387
 7036TIP3    H142599   0.384   5.299  14.989  1.8769  0.6013  1.2553
 7036TIP3    H242600   0.372   5.153  14.951 -2.2658  0.9987  0.5315
 7037TIP3   OH242601   1.073   1.049   1.167 -0.1968  0.5376 -0.0161
 7037TIP3    H142602   1.164   1.030   1.191 -0.2661  0.4941  0.2168
 7037TIP3    H242603   1.056   1.134   1.207 -0.2136  0.6089 -0.1781
 7038TIP3   OH242604   1.675   6.379   5.434  0.4551 -0.0904 -0.2305
 7038TIP3    H142605   1.749   6.431   5.402 -0.2339  1.1246  0.1117
 7038TIP3    H242606   1.599   6.416   5.391 -0.2416  0.2395  1.2211
 7039TIP3   OH242607   1.417   4.777  13.742 -0.2223 -0.1416 -0.5052
 7039TIP3    H142608   1.453   4.795  13.828 -0.0337  2.8766 -1.0880
 7039TIP3    H242609   1.325   4.803  13.749 -0.3076 -0.2671 -1.1077
 7040TIP3   OH242610   0.813   4.305  13.691 -0.4578 -0.1380 -0.4113
 7040TIP3    H142611   0.819   4.372  13.759  0.1704  1.8395 -2.3109
 7040TIP3    H242612   0.901   4.267  13.687 -0.4669 -0.1824 -0.2200
 7041TIP3   OH242613   4.705   5.285  13.054  0.1511  0.1448 -0.1693
 7041TIP3    H142614   4.660   5.289  12.970 -0.6847  0.7743  0.2917
 7041TIP3    H242615   4.790   5.325  13.038 -0.6858  1.9338 -0.3010
 7042TIP3   OH242616   3.352   0.914  11.083  0.4154 -0.3220  0.6165
 7042TIP3    H142617   3.347   0.984  11.148  0.6967 -0.1500  0.4557
 7042TIP3    H242618   3.329   0.957  11.000  0.0301 -0.5458  0.6069
 7043TIP3   OH242619   0.618   2.415   2.099 -0.0400  0.0153 -0.2356
 7043TIP3    H142620   0.651   2.360   2.028 -0.2714  0.3142 -0.5714
 7043TIP3    H242621   0.525   2.394   2.105  0.2477 -1.1131  0.9684
 7044TIP3   OH242622   0.502   4.800   0.630  0.6216  0.3545 -0.1207
 7044TIP3    H142623   0.414   4.825   0.602  1.1440  0.1160 -2.1595
 7044TIP3    H242624   0.555   4.878   0.616  0.9804  0.1002 -0.2077
 7045TIP3   OH242625   0.933   5.331  16.859  0.0757 -0.4670  0.0629
 7045TIP3    H142626   0.891   5.412  16.888  2.2817  0.0628  2.1397
 7045TIP3    H242627   0.918   5.269  16.930  1.5824 -0.6584  0.2532
 7046TIP3   OH242628   1.698   1.750   6.584  0.8352  0.0947  0.3165
 7046TIP3    H142629   1.756   1.679   6.610  2.7021  1.4408 -0.0332
 7046TIP3    H242630   1.749   1.830   6.595  0.4722  1.1042 -3.6631
 7047TIP3   OH242631   3.573   1.175  13.906  0.0800 -0.5256  0.0510
 7047TIP3    H142632   3.650   1.117  13.910  1.3817  1.1325  0.0728
 7047TIP3    H242633   3.596   1.249  13.962 -0.6916  0.9677 -1.5118
 7048TIP3   OH242634   6.778   6.127  11.717 -0.4818 -0.4532  0.0792
 7048TIP3    H142635   6.811   6.106  11.804 -2.8074  0.0954  1.1717
 7048TIP3    H242636   6.854   6.163  11.671  1.3675 -2.7574  1.0949
 7049TIP3   OH242637   1.287   3.613  14.917 -0.3961  0.1907  0.2214
 7049TIP3    H142638   1.234   3.545  14.875 -0.7523 -0.8923  2.2814
 7049TIP3    H242639   1.223   3.672  14.956 -0.0736  0.8572 -0.2452
 7050TIP3   OH242640   6.815   6.096  12.588  0.2700 -0.3626 -0.4457
 7050TIP3    H142641   6.751   6.045  12.540 -0.5723 -1.6883  1.9283
 7050TIP3    H242642   6.890   6.037  12.599 -0.2265 -0.7253  1.2697
 7051TIP3   OH242643   6.164   6.280   1.825  0.2498 -0.1912  0.1239
 7051TIP3    H142644   6.078   6.248   1.798  1.8504 -2.9522 -2.2298
 7051TIP3    H242645   6.165   6.268   1.920 -1.7091 -0.6903  0.1289
 7052TIP3   OH242646   0.898   0.808   5.222  0.4931 -0.4581 -0.1183
 7052TIP3    H142647   0.924   0.801   5.314  1.6900 -1.7976 -0.5279
 7052TIP3    H242648   0.816   0.760   5.217  1.2557 -1.8173 -0.0396
 7053TIP3   OH242649   4.011   4.557  14.183  0.1315 -0.1223  0.3051
 7053TIP3    H142650   4.095   4.516  14.162  0.5920 -0.2773  2.2267
 7053TIP3    H242651   4.022   4.649  14.157  1.3490  0.1221  1.5006
 7054TIP3   OH242652   2.205   6.469   2.443  0.2906  0.1021  0.0674
 7054TIP3    H142653   2.274   6.500   2.385 -0.4563 -0.2990 -1.0527
 7054TIP3    H242654   2.214   6.374   2.442  0.8570  0.1174  1.3622
 7055TIP3   OH242655   1.455   6.446  16.302  0.0599  0.2095  0.1292
 7055TIP3    H142656   1.531   6.452  16.244 -0.8758 -1.6024 -1.3654
 7055TIP3    H242657   1.489   6.409  16.383  0.7063 -1.1299 -0.7258
 7056TIP3   OH242658   6.454   0.991   0.822 -0.6706 -0.1209 -0.2285
 7056TIP3    H142659   6.435   0.964   0.912 -1.5349 -0.0349 -0.3748
 7056TIP3    H242660   6.376   0.965   0.773 -0.6410  0.7712 -0.7554
 7057TIP3   OH242661   0.278   1.454   3.291  0.2444  0.6236 -0.8260
 7057TIP3    H142662   0.347   1.403   3.247 -0.0388 -1.6909  1.1957
 7057TIP3    H242663   0.284   1.428   3.383 -2.2921  1.5660 -0.3149
 7058TIP3   OH242664   4.130   3.393   3.997 -0.0824  0.8329 -0.5877
 7058TIP3    H142665   4.141   3.390   3.902  1.4222  0.3814 -0.4299
 7058TIP3    H242666   4.038   3.414   4.010 -0.0298  2.2680 -2.1569
 7059TIP3   OH242667   4.501   1.059  15.002  0.1530 -0.7730 -0.7792
 7059TIP3    H142668   4.565   1.128  14.983 -0.1468 -0.1981  0.2073
 7059TIP3    H242669   4.421   1.105  15.025 -1.3119 -1.4792 -3.9239
 7060TIP3   OH242670   3.579   3.541   0.927 -0.1846  0.2057  0.3932
 7060TIP3    H142671   3.672   3.564   0.924  0.0433 -0.2694  2.3504
 7060TIP3    H242672   3.534   3.625   0.925  0.3095  0.4663 -0.0248
 7061TIP3   OH242673   6.290   0.441  12.842 -0.2797 -0.2526  0.2697
 7061TIP3    H142674   6.220   0.507  12.839 -2.8531 -2.8060 -1.0507
 7061TIP3    H242675   6.342   0.459  12.764 -0.7390  0.4267  0.1038
 7062TIP3   OH242676   3.328   0.036   5.573 -0.2179 -0.3228  0.0944
 7062TIP3    H142677   3.255   0.033   5.512  1.0402  0.1591 -1.5124
 7062TIP3    H242678   3.406   0.022   5.519  1.0579  1.3208  1.3612
 7063TIP3   OH242679   0.357   5.144  16.172  0.2076 -0.4455 -0.0033
 7063TIP3    H142680   0.437   5.192  16.154 -0.0115  0.4432  1.2850
 7063TIP3    H242681   0.288   5.197  16.132  0.0941 -0.3860  0.2735
 7064TIP3   OH242682   6.374   3.555   1.989 -0.4273 -0.1577 -0.2826
 7064TIP3    H142683   6.361   3.463   1.966  1.6811 -0.6374  0.2856
 7064TIP3    H242684   6.363   3.602   1.906  0.3249 -1.1346 -0.9652
 7065TIP3   OH242685   2.909   6.046   4.530  0.6837  0.5546  0.3862
 7065TIP3    H142686   2.971   6.044   4.602 -1.2262 -0.3522  2.0981
 7065TIP3    H242687   2.862   5.963   4.536 -0.8201  1.2635 -0.6964
 7066TIP3   OH242688   5.791   3.538  13.236 -0.3068  0.0286  0.2583
 7066TIP3    H142689   5.874   3.492  13.231  0.0960  0.7592  0.0342
 7066TIP3    H242690   5.737   3.484  13.294  0.2628 -0.5405  0.2668
 7067TIP3   OH242691   2.214   5.260   6.483 -0.5030  0.1771 -0.2267
 7067TIP3    H142692   2.248   5.201   6.416  0.0469  0.3143 -0.0770
 7067TIP3    H242693   2.270   5.338   6.477 -0.5041  0.2289  0.3299
 7068TIP3   OH242694   1.386   2.710   5.156  0.2292 -0.1873 -0.5579
 7068TIP3    H142695   1.334   2.653   5.099 -2.1516 -2.0215  3.0879
 7068TIP3    H242696   1.344   2.795   5.150  1.3725  0.2984 -3.0184
 7069TIP3   OH242697   1.999   3.362   3.078  0.0256  0.2622  0.3735
 7069TIP3    H142698   2.006   3.271   3.048 -0.1207  1.3134 -3.2512
 7069TIP3    H242699   1.953   3.407   3.008  0.0042  3.1761  2.0982
 7070TIP3   OH242700   2.430   4.437  12.835 -0.5162 -0.4830  0.4165
 7070TIP3    H142701   2.465   4.514  12.791 -0.1175 -0.6603  0.4113
 7070TIP3    H242702   2.385   4.388  12.766  0.2600 -0.8498  0.1497
 7071TIP3   OH242703   5.766   1.494  11.063  0.4594 -0.3114  0.1421
 7071TIP3    H142704   5.848   1.479  11.110  1.7655 -1.5018 -2.3350
 7071TIP3    H242705   5.785   1.469  10.972 -2.9170 -1.5624 -0.3677
 7072TIP3   OH242706   5.641   5.013   4.905  0.2803  0.6609 -0.3610
 7072TIP3    H142707   5.619   5.077   4.837 -1.7363  1.4473  0.9549
 7072TIP3    H242708   5.723   5.045   4.942  1.3696  0.2771 -2.2638
 7073TIP3   OH242709   5.766   5.783  10.357  0.5155  0.4751  0.3926
 7073TIP3    H142710   5.819   5.703  10.353  1.3848  1.0813 -1.3323
 7073TIP3    H242711   5.830   5.853  10.373 -0.3610  0.7818  3.0478
 7074TIP3   OH242712   5.185   1.087   6.084 -0.1437  0.0726  0.7600
 7074TIP3    H142713   5.104   1.085   6.033  0.5014  0.5213 -0.3232
 7074TIP3    H242714   5.200   1.179   6.103  1.0752  0.2189 -0.6985
 7075TIP3   OH242715   3.974   1.376  16.911 -0.4756  0.4445  0.0564
 7075TIP3    H142716   4.006   1.465  16.905  1.8456 -0.3186  0.3314
 7075TIP3    H242717   3.973   1.356  17.004 -1.1004  0.1977  0.0053
 7076TIP3   OH242718   5.811   6.778   5.323  0.4252  0.3116 -0.0433
 7076TIP3    H142719   5.860   6.756   5.243  1.0076  0.5898  0.2311
 7076TIP3    H242720   5.768   6.697   5.348  0.4558  0.1545 -0.4946
 7077TIP3   OH242721   4.721   0.077   5.920 -0.0559 -0.3746 -0.5095
 7077TIP3    H142722   4.775   0.125   5.983  0.3720 -1.1740 -0.2585
 7077TIP3    H242723   4.656   0.032   5.974 -0.2135 -0.3908 -0.7132
 7078TIP3   OH242724   1.583   3.975   4.181  0.2665 -0.5127  0.3073
 7078TIP3    H142725   1.498   3.975   4.139 -1.4659 -0.5029  3.4850
 7078TIP3    H242726   1.596   3.885   4.212  1.2179 -0.4194  0.2329
 7079TIP3   OH242727   2.799   1.552  15.603 -0.6252  0.0836  0.5980
 7079TIP3    H142728   2.834   1.621  15.660 -1.1986  0.7127  0.2017
 7079TIP3    H242729   2.704   1.558  15.613 -0.6957 -0.3572  0.2229
 7080TIP3   OH242730   3.751   0.443  12.359 -0.6995  0.0558  0.3146
 7080TIP3    H142731   3.701   0.501  12.302 -0.7541  0.9057  1.1997
 7080TIP3    H242732   3.702   0.444  12.442  1.1718  1.5541  1.4762
 7081TIP3   OH242733   2.747   2.806  13.288  0.3272  0.3699 -0.2473
 7081TIP3    H142734   2.729   2.720  13.326 -0.1421  1.1885  1.4914
 7081TIP3    H242735   2.841   2.820  13.305  0.8830 -0.5621 -2.2525
 7082TIP3   OH242736   0.678   4.310  11.424 -0.4308  0.4570 -0.2841
 7082TIP3    H142737   0.634   4.371  11.365  0.3310  1.5573  0.2584
 7082TIP3    H242738   0.614   4.295  11.494 -1.8945 -1.9230 -1.9581
 7083TIP3   OH242739   4.009   4.096   0.100 -0.4597  0.1783  0.7771
 7083TIP3    H142740   3.920   4.092   0.065 -0.3884 -0.3601  0.6427
 7083TIP3    H242741   4.063   4.121   0.026 -0.1458 -2.1155  0.1473
 7084TIP3   OH242742   3.627   2.013  13.046 -0.0238 -0.0473 -0.7397
 7084TIP3    H142743   3.685   1.981  13.114 -2.1625 -1.3066  0.5967
 7084TIP3    H242744   3.608   1.937  12.992 -0.6178  0.2931 -1.0198
 7085TIP3   OH242745   5.899   3.964   0.235  0.2538  0.1691  0.0506
 7085TIP3    H142746   5.974   3.918   0.274  1.2017  0.6427 -1.1553
 7085TIP3    H242747   5.897   4.048   0.280 -0.3052 -0.2901  0.9166
 7086TIP3   OH242748   0.429   4.476   2.891 -0.1899 -0.3819  0.5366
 7086TIP3    H142749   0.488   4.414   2.848 -0.0084 -1.0785  1.7477
 7086TIP3    H242750   0.445   4.559   2.847 -0.3555 -1.1594 -1.0418
 7087TIP3   OH242751   5.184   0.161  11.653  0.1903  0.2108 -0.1972
 7087TIP3    H142752   5.218   0.192  11.737 -0.0888  0.8195 -0.3014
 7087TIP3    H242753   5.173   0.066  11.665  0.6522  0.2107  0.2740
 7088TIP3   OH242754   0.965   4.459   4.419  0.3487 -0.1224  0.1727
 7088TIP3    H142755   1.044   4.441   4.470  1.9132  2.3270 -1.1815
 7088TIP3    H242756   0.998   4.481   4.331 -1.6964  2.1315 -0.1465
 7089TIP3   OH242757   0.191   3.430  13.106 -0.1367 -0.1416  0.0524
 7089TIP3    H142758   0.186   3.473  13.021 -1.0339 -0.5925 -0.1455
 7089TIP3    H242759   0.116   3.370  13.106  1.7523 -2.6871 -0.2392
 7090TIP3   OH242760   3.304   5.211  11.225 -0.0597  0.3095  0.0273
 7090TIP3    H142761   3.324   5.218  11.132  0.6113 -1.1557  0.0309
 7090TIP3    H242762   3.209   5.195  11.227 -0.2025  1.0472 -0.3476
 7091TIP3   OH242763   3.933   2.736   1.819  0.4445 -0.0057  0.0840
 7091TIP3    H142764   3.915   2.685   1.740 -0.1121 -1.0129  0.8328
 7091TIP3    H242765   4.014   2.782   1.800  0.1679 -0.0004 -1.1829
 7092TIP3   OH242766   3.760   4.656   6.577  0.3817  0.1561 -0.1525
 7092TIP3    H142767   3.701   4.726   6.605  1.2001  0.8651 -0.1631
 7092TIP3    H242768   3.848   4.692   6.589  0.8049 -0.5629 -0.9660
 7093TIP3   OH242769   4.338   0.435  16.856 -0.3539 -0.2770  0.0550
 7093TIP3    H142770   4.374   0.460  16.771  0.4407 -2.0773 -0.1908
 7093TIP3    H242771   4.251   0.477  16.859  1.3145  3.5907  0.3686
 7094TIP3   OH242772   3.843   2.936  13.986  0.3296 -0.0492 -0.1446
 7094TIP3    H142773   3.788   2.902  13.916  1.0170 -1.2280 -0.1423
 7094TIP3    H242774   3.781   2.975  14.048 -0.6604 -2.4205  0.4632
 7095TIP3   OH242775   2.817   3.100   3.962 -0.6981 -0.1292 -0.0262
 7095TIP3    H142776   2.895   3.092   4.017 -0.9728 -0.9488  0.2568
 7095TIP3    H242777   2.772   3.015   3.970 -0.9600 -0.1280 -1.1878
 7096TIP3   OH242778   1.722   5.446  11.878 -0.3305  0.4771  0.1525
 7096TIP3    H142779   1.716   5.390  11.955 -1.1649  1.0528  0.5171
 7096TIP3    H242780   1.631   5.456  11.849  0.0555 -0.6449 -1.5826
 7097TIP3   OH242781   6.564   2.961   6.227  0.3068  0.2718  0.6364
 7097TIP3    H142782   6.535   3.048   6.255 -0.8976  0.0558  0.1252
 7097TIP3    H242783   6.658   2.960   6.243  0.2624  1.5221  1.0303
 7098TIP3   OH242784   4.086   1.147   1.147 -0.0294  0.1244 -0.9175
 7098TIP3    H142785   4.031   1.155   1.225  0.4015 -0.1404 -0.5768
 7098TIP3    H242786   4.029   1.171   1.074  0.2997  3.2193 -0.2991
 7099TIP3   OH242787   1.074   5.251  13.722  0.0874 -0.4219 -0.4289
 7099TIP3    H142788   1.150   5.200  13.695  1.5440  1.9619 -1.1575
 7099TIP3    H242789   1.080   5.332  13.671 -1.9053  0.6459  0.8843
 7100TIP3   OH242790   2.675   4.075   0.182 -0.4588  0.2578 -0.5700
 7100TIP3    H142791   2.691   4.157   0.134  0.4772  0.3447 -0.1440
 7100TIP3    H242792   2.596   4.092   0.233 -0.0525  1.0487 -0.1799
 7101TIP3   OH242793   3.471   4.303  14.652 -0.2612  0.6950 -0.1006
 7101TIP3    H142794   3.501   4.240  14.587  2.2725  1.9413 -0.2928
 7101TIP3    H242795   3.422   4.368  14.602  0.1843  0.7312 -0.4942
 7102TIP3   OH242796   4.227   4.003  11.756  0.0847 -0.0527 -0.6612
 7102TIP3    H142797   4.248   3.915  11.788 -0.8935 -0.3558 -0.8107
 7102TIP3    H242798   4.258   4.004  11.666  1.5089  0.3014 -0.2009
 7103TIP3   OH242799   2.568   6.318   5.735 -0.2243  0.3994 -0.3969
 7103TIP3    H142800   2.546   6.333   5.827  1.5754  0.5907  0.0390
 7103TIP3    H242801   2.501   6.257   5.704 -0.9078  0.4023  1.0146
 7104TIP3   OH242802   6.308   0.835  15.743 -0.1720 -0.4325  0.4829
 7104TIP3    H142803   6.344   0.839  15.831 -0.0428  0.2559  0.4026
 7104TIP3    H242804   6.380   0.862  15.686 -0.9996  1.7707  0.3869
 7105TIP3   OH242805   4.740   3.564  16.010 -0.1176  0.5920  0.3790
 7105TIP3    H142806   4.701   3.649  16.031 -0.9765  0.6844 -1.4079
 7105TIP3    H242807   4.682   3.527  15.943  1.5549 -0.3385 -0.6196
 7106TIP3   OH242808   0.247   1.674   5.614  0.0805 -0.1228 -0.2519
 7106TIP3    H142809   0.193   1.654   5.690  1.1087 -2.7857 -0.1050
 7106TIP3    H242810   0.185   1.697   5.545 -1.1299 -1.2980  0.4073
 7107TIP3   OH242811   2.072   2.629   4.250  0.2309 -0.3259  0.5406
 7107TIP3    H142812   2.157   2.673   4.241  0.3470 -0.6810 -0.1523
 7107TIP3    H242813   2.089   2.538   4.226 -0.3117 -0.4357  0.5598
 7108TIP3   OH242814   1.535   6.015   1.550 -0.5418  0.3469 -0.3597
 7108TIP3    H142815   1.493   5.977   1.627 -0.1561  1.9091  0.6929
 7108TIP3    H242816   1.539   6.109   1.570  0.9641  0.5879 -1.6133
 7109TIP3   OH242817   0.728   6.428  12.012  0.1602 -0.2007  0.1805
 7109TIP3    H142818   0.674   6.434  11.933  0.1340  0.5526  0.2541
 7109TIP3    H242819   0.754   6.335  12.016 -0.5271 -0.4173 -0.2473
 7110TIP3   OH242820   4.943   5.573   2.485  0.0629  0.3519 -0.0371
 7110TIP3    H142821   4.958   5.512   2.557 -3.3245 -0.8876 -0.2294
 7110TIP3    H242822   4.861   5.616   2.507 -0.3436  0.9849 -2.5042
 7111TIP3   OH242823   5.299   5.018  13.441 -0.5971  0.1169  0.9411
 7111TIP3    H142824   5.313   4.990  13.350 -2.0372 -1.8215  1.2416
 7111TIP3    H242825   5.387   5.024  13.478  0.3019  3.7382 -1.2180
 7112TIP3   OH242826   2.184   5.192  15.897 -0.3262 -0.5059  0.1830
 7112TIP3    H142827   2.093   5.168  15.914 -0.5710 -0.3430 -0.8544
 7112TIP3    H242828   2.187   5.286  15.912 -0.8936 -0.0924 -1.9912
 7113TIP3   OH242829   4.707   0.616  14.018 -0.3119  0.2234  0.1071
 7113TIP3    H142830   4.725   0.656  14.103 -0.7775  0.0014  0.3127
 7113TIP3    H242831   4.729   0.524  14.030 -1.0447  0.0550  0.2001
 7114TIP3   OH242832   0.668   4.241   5.404 -0.1848 -0.1939  0.0444
 7114TIP3    H142833   0.656   4.146   5.405  0.5668 -0.3082 -0.9787
 7114TIP3    H242834   0.728   4.258   5.476 -1.1606 -0.3571  0.9234
 7115TIP3   OH242835   2.588   0.401  16.676  0.0502 -0.1869  0.3792
 7115TIP3    H142836   2.515   0.394  16.614 -1.2113 -0.5574  1.8543
 7115TIP3    H242837   2.612   0.494  16.673  1.8976 -0.6419 -2.6684
 7116TIP3   OH242838   1.146   4.108  14.193 -0.0458  0.4864 -0.1348
 7116TIP3    H142839   1.233   4.124  14.229  0.1927 -0.7083 -0.1393
 7116TIP3    H242840   1.161   4.096  14.099  0.0475 -1.4173  0.0911
 7117TIP3   OH242841   3.198   0.826   3.261 -0.2541 -0.3211  0.1223
 7117TIP3    H142842   3.123   0.797   3.209 -2.7042  2.3025  1.8288
 7117TIP3    H242843   3.167   0.820   3.352  2.5170 -1.3114  1.0846
 7118TIP3   OH242844   4.357   5.858   1.110 -0.3532 -0.2403  0.2404
 7118TIP3    H142845   4.399   5.772   1.117 -0.7283 -0.3923  0.7335
 7118TIP3    H242846   4.396   5.897   1.032  2.5329  0.6347  1.9513
 7119TIP3   OH242847   5.831   4.216  11.225 -0.8364  0.3161 -0.6990
 7119TIP3    H142848   5.736   4.222  11.240 -1.1619 -1.0204 -2.0574
 7119TIP3    H242849   5.869   4.233  11.312 -2.3619 -0.4939  0.1764
 7120TIP3   OH242850   1.210   1.542   1.778  0.0310  0.5239  0.2692
 7120TIP3    H142851   1.221   1.538   1.873  0.5910  0.5389  0.2081
 7120TIP3    H242852   1.180   1.455   1.754  0.3293  0.3809  0.4078
 7121TIP3   OH242853   5.240   6.854   3.659  0.6177 -0.1792  0.1763
 7121TIP3    H142854   5.328   6.887   3.678  0.0640  1.5064 -0.0263
 7121TIP3    H242855   5.215   6.896   3.577 -0.7755  0.2215  0.7713
 7122TIP3   OH242856   4.920   5.958  15.535 -0.0146  0.1743 -0.5038
 7122TIP3    H142857   4.943   5.903  15.610 -0.8680 -0.5393 -0.7511
 7122TIP3    H242858   4.840   6.003  15.561  0.4031  0.9289 -0.4981
 7123TIP3   OH242859   2.654   1.509  14.876  0.5834 -0.0056  0.1840
 7123TIP3    H142860   2.732   1.508  14.821 -0.3403  0.7969 -1.2326
 7123TIP3    H242861   2.591   1.561  14.826 -1.2842 -1.6581  0.6770
 7124TIP3   OH242862   6.372   2.994  15.087 -0.1803  0.0452 -0.4083
 7124TIP3    H142863   6.297   2.939  15.109 -0.9980  0.7880 -1.2456
 7124TIP3    H242864   6.343   3.083  15.108  0.6585  0.2961 -0.2717
 7125TIP3   OH242865   0.226   2.260  16.566 -0.3162  0.2912 -0.1122
 7125TIP3    H142866   0.150   2.305  16.530 -1.0256 -0.1654  0.7646
 7125TIP3    H242867   0.196   2.228  16.651  0.9610  0.3873  0.3919
 7126TIP3   OH242868   2.008   0.541   1.292 -0.0802  0.3670  0.1164
 7126TIP3    H142869   2.046   0.487   1.361 -0.3862 -1.2812 -0.9395
 7126TIP3    H242870   2.071   0.538   1.220  0.0744  1.7659  0.1576
 7127TIP3   OH242871   6.757   1.078  11.894  0.1353 -0.0307  0.4981
 7127TIP3    H142872   6.772   0.984  11.901 -0.0832 -0.0504  0.6914
 7127TIP3    H242873   6.844   1.116  11.902  0.2308 -0.2196  0.3705
 7128TIP3   OH242874   0.172   0.170   5.131 -0.3351  0.7872  0.1267
 7128TIP3    H142875   0.103   0.221   5.174  0.3244  1.6682  0.1779
 7128TIP3    H242876   0.149   0.171   5.039 -0.4803  0.9500  0.1637
 7129TIP3   OH242877   6.757   4.720   0.264 -0.1617 -0.0091  0.3991
 7129TIP3    H142878   6.711   4.789   0.216 -0.2611 -0.5251 -0.2711
 7129TIP3    H242879   6.706   4.641   0.248  1.1177 -0.6751 -0.6787
 7130TIP3   OH242880   2.798   1.202  14.617 -0.0979 -0.1542 -0.2943
 7130TIP3    H142881   2.891   1.209  14.638  0.3142  0.9355 -2.2538
 7130TIP3    H242882   2.796   1.153  14.535 -1.3644 -1.1703  0.3042
 7131TIP3   OH242883   4.072   4.989   4.961 -0.1562 -0.4494 -0.8114
 7131TIP3    H142884   4.004   4.961   5.022 -0.9840  1.3576 -0.8456
 7131TIP3    H242885   4.026   5.041   4.895  1.1277  0.0634 -1.3436
 7132TIP3   OH242886   1.116   0.331  14.926 -0.0988  0.7314 -0.3349
 7132TIP3    H142887   1.152   0.359  15.010  0.0830  0.0792 -0.1921
 7132TIP3    H242888   1.054   0.262  14.948 -2.7627  2.9585 -0.4133
 7133TIP3   OH242889   4.600   1.899   1.786  0.4690  0.1107 -0.0122
 7133TIP3    H142890   4.658   1.905   1.711  1.0960 -0.1967  0.4456
 7133TIP3    H242891   4.553   1.816   1.774  0.5983  0.0413 -0.0337
 7134TIP3   OH242892   6.255   3.689  15.554  0.3187  0.1872  0.1665
 7134TIP3    H142893   6.187   3.640  15.601  0.1356 -0.3869 -0.6644
 7134TIP3    H242894   6.238   3.780  15.577 -0.6109  0.0395  0.1434
 7135TIP3   OH242895   6.173   1.911   2.949  0.0476  0.1830 -0.1674
 7135TIP3    H142896   6.101   1.848   2.953  0.8448 -0.8465 -1.3042
 7135TIP3    H242897   6.233   1.883   3.018  1.0280 -1.1694 -1.4983
 7136TIP3   OH242898   5.057   3.131  14.247 -0.7643  0.3762  0.0118
 7136TIP3    H142899   5.019   3.109  14.162 -0.1838 -1.5238  0.2087
 7136TIP3    H242900   5.151   3.137  14.231 -0.8365  2.5911  0.0418
 7137TIP3   OH242901   1.791   6.829   3.554 -0.4003  0.2269  0.1650
 7137TIP3    H142902   1.832   6.749   3.587  0.8015  1.6338  2.3370
 7137TIP3    H242903   1.790   6.888   3.629 -1.5718  2.1582 -1.2700
 7138TIP3   OH242904   6.170   1.469  11.128  0.4071  0.3079 -0.5061
 7138TIP3    H142905   6.102   1.430  11.183  1.1863  2.6031  2.3376
 7138TIP3    H242906   6.123   1.530  11.071 -0.0772  0.8510  0.4582
 7139TIP3   OH242907   0.477   4.320   1.321 -0.1680  0.6466 -1.1892
 7139TIP3    H142908   0.477   4.406   1.279  0.1631  0.8323 -0.8216
 7139TIP3    H242909   0.570   4.299   1.330 -0.1800  1.2420  0.7059
 7140TIP3   OH242910   5.880   3.749   4.279 -0.3098  0.4363  0.7806
 7140TIP3    H142911   5.831   3.720   4.356  0.7182 -1.5626  0.7392
 7140TIP3    H242912   5.838   3.703   4.206  0.8234 -0.3733  0.6051
 7141TIP3   OH242913   3.285   4.060   6.540 -0.1587  0.1574  0.2548
 7141TIP3    H142914   3.310   4.131   6.600  1.8232 -0.2908  0.0322
 7141TIP3    H242915   3.367   4.035   6.497 -1.5333  0.7359 -3.0095
 7142TIP3   OH242916   4.936   6.114   5.738  0.0788  0.4619  0.6695
 7142TIP3    H142917   4.937   6.182   5.805  0.0585 -0.2542  1.4177
 7142TIP3    H242918   4.846   6.112   5.706  0.5334  2.2515 -0.9338
 7143TIP3   OH242919   2.240   4.936   4.720  0.4198 -1.0593  0.4838
 7143TIP3    H142920   2.267   5.027   4.719 -0.1749 -0.8173 -2.5898
 7143TIP3    H242921   2.163   4.935   4.777  1.2098  0.0311  1.6466
 7144TIP3   OH242922   2.999   1.552  11.543  0.2860 -0.0099 -0.2371
 7144TIP3    H142923   2.904   1.555  11.539  0.1558  2.1505  1.7573
 7144TIP3    H242924   3.028   1.567  11.453 -1.3877  4.2513 -0.3236
 7145TIP3   OH242925   6.153   1.407   0.985 -0.2214 -0.9037 -0.5612
 7145TIP3    H142926   6.214   1.362   1.043 -1.1547 -3.0392 -1.1414
 7145TIP3    H242927   6.206   1.434   0.910  0.5670 -0.0676  0.2880
 7146TIP3   OH242928   4.369   1.807   1.540  0.6020  0.1466 -0.4051
 7146TIP3    H142929   4.394   1.764   1.621 -0.3104 -0.6026 -0.5026
 7146TIP3    H242930   4.445   1.797   1.482  1.7863  1.8621  0.7649
 7147TIP3   OH242931   2.346   3.969  15.099 -0.0845 -0.2794  0.1637
 7147TIP3    H142932   2.252   3.952  15.108 -0.0124 -0.0033  1.6083
 7147TIP3    H242933   2.361   4.048  15.150  1.0716 -0.7573  0.5842
 7148TIP3   OH242934   6.800   1.087  12.379  0.0503 -0.2030 -0.1413
 7148TIP3    H142935   6.788   0.996  12.405 -0.0873  0.2810  1.5877
 7148TIP3    H242936   6.746   1.097  12.301  0.6814 -1.7925 -0.8268
 7149TIP3   OH242937   5.237   0.236   5.382 -0.3686 -0.5191 -0.2440
 7149TIP3    H142938   5.230   0.298   5.455 -0.3568  0.1490 -0.8081
 7149TIP3    H242939   5.331   0.225   5.370 -0.3697 -0.4898 -0.2777
 7150TIP3   OH242940   6.450   3.506   5.599 -0.0177  0.0602 -0.0828
 7150TIP3    H142941   6.386   3.487   5.668  0.0930  0.0294  0.0111
 7150TIP3    H242942   6.521   3.443   5.613 -0.2503 -0.3169 -0.5678
 7151TIP3   OH242943   0.074   2.656  10.272 -0.4496 -0.0552  0.1636
 7151TIP3    H142944  -0.014   2.694  10.266 -0.0337  0.7293 -2.1858
 7151TIP3    H242945   0.118   2.708  10.339 -1.0313  1.2298 -0.4139
 7152TIP3   OH242946   2.200   2.827   4.556 -0.5967  0.4660  0.2534
 7152TIP3    H142947   2.227   2.907   4.512  1.2564  0.5213  1.4358
 7152TIP3    H242948   2.267   2.763   4.533 -2.6902 -1.2228 -1.7482
 7153TIP3   OH242949   6.497   3.036   5.552  0.1887  0.6562 -0.0173
 7153TIP3    H142950   6.556   2.976   5.598 -2.2715 -0.9661  1.1875
 7153TIP3    H242951   6.452   2.981   5.488 -2.0085  1.1977  0.9964
 7154TIP3   OH242952   4.532   2.334  12.799 -0.2221  0.4332 -0.3505
 7154TIP3    H142953   4.505   2.425  12.804  1.3675  0.9261 -0.0029
 7154TIP3    H242954   4.472   2.287  12.857 -1.2027  1.2126 -0.7241
 7155TIP3   OH242955   0.313   5.400  12.083  0.5823  0.2293 -0.3253
 7155TIP3    H142956   0.326   5.474  12.024  1.1981  1.9215  1.7721
 7155TIP3    H242957   0.222   5.375  12.071  0.6017  0.7343 -1.7194
 7156TIP3   OH242958   1.086   6.616   2.700 -0.4039  0.2823  0.2018
 7156TIP3    H142959   1.117   6.692   2.650 -1.2536  0.1313 -0.5870
 7156TIP3    H242960   0.996   6.604   2.671  0.0914 -1.7856 -0.6264
 7157TIP3   OH242961   5.752   0.485  13.229 -0.1817 -0.2667 -0.1609
 7157TIP3    H142962   5.747   0.459  13.321 -0.8074  1.2292  0.2728
 7157TIP3    H242963   5.661   0.501  13.204  0.0497  0.0700 -0.8032
 7158TIP3   OH242964   1.117   1.912   5.769 -0.6852  0.3592  0.0880
 7158TIP3    H142965   1.047   1.847   5.780  0.4171 -0.8601  0.1556
 7158TIP3    H242966   1.071   1.996   5.761 -2.2321 -0.5892 -1.5175
 7159TIP3   OH242967   5.906   5.690   3.714  0.4980 -0.3865  0.3579
 7159TIP3    H142968   5.996   5.656   3.717  0.6232 -0.2914 -1.2579
 7159TIP3    H242969   5.865   5.640   3.644 -0.4034  0.3082  0.3873
 7160TIP3   OH242970   3.002   3.284   6.887 -0.1146  0.4684 -0.1777
 7160TIP3    H142971   3.070   3.225   6.854  0.6019  1.2932 -0.1909
 7160TIP3    H242972   2.931   3.275   6.823 -1.1164 -2.3333  1.1745
 7161TIP3   OH242973   5.210   0.727  11.492 -0.1368  0.3575 -0.8470
 7161TIP3    H142974   5.280   0.778  11.533  1.4588  0.5014 -3.5102
 7161TIP3    H242975   5.194   0.655  11.552  0.4372  1.7444  1.0635
 7162TIP3   OH242976   3.469   3.024   0.430  0.0014  0.3451 -0.9406
 7162TIP3    H142977   3.413   3.097   0.404 -1.2117 -1.0926 -2.7171
 7162TIP3    H242978   3.549   3.065   0.463 -0.5964  2.4616 -1.9229
 7163TIP3   OH242979   2.413   2.238   4.053 -0.2315  0.4666  0.0094
 7163TIP3    H142980   2.362   2.158   4.066  0.4738 -0.3641 -1.9610
 7163TIP3    H242981   2.460   2.223   3.971  0.4064  2.6662 -0.0798
 7164TIP3   OH242982   0.759   5.834  16.328  0.0013 -0.0026 -0.4313
 7164TIP3    H142983   0.702   5.905  16.297 -2.3340 -1.8580 -0.6220
 7164TIP3    H242984   0.707   5.788  16.393  0.9644 -2.3240 -1.2130
 7165TIP3   OH242985   0.261   2.477  12.890  0.3002 -0.1114 -0.0049
 7165TIP3    H142986   0.302   2.435  12.965 -0.4467  1.0851  1.1223
 7165TIP3    H242987   0.317   2.553  12.873  1.1925 -1.0628 -1.5103
 7166TIP3   OH242988   3.725   1.120  16.923 -0.4516 -0.4263  0.5423
 7166TIP3    H142989   3.716   1.095  16.831 -0.8752 -1.3547  0.8246
 7166TIP3    H242990   3.636   1.132  16.954 -0.3068  3.0582  0.0489
 7167TIP3   OH242991   4.219   3.822   2.448 -0.0118 -0.3485 -0.4827
 7167TIP3    H142992   4.125   3.834   2.462  0.3340 -0.6579  2.7992
 7167TIP3    H242993   4.252   3.910   2.434 -0.6602 -0.1253 -0.6641
 7168TIP3   OH242994   0.951   0.247  13.196  0.8731 -0.0612 -0.0426
 7168TIP3    H142995   0.914   0.204  13.118 -0.7094 -0.2929  0.7797
 7168TIP3    H242996   0.947   0.340  13.176 -0.5238 -0.0579  0.1321
 7169TIP3   OH242997   6.757   6.776   3.518  0.0672 -0.0570  0.1626
 7169TIP3    H142998   6.822   6.768   3.587 -0.1307 -0.5288  0.2987
 7169TIP3    H242999   6.787   6.717   3.449  0.9280  1.3237 -0.7009
 7170TIP3   OH243000   0.385   5.880  15.423 -0.3486 -0.5374 -0.0244
 7170TIP3    H143001   0.369   5.952  15.485 -0.3072 -0.9047  0.4229
 7170TIP3    H243002   0.445   5.916  15.358 -1.6679  0.3552 -0.7756
 7171TIP3   OH243003   4.732   2.330  10.357 -0.2826 -0.0953  0.2678
 7171TIP3    H143004   4.801   2.396  10.363  1.3371 -1.7284  0.0884
 7171TIP3    H243005   4.661   2.366  10.410  0.1390  2.2463 -0.6089
 7172TIP3   OH243006   4.367   0.257   2.778 -0.2947  0.7238  0.6408
 7172TIP3    H143007   4.274   0.274   2.761 -0.3743 -1.8522 -2.3712
 7172TIP3    H243008   4.368   0.179   2.834  0.1378  1.8652  2.3118
 7173TIP3   OH243009   4.078   0.427  12.831 -0.5323  0.2209 -0.1500
 7173TIP3    H143010   4.156   0.383  12.865 -0.6798  1.1653  1.4660
 7173TIP3    H243011   4.111   0.504  12.786 -0.5071  0.2926 -0.0059
 7174TIP3   OH243012   4.817   0.291   2.905  0.0615 -0.2853 -0.0788
 7174TIP3    H143013   4.889   0.326   2.958 -0.5566 -1.2179  1.4344
 7174TIP3    H243014   4.739   0.306   2.958 -0.5815 -1.2567 -0.7205
 7175TIP3   OH243015   0.551   6.566  16.638 -0.4207  0.6699  0.7734
 7175TIP3    H143016   0.567   6.488  16.691 -2.8844 -0.2424  0.3209
 7175TIP3    H243017   0.626   6.623  16.656  0.8657 -1.2839  2.0383
 7176TIP3   OH243018   5.461   3.359   0.248  0.2662 -0.3541 -0.0997
 7176TIP3    H143019   5.523   3.336   0.318  0.6853 -1.2912 -0.7673
 7176TIP3    H243020   5.383   3.308   0.269  0.5186 -0.9235 -0.4941
 7177TIP3   OH243021   6.305   0.351   0.399 -0.2371  0.1626  0.2028
 7177TIP3    H143022   6.247   0.283   0.432  2.2829 -2.7730 -0.9114
 7177TIP3    H243023   6.323   0.326   0.308 -0.0235  3.0126 -0.6556
 7178TIP3   OH243024   0.052   5.492  11.249 -0.4171  0.2060 -0.2506
 7178TIP3    H143025   0.089   5.477  11.162  0.0077 -0.8887  0.0884
 7178TIP3    H243026   0.112   5.446  11.308 -0.7788  0.8084  0.6076
 7179TIP3   OH243027   6.001   1.032   4.719  0.3427 -0.3173 -0.7594
 7179TIP3    H143028   6.030   0.941   4.717  0.3749 -0.3017 -1.1526
 7179TIP3    H243029   5.964   1.047   4.632  0.0550 -0.0466 -0.5931
 7180TIP3   OH243030   2.865   1.235   1.739  0.2566 -0.5603 -0.0831
 7180TIP3    H143031   2.872   1.266   1.649 -1.1874 -0.9292 -0.3532
 7180TIP3    H243032   2.952   1.200   1.759  0.9850  0.7059 -0.8593
 7181TIP3   OH243033   2.552   1.677   3.669  0.1989  0.1185 -0.8090
 7181TIP3    H143034   2.519   1.744   3.729  0.9666 -0.0971 -0.1305
 7181TIP3    H243035   2.511   1.596   3.699 -0.9142  0.2966 -1.7741
 7182TIP3   OH243036   3.203   4.303   6.356 -0.2568  0.1202 -0.5467
 7182TIP3    H143037   3.278   4.268   6.403 -0.4809  0.6708  0.2282
 7182TIP3    H243038   3.225   4.395   6.340 -1.4786  0.7791  1.2462
 7183TIP3   OH243039   2.582   3.843  13.913 -0.0586  0.1244  0.3215
 7183TIP3    H143040   2.538   3.845  13.828 -0.9897 -0.9507  0.7621
 7183TIP3    H243041   2.568   3.931  13.949 -0.0270  0.4522 -0.4409
 7184TIP3   OH243042   3.606   1.112  11.730 -0.4530  0.1968 -0.2753
 7184TIP3    H143043   3.632   1.092  11.640  2.3193  0.4055  0.3794
 7184TIP3    H243044   3.529   1.168  11.721 -0.0796  0.4436 -2.5179
 7185TIP3   OH243045   0.147   2.130  13.895  0.1636  0.0675 -0.7641
 7185TIP3    H143046   0.147   2.208  13.950 -0.5831  0.2229 -0.9692
 7185TIP3    H243047   0.063   2.089  13.912  0.8502 -1.1174 -0.0863
 7186TIP3   OH243048   5.169   1.056   4.314 -0.5755  0.3334  0.2374
 7186TIP3    H143049   5.181   0.998   4.239 -1.3339 -1.0323  1.1157
 7186TIP3    H243050   5.174   0.998   4.390  0.7877  1.7562  1.3179
 7187TIP3   OH243051   6.661   4.606  16.110  0.1720 -0.1163 -0.4984
 7187TIP3    H143052   6.600   4.659  16.058 -1.6089 -0.9431  0.6379
 7187TIP3    H243053   6.640   4.516  16.087  0.0376 -0.4608  0.8664
 7188TIP3   OH243054   2.413   4.898  13.527 -0.2651  0.0261 -0.1516
 7188TIP3    H143055   2.401   4.993  13.522 -0.3256 -0.0296 -1.2761
 7188TIP3    H243056   2.477   4.878  13.459  0.1667 -0.6835  0.4452
 7189TIP3   OH243057   0.447   4.837   5.878  0.1384  0.0123 -0.4400
 7189TIP3    H143058   0.493   4.776   5.820  1.2716  0.6342 -0.2411
 7189TIP3    H243059   0.404   4.782   5.943  0.1110 -0.6209 -0.9861
 7190TIP3   OH243060   3.503   1.599   1.275 -0.2383 -0.2154 -0.4708
 7190TIP3    H143061   3.475   1.510   1.296  0.7731  0.0916  2.5867
 7190TIP3    H243062   3.596   1.590   1.252 -0.2301  0.0344 -0.5326
 7191TIP3   OH243063   5.399   4.510   3.924  0.3904 -0.1492 -0.2627
 7191TIP3    H143064   5.354   4.499   3.841 -0.0326 -0.5677  0.0147
 7191TIP3    H243065   5.480   4.557   3.902 -0.1594  0.5673 -0.7683
 7192TIP3   OH243066   1.927   5.372  13.647  0.2834  0.2713 -0.2899
 7192TIP3    H143067   1.978   5.292  13.657 -0.1886  0.0883  0.6932
 7192TIP3    H243068   1.941   5.421  13.728 -0.3285  0.6702 -0.4168
 7193TIP3   OH243069   6.388   5.608   0.842 -0.5773 -0.4175 -0.5391
 7193TIP3    H143070   6.435   5.682   0.803 -0.6743 -1.0161 -1.8766
 7193TIP3    H243071   6.383   5.629   0.935 -1.1662  1.5737 -0.9581
 7194TIP3   OH243072   4.148   4.956   0.906 -0.2064 -0.1524 -0.1684
 7194TIP3    H143073   4.161   4.862   0.894  2.3997 -0.0415  1.1450
 7194TIP3    H243074   4.237   4.992   0.912 -1.1268  2.4340 -0.7812
 7195TIP3   OH243075   2.541   6.045  13.443 -0.1203  0.1472 -0.2697
 7195TIP3    H143076   2.522   6.064  13.351  0.5391 -1.3783 -0.7512
 7195TIP3    H243077   2.456   6.019  13.481 -0.0281 -1.4771 -1.0693
 7196TIP3   OH243078   0.101   2.956   0.375  0.6190 -0.0262 -0.5257
 7196TIP3    H143079   0.167   2.904   0.420  0.3833  0.1255  0.0188
 7196TIP3    H243080   0.134   3.046   0.379 -0.3148  0.2879  1.1295
 7197TIP3   OH243081   3.610   1.385   3.646 -0.4602  0.0828 -0.2051
 7197TIP3    H143082   3.667   1.396   3.570 -0.9273  0.8979 -0.4478
 7197TIP3    H243083   3.531   1.345   3.612  0.0282 -1.2584  0.1697
 7198TIP3   OH243084   0.875   3.338  12.235  0.0015 -0.0071  0.0911
 7198TIP3    H143085   0.938   3.406  12.209  0.0761  1.0631  2.7230
 7198TIP3    H243086   0.929   3.261  12.252  0.3388  0.2333  0.1270
 7199TIP3   OH243087   4.012   4.961   2.393 -0.2643  0.1069  0.7994
 7199TIP3    H143088   4.068   4.914   2.455 -0.8054 -1.4714  0.1394
 7199TIP3    H243089   3.928   4.916   2.397 -0.4319  0.2170 -0.7681
 7200TIP3   OH243090   5.086   4.102   4.114  0.0368  0.2525  0.5431
 7200TIP3    H143091   5.174   4.068   4.128  0.4203  1.0346  0.0573
 7200TIP3    H243092   5.045   4.098   4.201 -0.3462 -2.5191  0.3076
 7201TIP3   OH243093   6.418   0.526  15.100 -0.3102 -0.2573 -0.2088
 7201TIP3    H143094   6.406   0.615  15.132 -0.4159 -0.0126 -0.9048
 7201TIP3    H243095   6.371   0.471  15.163 -1.1933  0.2820 -0.3714
 7202TIP3   OH243096   4.484   0.511   1.638  0.0879 -0.1231  0.4933
 7202TIP3    H143097   4.446   0.470   1.560  1.3975  0.5484 -0.5506
 7202TIP3    H243098   4.409   0.547   1.685 -0.7973 -1.1037 -0.1029
 7203TIP3   OH243099   3.028   1.664   5.538  0.0038 -0.0339  0.5573
 7203TIP3    H143100   3.066   1.752   5.544 -0.3676  0.2000 -0.3471
 7203TIP3    H243101   2.967   1.670   5.465  0.8802 -1.3703 -0.3253
 7204TIP3   OH243102   1.201   2.852  14.827 -0.5145  0.2162  0.7137
 7204TIP3    H143103   1.131   2.788  14.813 -2.6196  1.3787  4.4700
 7204TIP3    H243104   1.239   2.828  14.912  1.9221  1.2091 -0.0103
 7205TIP3   OH243105   5.738   5.864  14.144 -0.0660  0.2609 -0.2262
 7205TIP3    H143106   5.728   5.813  14.064 -0.6633  0.1456 -0.0891
 7205TIP3    H243107   5.832   5.868  14.159  0.0496  0.2511 -0.9102
 7206TIP3   OH243108   4.993   1.611   0.346  0.4233 -0.5636 -0.1583
 7206TIP3    H143109   5.030   1.638   0.262 -0.9588 -0.6990 -0.8306
 7206TIP3    H243110   5.001   1.515   0.346 -0.9041 -0.6898 -0.7983
 7207TIP3   OH243111   5.834   6.509  11.857  0.4324 -0.1021  0.7181
 7207TIP3    H143112   5.789   6.593  11.853 -1.8226 -1.3212 -0.8904
 7207TIP3    H243113   5.910   6.526  11.913 -0.9243  2.5346  1.9190
 7208TIP3   OH243114   0.743   2.000   2.761  0.3478 -0.3521 -0.3340
 7208TIP3    H143115   0.831   2.037   2.776  1.2721 -2.8370  0.9479
 7208TIP3    H243116   0.684   2.074   2.777  2.1227  0.9399  0.6905
 7209TIP3   OH243117   6.044   0.706   2.383  0.0561 -0.3182  0.5487
 7209TIP3    H143118   6.039   0.685   2.476 -0.7707 -3.2287 -0.0765
 7209TIP3    H243119   5.953   0.702   2.353  0.1753  1.6566 -0.2524
 7210TIP3   OH243120   4.159   0.604   2.688  0.1014  0.6092  0.4305
 7210TIP3    H143121   4.111   0.598   2.771 -1.9957 -0.8468 -0.7873
 7210TIP3    H243122   4.235   0.658   2.708 -0.5496  0.6521  3.1917
 7211TIP3   OH243123   1.819   2.364  12.254  0.0760 -0.2904  0.0569
 7211TIP3    H143124   1.864   2.282  12.236 -1.4575 -1.2170  0.2334
 7211TIP3    H243125   1.889   2.429  12.261  1.2678 -1.3891 -1.0388
 7212TIP3   OH243126   0.724   4.088   0.288  0.1265 -0.0154  0.5886
 7212TIP3    H143127   0.659   4.125   0.348  0.7628 -0.6302  1.6972
 7212TIP3    H243128   0.761   4.014   0.336  1.7279  0.3864  0.0347
 7213TIP3   OH243129   5.564   1.426  13.025  0.5868 -0.2008  0.1163
 7213TIP3    H143130   5.500   1.404  12.958 -0.7657  1.8050  0.6576
 7213TIP3    H243131   5.614   1.499  12.987  2.1140 -1.2725 -0.0180
 7214TIP3   OH243132   3.917   1.085   3.603  0.6625  0.4460  0.3341
 7214TIP3    H143133   3.960   1.089   3.517  1.6242  2.7480  0.8616
 7214TIP3    H243134   3.980   1.041   3.659  1.5059  1.9342  0.6043
 7215TIP3   OH243135   2.110   4.578  14.775  0.3049  0.0574 -0.2786
 7215TIP3    H143136   2.112   4.485  14.796 -0.5328  0.2595  0.8378
 7215TIP3    H243137   2.200   4.609  14.787  0.1121 -0.1082  1.9159
 7216TIP3   OH243138   2.598   0.543   4.237 -0.4699  0.2351  0.4973
 7216TIP3    H143139   2.563   0.590   4.312 -0.0807  0.7987  0.3340
 7216TIP3    H243140   2.693   0.549   4.247 -0.3686  1.7195 -0.8641
 7217TIP3   OH243141   6.543   2.431  15.642  0.6602 -0.0565 -0.0105
 7217TIP3    H143142   6.459   2.466  15.614 -0.8987 -1.7604  2.2081
 7217TIP3    H243143   6.577   2.386  15.565 -0.7338  0.1546 -0.7852
 7218TIP3   OH243144   2.851   2.186  11.833  0.3038 -0.2131  0.7917
 7218TIP3    H143145   2.799   2.264  11.811 -2.3439 -1.7242  1.1993
 7218TIP3    H243146   2.924   2.188  11.771 -0.9615  1.3836 -0.7738
 7219TIP3   OH243147   2.871   4.169   2.348 -0.1449  0.5113  0.3504
 7219TIP3    H143148   2.840   4.164   2.258  1.8852  1.7114 -0.4808
 7219TIP3    H243149   2.796   4.139   2.401 -2.0378  1.5295 -1.5908
 7220TIP3   OH243150   5.622   4.442   4.995  0.0112 -0.1069  0.2853
 7220TIP3    H143151   5.690   4.389   4.955 -0.6308 -0.6167 -0.1639
 7220TIP3    H243152   5.569   4.473   4.921 -0.4068  0.0389  0.6384
 7221TIP3   OH243153   1.202   3.854   3.372 -0.2780  0.0662  0.3791
 7221TIP3    H143154   1.144   3.864   3.296  0.3661 -1.2344 -0.3307
 7221TIP3    H243155   1.240   3.767   3.361  0.8448  0.3850  1.5045
 7222TIP3   OH243156   4.399   3.449  15.717  0.2636  0.6160  0.1574
 7222TIP3    H143157   4.479   3.402  15.741  2.6589  2.3741 -3.4866
 7222TIP3    H243158   4.416   3.540  15.742 -0.8261  0.9438 -0.2148
 7223TIP3   OH243159   4.054   0.346   1.995  0.3793  0.3635 -0.0590
 7223TIP3    H143160   4.102   0.370   1.916 -1.6371 -0.9965 -1.7788
 7223TIP3    H243161   4.092   0.262   2.021  1.6363  1.2192  0.9900
 7224TIP3   OH243162   3.831   1.331   1.704 -1.0184 -0.1881 -0.0531
 7224TIP3    H143163   3.819   1.317   1.610 -0.2917 -0.6586 -0.0856
 7224TIP3    H243164   3.818   1.425   1.716  1.6002  0.3953 -1.0875
 7225TIP3   OH243165   1.759   4.307   6.177  0.4082 -0.6564  0.2575
 7225TIP3    H143166   1.751   4.320   6.272 -0.6212 -0.6599  0.1867
 7225TIP3    H243167   1.814   4.229   6.168  0.4889 -0.6740  0.8577
 7226TIP3   OH243168   1.292   3.465  14.375  0.2294  0.4106 -0.3272
 7226TIP3    H143169   1.324   3.556  14.376  0.4497  0.3446  1.0607
 7226TIP3    H243170   1.371   3.412  14.365  0.2301  0.3469 -0.0077
 7227TIP3   OH243171   4.832   4.626   0.409  0.2290 -0.4089 -0.3493
 7227TIP3    H143172   4.875   4.684   0.473 -2.0687  2.2343 -0.9800
 7227TIP3    H243173   4.902   4.569   0.377  2.5216  1.5028  0.9259
 7228TIP3   OH243174   4.509   5.322  13.877  0.1880 -0.2732  0.1190
 7228TIP3    H143175   4.561   5.370  13.942 -1.8034  3.5743 -0.8700
 7228TIP3    H243176   4.556   5.334  13.795 -1.0592  1.4078 -0.3970
 7229TIP3   OH243177   5.050   4.265   2.672 -0.2190 -0.3392  0.6495
 7229TIP3    H143178   4.955   4.268   2.682 -0.1368  0.8453  1.2846
 7229TIP3    H243179   5.081   4.219   2.750 -0.3935 -3.2422 -0.8548
 7230TIP3   OH243180   5.253   1.682   2.169 -0.1628  0.5258  0.3255
 7230TIP3    H143181   5.236   1.760   2.222 -1.2521  0.9869 -0.6470
 7230TIP3    H243182   5.305   1.715   2.095 -2.0579  0.7049 -0.9851
 7231TIP3   OH243183   5.161   1.563   1.488 -0.3382  0.5433  0.2595
 7231TIP3    H143184   5.116   1.589   1.568 -2.4481  0.1611 -0.7326
 7231TIP3    H243185   5.158   1.467   1.489 -2.5670  0.5016 -1.3291
 7232TIP3   OH243186   1.343   5.393   2.444 -0.2870  0.4156 -0.2808
 7232TIP3    H143187   1.395   5.465   2.481 -0.7823  0.0548  1.1765
 7232TIP3    H243188   1.387   5.314   2.475 -0.6487  0.1028 -0.5693
 7233TIP3   OH243189   5.544   2.945   6.239  0.2834  0.1092 -0.1068
 7233TIP3    H143190   5.597   2.952   6.160  0.6411  0.4171  0.1588
 7233TIP3    H243191   5.563   2.858   6.274  0.5240  0.1726 -0.0790
 7234TIP3   OH243192   5.791   0.204   1.167  0.4315 -0.5141 -0.3212
 7234TIP3    H143193   5.725   0.196   1.099  0.3735  0.3457 -0.3810
 7234TIP3    H243194   5.741   0.206   1.249  0.5232 -1.9049 -0.2119
 7235TIP3   OH243195   1.161   5.815   5.665  0.1507 -0.6833  0.1535
 7235TIP3    H143196   1.207   5.741   5.705 -1.7353 -0.8355  2.2621
 7235TIP3    H243197   1.073   5.782   5.649 -0.4402  0.8054  0.2120
 7236TIP3   OH243198   6.320   3.865   4.640  0.3859  0.0673 -0.2863
 7236TIP3    H143199   6.376   3.886   4.565 -0.6773  0.3964 -1.0080
 7236TIP3    H243200   6.372   3.802   4.691  1.7861  1.0506 -0.4339
 7237TIP3   OH243201   5.997   0.619  16.243 -0.0698  0.1658 -0.1622
 7237TIP3    H143202   6.037   0.540  16.278 -1.1736  0.0429  0.9351
 7237TIP3    H243203   6.042   0.690  16.288 -0.8360  0.0398  0.8461
 7238TIP3   OH243204   0.917   6.204  13.917 -0.1429  0.4435  0.4230
 7238TIP3    H143205   0.945   6.291  13.890  1.4434  0.7036  2.5744
 7238TIP3    H243206   0.999   6.157  13.935 -0.9495 -1.6152 -0.9203
 7239TIP3   OH243207   0.816   3.868   0.488 -0.1136  0.5394  0.2122
 7239TIP3    H143208   0.831   3.775   0.474  0.1753  0.3524  1.5825
 7239TIP3    H243209   0.723   3.881   0.470 -0.0418  0.0898 -0.4773
 7240TIP3   OH243210   0.406   6.840   3.301 -0.7405 -0.2098 -0.1281
 7240TIP3    H143211   0.339   6.772   3.306 -1.9811  1.0027  0.4085
 7240TIP3    H243212   0.387   6.898   3.374 -0.6397  1.5071 -1.3915
 7241TIP3   OH243213   4.523   2.889   5.155 -0.1283  0.3386 -0.5887
 7241TIP3    H143214   4.604   2.883   5.103 -0.0593  0.5545 -0.5105
 7241TIP3    H243215   4.538   2.965   5.212 -0.6174  0.7326 -0.9800
 7242TIP3   OH243216   6.420   0.558   5.751  0.4806  0.6205  0.0340
 7242TIP3    H143217   6.510   0.571   5.783  1.0795  3.5261 -2.3786
 7242TIP3    H243218   6.375   0.640   5.772 -1.5955 -0.6716  0.9172
 7243TIP3   OH243219   5.656   1.900  11.514 -0.1795  0.4406 -0.2410
 7243TIP3    H143220   5.569   1.923  11.547  0.0094  0.1324  0.4960
 7243TIP3    H243221   5.709   1.887  11.593  0.0107 -1.3794 -0.6141
 7244TIP3   OH243222   5.620   3.039   5.170 -0.4324  0.2900 -0.2174
 7244TIP3    H143223   5.633   2.966   5.229  1.1168 -2.1960 -3.3496
 7244TIP3    H243224   5.705   3.082   5.164 -0.8847  1.2931  0.2221
 7245TIP3   OH243225   5.137   4.779   3.465 -0.0567  0.2306  0.7498
 7245TIP3    H143226   5.053   4.824   3.463  0.4219  1.1756  1.0841
 7245TIP3    H243227   5.142   4.740   3.552 -0.6368 -0.8206  0.3279
 7246TIP3   OH243228   4.774   2.891  15.755  0.5552  0.4342  0.4762
 7246TIP3    H143229   4.869   2.897  15.763  0.6216  0.2063 -0.0976
 7246TIP3    H243230   4.743   2.883  15.845  1.2328 -1.7045  0.5633
 7247TIP3   OH243231   0.835   4.497   3.637 -0.5873 -0.4455 -0.0121
 7247TIP3    H143232   0.819   4.580   3.682  0.4121  0.3523 -1.0589
 7247TIP3    H243233   0.895   4.450   3.695 -0.3910 -0.0187  0.1384
 7248TIP3   OH243234   6.091   0.087   3.788 -0.3498 -0.6128 -0.0824
 7248TIP3    H143235   6.104   0.173   3.829  1.0258 -1.0319  0.4116
 7248TIP3    H243236   6.116   0.100   3.696 -1.0474 -0.2699 -0.2297
 7249TIP3   OH243237   6.047   1.011   2.260 -0.1839  0.3286  0.4311
 7249TIP3    H143238   6.072   0.923   2.291  2.5376  0.9846  0.3309
 7249TIP3    H243239   6.118   1.068   2.290 -0.5022  2.0375 -1.7823
 7250TIP3   OH243240   1.979   5.618  12.750 -0.5094 -0.1230  0.1155
 7250TIP3    H143241   2.056   5.596  12.803 -1.0279 -0.0861  0.9098
 7250TIP3    H243242   1.972   5.546  12.688  0.4546  0.1256 -0.2983
 7251TIP3   OH243243   0.474   0.456   3.347  0.0643 -0.1043  0.6916
 7251TIP3    H143244   0.388   0.445   3.306 -1.0181  2.7099  1.9083
 7251TIP3    H243245   0.468   0.407   3.429 -0.6728  0.5619  1.0586
 7252TIP3   OH243246   5.438   6.358   1.340  0.2259  0.3241 -0.5843
 7252TIP3    H143247   5.403   6.369   1.252  0.1946 -1.4964 -0.8434
 7252TIP3    H243248   5.376   6.405   1.397 -1.3271 -0.7934 -1.2732
 7253TIP3   OH243249   2.273   0.007  14.068 -0.2791  1.2079  0.3985
 7253TIP3    H143250   2.299  -0.008  14.158  2.5964  0.2658 -0.4889
 7253TIP3    H243251   2.294   0.099  14.051 -0.7016  1.3503  0.6366
 7254TIP3   OH243252   2.568   3.480   3.030 -0.6364  0.0609  0.7055
 7254TIP3    H143253   2.523   3.417   3.087 -1.4276  0.6552  0.7609
 7254TIP3    H243254   2.660   3.455   3.034 -0.5647  0.5504  2.8470
 7255TIP3   OH243255   6.009   5.533   0.749 -0.3640 -0.1231 -0.1182
 7255TIP3    H143256   6.068   5.575   0.687  0.1647 -0.6693  0.0005
 7255TIP3    H243257   6.055   5.538   0.833  0.1428 -1.7231 -0.2621
 7256TIP3   OH243258   5.730   3.480  12.058 -0.5525 -0.0454 -0.4820
 7256TIP3    H143259   5.771   3.523  11.983  0.1877 -1.1208 -0.7148
 7256TIP3    H243260   5.791   3.493  12.131 -1.1280  0.7387 -0.1222
 7257TIP3   OH243261   6.153   3.745  17.007  0.5168  0.4220 -0.1564
 7257TIP3    H143262   6.198   3.722  17.088 -2.4990 -1.7480  1.1117
 7257TIP3    H243263   6.143   3.661  16.961  0.5175  1.3287 -1.8611
 7258TIP3   OH243264   3.276   2.837   5.878 -0.2373 -0.4113  0.1801
 7258TIP3    H143265   3.284   2.906   5.944 -0.1939  0.6923 -0.9530
 7258TIP3    H243266   3.357   2.786   5.887 -0.3360 -0.4142  1.1219
 7259TIP3   OH243267   2.838   1.122   0.410 -0.3715  0.6863 -0.1873
 7259TIP3    H143268   2.873   1.178   0.341 -0.5423 -0.1908 -1.0084
 7259TIP3    H243269   2.745   1.112   0.387 -0.4275  0.3798  0.1698
 7260TIP3   OH243270   6.538   5.347   4.614 -0.0142 -0.4048  0.0743
 7260TIP3    H143271   6.621   5.322   4.653 -0.1931  0.2564  0.9269
 7260TIP3    H243272   6.545   5.322   4.522  1.6370  0.8161 -0.1656
 7261TIP3   OH243273   2.007   0.871  16.098  0.4064  0.3836  0.8701
 7261TIP3    H143274   2.057   0.906  16.172  0.4983 -0.0627  1.0240
 7261TIP3    H243275   1.956   0.945  16.065 -0.5627  0.3083  2.1403
 7262TIP3   OH243276   5.463   5.771   0.347 -0.3804  0.0317 -0.5634
 7262TIP3    H143277   5.517   5.840   0.387 -2.3259  1.4867 -0.2643
 7262TIP3    H243278   5.502   5.690   0.377  1.7318  0.9903 -0.5311
 7263TIP3   OH243279   1.315   2.176  16.167 -0.3950 -0.1356  0.4502
 7263TIP3    H143280   1.305   2.111  16.097 -2.5575  0.0279  0.5361
 7263TIP3    H243281   1.287   2.129  16.246  0.0033  0.3115  0.8620
 7264TIP3   OH243282   4.922   3.467   5.635 -0.3074  0.6219  0.0235
 7264TIP3    H143283   4.834   3.429   5.633 -0.5125  1.0723  0.4779
 7264TIP3    H243284   4.979   3.395   5.609 -0.9527  0.7705 -1.9897
 7265TIP3   OH243285   6.747   4.236   2.105 -0.2471 -0.1661  0.2486
 7265TIP3    H143286   6.781   4.302   2.166  3.2595 -0.7073 -0.9238
 7265TIP3    H243287   6.722   4.163   2.161 -1.4631  0.9966  1.3199
 7266TIP3   OH243288   0.333   6.543   4.449 -0.1497 -0.8645  0.2157
 7266TIP3    H143289   0.362   6.545   4.358  0.6771 -1.1554  0.4624
 7266TIP3    H243290   0.394   6.483   4.492 -1.5385 -2.0440  0.6176
 7267TIP3   OH243291   2.354   2.976  11.217  0.2136  0.2955  0.0125
 7267TIP3    H143292   2.434   2.980  11.164  0.5488 -0.2223  0.4557
 7267TIP3    H243293   2.299   3.047  11.185  0.5682  0.2236 -0.7659
 7268TIP3   OH243294   5.348   3.926  11.090  0.0959 -0.0853  0.0987
 7268TIP3    H143295   5.326   3.848  11.039 -0.5916  1.6284 -2.3658
 7268TIP3    H243296   5.275   3.934  11.152 -0.4593 -0.7220 -0.4485
 7269TIP3   OH243297   6.080   1.938   3.272 -0.0392  0.2008  0.0826
 7269TIP3    H143298   6.086   1.953   3.366 -1.1283  0.0985  0.1795
 7269TIP3    H243299   6.070   1.844   3.262 -1.8285  0.3737 -0.0046
 7270TIP3   OH243300   3.864   5.501  12.490  0.4801  0.4981 -0.4074
 7270TIP3    H143301   3.783   5.551  12.477 -0.0209 -0.4840 -1.1410
 7270TIP3    H243302   3.898   5.487  12.402  2.1537  1.9676 -0.0770
 7271TIP3   OH243303   3.425   5.200   5.828 -0.4515 -0.1244 -0.1414
 7271TIP3    H143304   3.363   5.167   5.763 -0.9563 -1.8723  1.1482
 7271TIP3    H243305   3.510   5.197   5.785 -0.8356 -0.8334 -0.8730
 7272TIP3   OH243306   3.375   0.704   1.980  0.0102 -0.6259  0.1299
 7272TIP3    H143307   3.337   0.739   2.060  1.2599  0.4993  0.2762
 7272TIP3    H243308   3.464   0.740   1.978 -0.9242  2.0235 -3.2711
 7273TIP3   OH243309   2.801   3.701   0.418  0.6491  0.1323 -0.5555
 7273TIP3    H143310   2.741   3.702   0.492 -0.3653 -0.0640 -1.3466
 7273TIP3    H243311   2.886   3.725   0.455  0.2726 -0.4578  0.7486
 7274TIP3   OH243312   5.189   6.200   2.461  0.3101 -0.7978  0.1804
 7274TIP3    H143313   5.112   6.143   2.467 -1.0104  0.7631 -1.0277
 7274TIP3    H243314   5.153   6.288   2.456  2.1677 -0.0405 -0.7374
 7275TIP3   OH243315   6.794   0.951   5.633 -0.0504 -0.1426  0.0684
 7275TIP3    H143316   6.824   0.860   5.631 -0.0900 -0.1563 -2.5387
 7275TIP3    H243317   6.699   0.944   5.628 -0.1818  0.0524  1.7107
 7276TIP3   OH243318   1.742   6.683   6.556  0.2862 -0.1192  0.0416
 7276TIP3    H143319   1.786   6.732   6.626  1.7904 -2.0188  0.5078
 7276TIP3    H243320   1.665   6.645   6.598  1.0839 -1.0995  0.6547
 7277TIP3   OH243321   0.326   4.125   3.982  0.5887  0.1448 -0.1255
 7277TIP3    H143322   0.286   4.040   3.962  0.2163 -0.0237  1.2595
 7277TIP3    H243323   0.420   4.106   3.985  0.8200  0.4272 -2.8038
 7278TIP3   OH243324   4.163   2.732  15.115 -0.1603 -0.1090  0.4298
 7278TIP3    H143325   4.200   2.643  15.117 -0.8804 -0.4126  0.4816
 7278TIP3    H243326   4.081   2.725  15.162 -1.6085 -0.0754 -1.9185
 7279TIP3   OH243327   2.216   0.238   1.313 -0.0604 -0.0551  0.1829
 7279TIP3    H143328   2.174   0.292   1.379 -0.5871 -1.5555  1.1162
 7279TIP3    H243329   2.144   0.198   1.265  0.3255  0.0908 -0.5371
 7280TIP3   OH243330   3.029   1.300   0.242  0.1681 -0.0657 -0.1823
 7280TIP3    H143331   3.083   1.379   0.253  1.5641 -1.0170  0.1168
 7280TIP3    H243332   3.093   1.230   0.226 -0.8518 -1.5544  1.8305
 7281TIP3   OH243333   0.945   0.745  13.499 -0.2980 -0.2655  1.1017
 7281TIP3    H143334   0.900   0.762  13.416 -0.4027  2.8409  1.6693
 7281TIP3    H243335   1.038   0.743  13.475 -0.0495  3.6449  1.1149
 7282TIP3   OH243336   6.835   5.185  15.073 -0.2089 -0.1385 -0.1964
 7282TIP3    H143337   6.835   5.090  15.066 -0.4243 -0.1809  0.3439
 7282TIP3    H243338   6.866   5.215  14.988 -0.9232 -0.6649 -0.6486
 7283TIP3   OH243339   1.489   2.155  14.722  0.1232  0.5145 -0.2446
 7283TIP3    H143340   1.582   2.176  14.713  0.1528  0.2378 -0.5870
 7283TIP3    H243341   1.487   2.088  14.790  0.3100 -0.4447 -1.1606
 7284TIP3   OH243342   1.044   1.551   0.085  0.3415 -0.2786 -0.2695
 7284TIP3    H143343   0.981   1.543   0.013 -0.9024  2.0114  0.4780
 7284TIP3    H243344   1.123   1.585   0.043 -0.5749  1.6422 -0.5239
 7285TIP3   OH243345   0.097   4.830   5.195  0.4498  0.3188  0.0757
 7285TIP3    H143346   0.185   4.813   5.228  1.1143 -0.2039 -1.8419
 7285TIP3    H243347   0.106   4.909   5.143  0.2953 -0.8888 -1.8637
 7286TIP3   OH243348   3.311   5.382  11.448 -0.3181  0.4145 -0.3914
 7286TIP3    H143349   3.311   5.328  11.369 -0.7380 -1.1994  0.6528
 7286TIP3    H243350   3.275   5.466  11.420 -0.3216 -0.0710 -1.9371
 7287TIP3   OH243351   6.475   1.440  14.604  0.4015 -0.5129 -0.4067
 7287TIP3    H143352   6.446   1.365  14.656  2.8931  0.5644  2.9052
 7287TIP3    H243353   6.512   1.402  14.525 -4.6804 -2.1816 -2.3889
 7288TIP3   OH243354   6.292   5.770   3.476 -0.1094  0.1825 -0.2963
 7288TIP3    H143355   6.271   5.856   3.512 -0.6633  0.2828 -0.8403
 7288TIP3    H243356   6.233   5.710   3.521 -1.4395  0.4265 -1.6236
 7289TIP3   OH243357   5.664   2.889   5.613 -0.3009  0.6862 -0.6409
 7289TIP3    H143358   5.720   2.870   5.689  1.2846  1.3831 -1.5912
 7289TIP3    H243359   5.577   2.859   5.640  0.9119 -2.8326 -0.0030
 7290TIP3   OH243360   3.906   3.196   4.801  0.2196  0.1509 -0.4268
 7290TIP3    H143361   3.976   3.134   4.821  0.0921 -1.0722 -3.2845
 7290TIP3    H243362   3.937   3.244   4.724 -1.3199  0.8791 -0.6417
 7291TIP3   OH243363   5.066   6.824  13.037  0.0760  0.8719  0.0613
 7291TIP3    H143364   4.997   6.774  12.994 -0.2532  1.6666 -0.3552
 7291TIP3    H243365   5.046   6.818  13.130  0.5975 -0.5721  0.1085
 7292TIP3   OH243366   2.106   4.134   1.891  0.4041 -0.0813 -0.1761
 7292TIP3    H143367   2.137   4.197   1.826  0.6664 -0.5552 -0.5250
 7292TIP3    H243368   2.055   4.071   1.840 -1.0051  0.5880  0.3635
 7293TIP3   OH243369   4.312   4.742  12.237 -0.0025 -0.1744 -0.2311
 7293TIP3    H143370   4.355   4.791  12.307 -0.9704  0.1724  0.1431
 7293TIP3    H243371   4.265   4.672  12.282 -1.7861  0.8810 -0.3428
 7294TIP3   OH243372   3.014   1.710  14.557  0.3220  0.6559  0.1285
 7294TIP3    H143373   3.022   1.696  14.651  1.3427 -1.5670 -0.2276
 7294TIP3    H243374   3.040   1.801  14.544  0.7395  0.8313  1.9206
 7295TIP3   OH243375   6.235   4.811  12.587  0.0107  0.0137  0.0684
 7295TIP3    H143376   6.199   4.811  12.676 -0.1490 -0.5723  0.0059
 7295TIP3    H243377   6.326   4.784  12.599  0.9728  2.9996  0.4155
 7296TIP3   OH243378   1.509   2.101   4.681  0.0462  0.0781  0.0024
 7296TIP3    H143379   1.570   2.028   4.692  0.6452  0.5409 -0.2150
 7296TIP3    H243380   1.480   2.121   4.770 -1.4347 -1.5060 -0.0574
 7297TIP3   OH243381   6.525   2.258   6.257  0.2344 -0.1511 -0.1537
 7297TIP3    H143382   6.442   2.239   6.301  0.7546  1.4886  1.6882
 7297TIP3    H243383   6.556   2.339   6.298  0.9642  1.3508 -3.3811
 7298TIP3   OH243384   6.635   0.634  12.790  0.1822  0.0756 -0.0668
 7298TIP3    H143385   6.559   0.614  12.734  0.2543 -0.4972  0.0337
 7298TIP3    H243386   6.602   0.622  12.879  0.1883  0.5601  0.0034
 7299TIP3   OH243387   5.224   2.279   4.315 -0.1462 -0.0097  0.2381
 7299TIP3    H143388   5.180   2.261   4.398 -0.8651  1.3101  0.1735
 7299TIP3    H243389   5.317   2.264   4.333 -0.3629 -0.3997  1.0861
 7300TIP3   OH243390   5.463   4.583  13.318 -0.5190 -0.4437  0.1984
 7300TIP3    H143391   5.545   4.568  13.272  0.5384  0.4520  1.6981
 7300TIP3    H243392   5.488   4.629  13.398 -2.5022 -0.0035  0.6315
 7301TIP3   OH243393   0.876   0.586  14.460 -0.2622  0.2162 -0.0907
 7301TIP3    H143394   0.873   0.603  14.366  1.5468 -0.7696 -0.3761
 7301TIP3    H243395   0.893   0.492  14.466  0.6442  0.4443  1.2042
 7302TIP3   OH243396   2.139   5.346   2.227 -0.0403  0.2114  0.3807
 7302TIP3    H143397   2.095   5.377   2.148  1.1581 -0.2896 -0.5164
 7302TIP3    H243398   2.196   5.276   2.197  0.5019  0.0579  1.6905
 7303TIP3   OH243399   3.320   1.451  12.078 -0.1817  0.6849 -0.6882
 7303TIP3    H143400   3.258   1.397  12.028  0.4302 -0.6891 -0.0225
 7303TIP3    H243401   3.355   1.391  12.144 -1.3287  2.5299  1.7584
 7304TIP3   OH243402   1.511   4.241   2.877  0.0472 -0.1726  0.0624
 7304TIP3    H143403   1.481   4.264   2.965 -0.8191  0.7554 -0.4571
 7304TIP3    H243404   1.440   4.188   2.841 -0.4102  0.9507 -0.7124
 7305TIP3   OH243405   4.892   1.383   3.409 -0.0013 -0.6698  0.0165
 7305TIP3    H143406   4.948   1.415   3.339  1.6055 -1.1235  1.0371
 7305TIP3    H243407   4.850   1.304   3.374  0.7520 -0.8677 -0.4422
 7306TIP3   OH243408   2.233   2.499   5.663 -0.3217  0.1644 -0.2766
 7306TIP3    H143409   2.319   2.458   5.654 -0.2176  0.2237  0.3993
 7306TIP3    H243410   2.250   2.593   5.659 -0.7674  0.2153 -3.7339
 7307TIP3   OH243411   2.626   3.199   5.205  0.4541 -0.2211  0.3526
 7307TIP3    H143412   2.679   3.234   5.277  1.0311  1.8605 -1.0145
 7307TIP3    H243413   2.594   3.276   5.159  1.6116 -1.4275 -2.7445
 7308TIP3   OH243414   2.418   6.568   4.749  0.0613  0.2885  0.1981
 7308TIP3    H143415   2.509   6.579   4.775 -0.0790  1.4015  0.2713
 7308TIP3    H243416   2.369   6.573   4.832  0.0675 -2.7464  0.5009
 7309TIP3   OH243417   5.531   2.055   5.938 -0.1590 -0.1518 -0.3154
 7309TIP3    H143418   5.541   2.117   6.011 -1.1074 -1.6620  1.1822
 7309TIP3    H243419   5.594   1.985   5.958 -0.7284 -0.7905 -0.7257
 7310TIP3   OH243420   5.363   6.100  12.057 -0.4096 -0.5969  0.1597
 7310TIP3    H143421   5.272   6.125  12.039 -1.0768 -2.2500  0.9638
 7310TIP3    H243422   5.376   6.019  12.008  1.3910  0.7464 -1.7106
 7311TIP3   OH243423   0.303   0.372   4.169 -0.3061 -0.4638 -0.2900
 7311TIP3    H143424   0.329   0.443   4.110 -0.0863 -0.5233 -0.2635
 7311TIP3    H243425   0.235   0.325   4.121  1.4621 -1.9143 -1.4721
 7312TIP3   OH243426   6.217   5.252  11.427 -0.6372 -0.1867  0.0312
 7312TIP3    H143427   6.284   5.185  11.415 -1.8292 -1.3669 -0.3984
 7312TIP3    H243428   6.229   5.283  11.517 -0.3895 -1.3833  0.4297
 7313TIP3   OH243429   0.704   4.800   0.203 -0.1687  0.1298 -0.3830
 7313TIP3    H143430   0.663   4.716   0.225 -0.3289  0.0007 -1.1537
 7313TIP3    H243431   0.726   4.839   0.288  0.9481 -1.1953 -0.0340
 7314TIP3   OH243432   4.503   1.679   2.334  1.0336  0.3255  0.0372
 7314TIP3    H143433   4.522   1.735   2.409 -0.3834  1.5331 -0.4542
 7314TIP3    H243434   4.410   1.660   2.341  0.3450  2.1902 -2.4490
 7315TIP3   OH243435   4.933   3.950  16.507  0.3415 -0.3075 -0.2368
 7315TIP3    H143436   5.000   3.885  16.485 -0.2234 -0.9428 -0.1403
 7315TIP3    H243437   4.930   4.007  16.430 -0.0578 -1.1828 -0.8986
 7316TIP3   OH243438   5.189   6.341  13.071  0.0078  0.2152  0.8536
 7316TIP3    H143439   5.270   6.290  13.080  0.4795  0.4591 -1.4724
 7316TIP3    H243440   5.212   6.428  13.105  0.5263  0.1136  0.7692
 7317TIP3   OH243441   3.534   0.874   0.573  0.6205  0.2906 -0.0945
 7317TIP3    H143442   3.578   0.957   0.555  0.5552  0.5894  1.0546
 7317TIP3    H243443   3.604   0.815   0.599  0.7922 -0.3135 -1.7813
 7318TIP3   OH243444   4.703   3.991  12.312  0.1577 -0.3557 -0.0935
 7318TIP3    H143445   4.759   4.044  12.370  0.4777 -2.2011  1.3604
 7318TIP3    H243446   4.686   4.048  12.237  1.0093  1.5668  1.0998
 7319TIP3   OH243447   0.764   5.302   1.496  0.4722  0.1977 -0.8464
 7319TIP3    H143448   0.720   5.382   1.524  0.9694 -0.3155  1.6019
 7319TIP3    H243449   0.697   5.234   1.502  0.2557  0.2626 -2.1928
 7320TIP3   OH243450   1.047   2.654   2.520 -0.0148 -0.7801  0.6962
 7320TIP3    H143451   0.986   2.727   2.513 -0.0503 -0.7800  0.9980
 7320TIP3    H243452   1.024   2.611   2.602  1.6280  0.3639  1.8175
 7321TIP3   OH243453   6.503   0.183   5.822  0.2453  0.0705  0.1328
 7321TIP3    H143454   6.481   0.209   5.911  0.1835 -0.3675  0.2488
 7321TIP3    H243455   6.425   0.138   5.790 -0.4027  1.7573 -0.7717
 7322TIP3   OH243456   6.562   1.403   3.787 -0.3381 -0.6981  0.5509
 7322TIP3    H143457   6.546   1.312   3.763 -0.9514 -0.2418 -0.8729
 7322TIP3    H243458   6.480   1.433   3.825  0.1318 -0.9555  1.8324
 7323TIP3   OH243459   2.398   2.200   4.465  0.4345  0.2114  0.5185
 7323TIP3    H143460   2.382   2.228   4.555 -2.4161 -1.7957  0.7521
 7323TIP3    H243461   2.336   2.129   4.450  0.2111  1.0087 -3.3386
 7324TIP3   OH243462   4.729   3.872  13.550 -0.2073  0.4782 -0.3317
 7324TIP3    H143463   4.785   3.950  13.542 -0.6151  1.0609  1.7912
 7324TIP3    H243464   4.790   3.798  13.551  0.5147  1.0484  1.0913
 7325TIP3   OH243465   0.767   4.637  15.480 -0.2009  0.9347 -0.6771
 7325TIP3    H143466   0.856   4.607  15.493 -0.7872 -0.5396  0.1419
 7325TIP3    H243467   0.746   4.687  15.558 -0.5140  0.1707 -0.2614
 7326TIP3   OH243468   1.364   1.768   1.403  0.1936  1.0597  0.3696
 7326TIP3    H143469   1.296   1.717   1.360 -0.0411  1.9773 -0.3880
 7326TIP3    H243470   1.331   1.783   1.492 -1.5902  3.2512 -0.5864
 7327TIP3   OH243471   1.600   3.646  12.182  0.4779 -0.5764 -0.3319
 7327TIP3    H143472   1.654   3.661  12.104  1.4440 -1.5471  0.1161
 7327TIP3    H243473   1.511   3.666  12.154  1.0286  0.9330 -1.1446
 7328TIP3   OH243474   6.000   5.647  14.112  0.3380 -0.3858 -0.3498
 7328TIP3    H143475   5.975   5.558  14.088  2.1456 -0.6597 -1.3997
 7328TIP3    H243476   5.977   5.654  14.204  1.9064 -2.6361  0.3026
 7329TIP3   OH243477   2.889   4.163   2.634 -0.0813 -0.9173  0.4621
 7329TIP3    H143478   2.870   4.178   2.542 -1.3303  1.6879  1.0467
 7329TIP3    H243479   2.802   4.160   2.676  0.4682 -1.7984  1.6128
 7330TIP3   OH243480   6.004   5.920  14.846 -0.2261  0.4172  0.1817
 7330TIP3    H143481   5.958   5.838  14.865  1.0434 -0.2303  0.6341
 7330TIP3    H243482   6.087   5.912  14.894  0.8553  1.0095 -1.4911
 7331TIP3   OH243483   5.203   0.837   4.124 -0.4573  0.1477 -0.4983
 7331TIP3    H143484   5.153   0.811   4.201 -0.7450 -0.1247 -0.7713
 7331TIP3    H243485   5.258   0.761   4.105  1.9321  1.3041  1.2584
 7332TIP3   OH243486   2.112   0.048   5.099  0.6380 -0.4179  0.3150
 7332TIP3    H143487   2.029   0.089   5.076  1.4495  1.7175  0.9589
 7332TIP3    H243488   2.096  -0.046   5.091 -1.2040  0.0031 -1.6519
 7333TIP3   OH243489   5.700   5.152   1.004  0.1801  0.4894  0.3636
 7333TIP3    H143490   5.694   5.088   1.075  2.1992 -0.5680 -0.3282
 7333TIP3    H243491   5.730   5.101   0.929 -0.9155  1.7657 -1.0180
 7334TIP3   OH243492   4.146   0.375  17.116  0.3268  0.0585  0.2655
 7334TIP3    H143493   4.131   0.381  17.021  1.6224 -2.3772 -0.1594
 7334TIP3    H243494   4.059   0.364  17.153 -0.0112 -1.8544 -0.9680
 7335TIP3   OH243495   1.975   1.590  15.682 -0.3464 -0.3419 -0.2291
 7335TIP3    H143496   1.907   1.523  15.679  0.7436 -1.5157  0.2497
 7335TIP3    H243497   2.045   1.555  15.627  1.0005 -0.5110  1.5098
 7336TIP3   OH243498   3.366   0.018  11.563 -0.4466 -0.1185  0.0015
 7336TIP3    H143499   3.396   0.108  11.577  0.2002 -0.4241  0.6921
 7336TIP3    H243500   3.319  -0.004  11.644  1.7943 -1.3172  1.0662
 7337TIP3   OH243501   0.767   1.402   6.575  0.1774  0.0221  0.0094
 7337TIP3    H143502   0.756   1.481   6.521 -0.5584  1.4670  2.1422
 7337TIP3    H243503   0.825   1.430   6.645 -0.9421 -1.0081  1.3924
 7338TIP3   OH243504   6.195   1.679   4.068 -0.0080  0.6899 -0.0860
 7338TIP3    H143505   6.267   1.742   4.067  0.6969 -0.0802 -0.4669
 7338TIP3    H243506   6.159   1.684   4.156 -0.6906  2.3956 -0.4415
 7339TIP3   OH243507   0.578   2.247  13.076 -0.3527  0.8435  0.4576
 7339TIP3    H143508   0.590   2.164  13.029 -1.6749  0.9886 -0.1851
 7339TIP3    H243509   0.486   2.269  13.061 -0.3766  1.7209  1.7966
 7340TIP3   OH243510   6.719   1.706  14.848  0.0468 -0.2743 -0.1323
 7340TIP3    H143511   6.797   1.664  14.812 -0.8321  0.5143 -3.2904
 7340TIP3    H243512   6.655   1.636  14.855  0.1107 -0.3804 -0.5555
 7341TIP3   OH243513   2.120   5.036  11.585  0.2423 -0.5072  0.1419
 7341TIP3    H143514   2.025   5.025  11.595  0.0648  0.4972 -0.2600
 7341TIP3    H243515   2.129   5.108  11.522  1.2777 -1.2844 -0.6381
 7342TIP3   OH243516   1.039   4.775  14.501 -0.2582 -0.2138  0.1059
 7342TIP3    H143517   1.108   4.747  14.441  0.0016  0.1546  0.2349
 7342TIP3    H243518   0.958   4.745  14.459 -0.0061 -0.9376  0.1143
 7343TIP3   OH243519   6.508   3.896   0.447 -0.1031  0.3937  0.0940
 7343TIP3    H143520   6.472   3.810   0.463  0.5648 -0.0850 -0.8319
 7343TIP3    H243521   6.487   3.947   0.525 -0.5219 -0.5986  0.6394
 7344TIP3   OH243522   6.366   2.099   3.986  0.3751  0.3692 -0.3873
 7344TIP3    H143523   6.415   2.112   4.067 -0.3584  0.6717  0.0212
 7344TIP3    H243524   6.331   2.185   3.965 -3.0449 -0.4116  1.3666
 7345TIP3   OH243525   2.466   4.081   3.184  0.4745 -0.0355  0.1952
 7345TIP3    H143526   2.422   4.141   3.243  0.3259 -1.2711  1.3797
 7345TIP3    H243527   2.397   4.047   3.127  0.0142 -1.1829  1.3742
 7346TIP3   OH243528   6.584   3.695   5.192  0.3565 -0.2734 -0.3997
 7346TIP3    H143529   6.636   3.759   5.241  1.1448 -0.7948 -0.5292
 7346TIP3    H243530   6.645   3.624   5.174 -0.4531 -0.9692 -0.4481
 7347TIP3   OH243531   6.242   0.719  14.115 -0.1354  0.5862 -0.6190
 7347TIP3    H143532   6.306   0.776  14.158 -0.1343 -0.2151  0.4861
 7347TIP3    H243533   6.293   0.670  14.050  0.6632 -0.8631  1.0073
 7348TIP3   OH243534   3.030   5.402  12.160 -0.0795 -0.5309 -0.5643
 7348TIP3    H143535   3.045   5.481  12.109 -0.0040 -0.4432 -0.4064
 7348TIP3    H243536   2.970   5.350  12.106 -1.2952  0.2708 -0.0304
 7349TIP3   OH243537   4.167   2.631   4.605  0.0467 -0.2437  0.1533
 7349TIP3    H143538   4.140   2.539   4.603  2.6181 -1.0605  0.2847
 7349TIP3    H243539   4.217   2.643   4.524  0.9536  0.6386  0.8263
 7350TIP3   OH243540   0.340   5.074   4.263  0.2771 -0.1561  0.2792
 7350TIP3    H143541   0.371   4.996   4.216  0.4736 -0.4699  0.9085
 7350TIP3    H243542   0.275   5.040   4.325 -0.6662  0.3827 -0.4101
 7351TIP3   OH243543   2.012   4.395   0.577  0.1846  0.3707 -0.3369
 7351TIP3    H143544   2.041   4.483   0.600  1.0160 -0.1326  0.6463
 7351TIP3    H243545   2.066   4.337   0.632 -1.9096 -0.6732  0.7348
 7352TIP3   OH243546   5.588   3.617  15.750  0.2052 -0.0704  0.0419
 7352TIP3    H143547   5.603   3.660  15.665  1.7535 -0.9434 -0.1602
 7352TIP3    H243548   5.510   3.660  15.785 -0.8552 -0.1213 -2.1105
 7353TIP3   OH243549   6.445   2.671  16.802 -0.0605  0.0901 -0.1367
 7353TIP3    H143550   6.396   2.727  16.863  0.3839 -0.2753  0.5724
 7353TIP3    H243551   6.536   2.679  16.830 -0.1075 -1.8990  0.7536
 7354TIP3   OH243552   2.083   1.510  16.252  0.3116  0.7207  0.1878
 7354TIP3    H143553   1.988   1.517  16.242  0.3074 -0.1799 -0.5130
 7354TIP3    H243554   2.118   1.559  16.177  0.3586 -0.5303 -0.6396
 7355TIP3   OH243555   1.763   4.396   5.503  0.0137  0.2078 -0.4951
 7355TIP3    H143556   1.729   4.326   5.559  1.8309 -1.1024 -0.9418
 7355TIP3    H243557   1.785   4.353   5.421 -1.3174  1.8421 -1.8040
 7356TIP3   OH243558   0.328   3.828   4.277 -0.0984 -0.2972 -0.0969
 7356TIP3    H143559   0.408   3.833   4.330  0.4105  1.3728 -0.9315
 7356TIP3    H243560   0.267   3.887   4.322  0.0729  0.5087 -0.8826
 7357TIP3   OH243561   2.147   6.148  15.135  0.2913 -0.9209 -0.6783
 7357TIP3    H143562   2.065   6.106  15.162 -0.9887  0.6867 -1.8773
 7357TIP3    H243563   2.182   6.185  15.216 -0.4793 -1.1173 -0.2382
 7358TIP3   OH243564   0.067   0.542  14.476  0.2993  0.1634  0.2922
 7358TIP3    H143565   0.017   0.596  14.414  0.6965  0.1445 -0.0485
 7358TIP3    H243566   0.008   0.532  14.551 -1.3263 -2.1094 -1.1631
 7359TIP3   OH243567   0.031   2.911  13.488  0.0670 -0.2955 -0.0207
 7359TIP3    H143568  -0.040   2.942  13.543  0.3595  1.8653 -0.7613
 7359TIP3    H243569   0.006   2.937  13.400  2.3035  1.7316 -0.1540
 7360TIP3   OH243570   0.340   5.043  13.466  0.3533 -0.5961  0.0546
 7360TIP3    H143571   0.380   5.093  13.395  2.1278 -0.6817  0.9240
 7360TIP3    H243572   0.328   4.955  13.430  3.6598 -1.3841  0.5122
 7361TIP3   OH243573   4.522   5.776   0.862  0.1055  0.0153 -0.0963
 7361TIP3    H143574   4.616   5.794   0.856  0.0182  0.7268  0.5942
 7361TIP3    H243575   4.481   5.854   0.824 -0.2076 -0.3638 -0.5409
 7362TIP3   OH243576   4.390   4.674  13.977  0.1370  0.5994 -0.6380
 7362TIP3    H143577   4.375   4.582  13.953  0.3694  0.8428 -1.7741
 7362TIP3    H243578   4.337   4.724  13.915 -0.0643  1.2402  0.0358
 7363TIP3   OH243579   2.262   6.628   3.283 -0.6543 -0.2138  0.1641
 7363TIP3    H143580   2.188   6.568   3.275  0.7845 -2.2317  1.0451
 7363TIP3    H243581   2.260   6.655   3.375 -1.2697  1.1239 -0.2191
 7364TIP3   OH243582   1.494   3.434   0.356 -0.5239  0.3961  0.2513
 7364TIP3    H143583   1.569   3.412   0.411 -0.4823 -1.0336 -0.3168
 7364TIP3    H243584   1.532   3.454   0.270 -0.6818  1.3390  0.3905
 7365TIP3   OH243585   4.761   5.600   0.127 -0.2019 -0.7509 -0.1648
 7365TIP3    H143586   4.762   5.669   0.194 -0.6410  0.2935 -1.1856
 7365TIP3    H243587   4.848   5.561   0.130 -0.0423 -0.3417  0.6342
 7366TIP3   OH243588   0.267   2.777  13.876 -0.3812 -0.4878 -0.3159
 7366TIP3    H143589   0.345   2.764  13.822 -1.0224  0.4991 -1.5070
 7366TIP3    H243590   0.238   2.689  13.898 -0.7825 -0.9781 -2.5776
 7367TIP3   OH243591   3.179   2.600   1.138  0.0640 -0.3420  0.3200
 7367TIP3    H143592   3.135   2.685   1.135 -1.0946 -0.9109  0.7826
 7367TIP3    H243593   3.249   2.608   1.073 -1.8749 -0.0354 -1.8761
 7368TIP3   OH243594   3.853   6.346  14.542 -0.9889 -0.1238 -0.0400
 7368TIP3    H143595   3.918   6.349  14.472 -0.6093  0.5624  0.3332
 7368TIP3    H243596   3.788   6.283  14.511 -0.2945 -0.6070 -0.5410
 7369TIP3   OH243597   0.642   4.588  12.397 -0.2846 -0.1357 -0.1344
 7369TIP3    H143598   0.567   4.530  12.413 -0.0560 -0.4263 -0.1151
 7369TIP3    H243599   0.709   4.559  12.458 -0.5830  0.9400  0.7240
 7370TIP3   OH243600   2.890   5.960   0.665  0.7655  0.2590 -0.3076
 7370TIP3    H143601   2.877   6.052   0.684  0.7832  0.4732 -1.2878
 7370TIP3    H243602   2.963   5.958   0.603  0.9559 -0.4360 -0.0757
 7371TIP3   OH243603   4.768   1.519  15.076  0.3457 -0.2043  0.2389
 7371TIP3    H143604   4.717   1.520  14.995  0.3861  1.0452  0.2048
 7371TIP3    H243605   4.726   1.453  15.130  1.7060 -2.7834 -1.6461
 7372TIP3   OH243606   0.210   4.458   5.022  0.1558 -0.7232 -0.3314
 7372TIP3    H143607   0.126   4.484   4.984 -0.7609 -3.1586 -0.1081
 7372TIP3    H243608   0.189   4.432   5.112  0.9498 -2.2985 -0.5759
 7373TIP3   OH243609   2.916   5.726   0.976 -0.7670  0.2971 -0.0084
 7373TIP3    H143610   2.885   5.647   0.931 -0.6524  0.1548  0.1599
 7373TIP3    H243611   2.986   5.760   0.921 -1.9666  1.2686 -0.9993
 7374TIP3   OH243612   5.520   0.999  10.593 -0.1217 -0.1744  0.1932
 7374TIP3    H143613   5.539   1.037  10.679  1.3747 -0.7055  0.1279
 7374TIP3    H243614   5.453   1.056  10.556  0.7316  1.3101  0.8433
 7375TIP3   OH243615   1.137   1.997  15.994 -0.0926  0.0954 -0.1092
 7375TIP3    H143616   1.085   1.922  15.965  0.7637 -0.2472 -0.8081
 7375TIP3    H243617   1.223   1.983  15.956 -0.1244  1.8460 -0.9537
 7376TIP3   OH243618   1.371   5.450  11.188  0.5811  0.1213 -0.1754
 7376TIP3    H143619   1.321   5.384  11.235  0.0052  0.3771 -0.4118
 7376TIP3    H243620   1.363   5.426  11.096 -0.0500  0.7806 -0.3068
 7377TIP3   OH243621   3.521   6.534  10.806  0.0801  0.1816  0.0925
 7377TIP3    H143622   3.581   6.605  10.783 -0.3604 -0.1560 -2.3918
 7377TIP3    H243623   3.551   6.459  10.753 -0.9075 -0.7689  0.8330
 7378TIP3   OH243624   1.195   6.326  14.309  0.1227 -0.1188  0.0004
 7378TIP3    H143625   1.276   6.345  14.261  0.0674 -1.5822 -0.7034
 7378TIP3    H243626   1.225   6.310  14.399  0.2597  2.2671  0.4520
 7379TIP3   OH243627   6.706   5.534   6.477  0.2029  0.1286  0.1868
 7379TIP3    H143628   6.610   5.535   6.472  0.1635 -0.7356  0.5523
 7379TIP3    H243629   6.734   5.586   6.403 -0.5643  1.3290  0.7032
 7380TIP3   OH243630   0.413   3.093  15.627 -0.7933 -0.4748 -0.1792
 7380TIP3    H143631   0.378   3.079  15.538 -0.9327  1.7514 -0.5193
 7380TIP3    H243632   0.372   3.174  15.656  1.6842  0.5532  0.6673
 7381TIP3   OH243633   3.023   5.721  10.354  0.1310  0.4107 -0.1777
 7381TIP3    H143634   3.116   5.700  10.365  1.5516  4.3440 -2.6065
 7381TIP3    H243635   2.990   5.653  10.296  1.8184 -0.3902 -0.2751
 7382TIP3   OH243636   6.272   1.300   3.280 -0.0573  0.1749 -0.2597
 7382TIP3    H143637   6.236   1.381   3.245 -0.0960  0.4476  0.4035
 7382TIP3    H243638   6.342   1.328   3.339 -2.2209 -0.0670  2.6183
 7383TIP3   OH243639   4.783   6.305   2.258  0.5153 -0.5385 -0.1481
 7383TIP3    H143640   4.876   6.322   2.241  0.1062  1.1790 -0.9096
 7383TIP3    H243641   4.745   6.392   2.268 -0.9190 -1.2429  0.7112
 7384TIP3   OH243642   1.322   5.874  15.827 -0.6559 -0.2024  0.4277
 7384TIP3    H143643   1.276   5.791  15.819  1.4456 -1.3491 -0.4760
 7384TIP3    H243644   1.398   5.865  15.770 -1.0065  2.8367 -0.7044
 7385TIP3   OH243645   4.739   3.130   3.549 -0.3452 -1.0408 -0.8922
 7385TIP3    H143646   4.823   3.143   3.594 -0.9755 -0.9068  0.3019
 7385TIP3    H243647   4.706   3.218   3.533 -0.9220 -1.0880 -0.0302
 7386TIP3   OH243648   0.023   2.092  12.863  0.1848 -0.1582  0.1099
 7386TIP3    H143649   0.018   2.188  12.869 -0.5644 -0.2026  0.3424
 7386TIP3    H243650   0.002   2.062  12.952 -4.4772 -0.6655 -0.9419
 7387TIP3   OH243651   0.151   4.822   0.852 -0.2336 -0.7412  0.1980
 7387TIP3    H143652   0.194   4.751   0.900 -1.5783 -0.3378  2.0938
 7387TIP3    H243653   0.090   4.777   0.793 -0.1792 -1.2128  0.4946
 7388TIP3   OH243654   0.268   3.646  12.064  0.2830 -0.0865 -0.7642
 7388TIP3    H143655   0.178   3.661  12.095  1.3800  0.0972  2.6836
 7388TIP3    H243656   0.295   3.565  12.106  2.1190  0.4914 -0.7439
 7389TIP3   OH243657   1.682   3.350  15.011 -0.1802  0.3255  0.2652
 7389TIP3    H143658   1.762   3.400  14.998  0.6783 -0.7689  1.1369
 7389TIP3    H243659   1.646   3.340  14.923  0.4023  1.2127 -0.0856
 7390TIP3   OH243660   6.063   2.080  15.225  0.3459 -0.5001  0.8076
 7390TIP3    H143661   6.071   2.066  15.131 -0.1504 -0.0988  0.6970
 7390TIP3    H243662   6.152   2.095  15.256  0.4465 -0.0048  0.2928
 7391TIP3   OH243663   2.374   1.122  13.709  0.7957 -0.2481  0.2014
 7391TIP3    H143664   2.324   1.137  13.629  0.5590  1.6154  0.6352
 7391TIP3    H243665   2.465   1.118  13.681  0.5526 -2.5892 -0.4684
 7392TIP3   OH243666   3.508   5.514   1.085  0.0969 -0.2031  0.0565
 7392TIP3    H143667   3.536   5.604   1.100 -0.9618  0.7018 -2.7863
 7392TIP3    H243668   3.589   5.465   1.074  0.6926  0.3089  1.8505
 7393TIP3   OH243669   5.812   1.626   2.580 -0.0149  0.3799  0.3262
 7393TIP3    H143670   5.742   1.682   2.546 -0.6505 -0.0247  0.9519
 7393TIP3    H243671   5.877   1.688   2.614 -1.0584  0.7554  1.7095
 7394TIP3   OH243672   6.158   4.503  11.556 -0.5420  0.0795 -0.3957
 7394TIP3    H143673   6.107   4.486  11.634  1.4823  0.5674  1.1175
 7394TIP3    H243674   6.238   4.450  11.567 -0.5108 -0.4415 -2.5123
 7395TIP3   OH243675   0.112   5.735  11.977 -0.1452 -0.2616 -0.3034
 7395TIP3    H143676   0.082   5.645  11.990  0.1800 -0.2301  0.7785
 7395TIP3    H243677   0.204   5.726  11.955  0.5242 -0.1329  2.1541
 7396TIP3   OH243678   6.849   0.996  14.616  0.2851  0.6108  0.2112
 7396TIP3    H143679   6.908   0.940  14.666  0.6260  0.5406 -0.2635
 7396TIP3    H243680   6.761   0.967  14.640  0.4469 -0.9601 -0.9272
 7397TIP3   OH243681   3.158   5.360   0.769  0.8501 -1.0439 -0.4553
 7397TIP3    H143682   3.138   5.291   0.832 -0.8745 -2.1616 -2.1238
 7397TIP3    H243683   3.248   5.343   0.743  2.2977  0.5316  2.9119
 7398TIP3   OH243684   4.979   1.579  16.255  0.4960  0.1356 -0.0145
 7398TIP3    H143685   5.040   1.650  16.277 -0.0646  0.4335  0.6042
 7398TIP3    H243686   4.900   1.623  16.224 -1.6483  0.1203  4.5870
 7399TIP3   OH243687   3.310   3.833  12.805  0.2108  0.1401  0.6617
 7399TIP3    H143688   3.268   3.748  12.815  0.1953 -0.0051 -0.5332
 7399TIP3    H243689   3.388   3.816  12.753 -0.7149  1.0924 -1.1187
 7400TIP3   OH243690   2.403   6.569  13.470  0.1875 -0.1003  0.4028
 7400TIP3    H143691   2.337   6.603  13.531  1.8678  2.0960  1.1505
 7400TIP3    H243692   2.485   6.573  13.520  1.0906 -1.7140 -0.8517
 7401TIP3   OH243693   1.181   2.643  12.531  0.2775  0.8062 -0.2403
 7401TIP3    H143694   1.146   2.712  12.474  1.9559  0.9085 -1.2212
 7401TIP3    H243695   1.222   2.581  12.470 -0.1786 -0.4580  0.7101
 7402TIP3   OH243696   0.582   6.327   0.779  0.0124  0.4252  0.5803
 7402TIP3    H143697   0.494   6.344   0.813  1.0156  0.7906  3.2062
 7402TIP3    H243698   0.591   6.388   0.705 -2.1974 -0.2189 -0.3014
 7403TIP3   OH243699   5.903   4.727   2.165 -0.3326 -0.2492 -0.0962
 7403TIP3    H143700   5.833   4.778   2.125  0.3918 -0.4657 -1.7305
 7403TIP3    H243701   5.920   4.770   2.249 -0.1781  1.8228 -1.1302
 7404TIP3   OH243702   3.682   4.314  14.209 -0.3013  0.7008 -0.2007
 7404TIP3    H143703   3.648   4.402  14.221 -0.2003  0.8146 -0.7296
 7404TIP3    H243704   3.760   4.325  14.156 -0.4446  0.2669 -0.5099
 7405TIP3   OH243705   0.926   6.542  15.685 -0.2962 -0.0981  0.5148
 7405TIP3    H143706   0.865   6.584  15.624 -0.6954  0.5181  1.3108
 7405TIP3    H243707   0.936   6.453  15.651 -1.3492 -0.0996  0.1519
 7406TIP3   OH243708   3.284   1.511   5.408  0.1759 -0.4436  0.3880
 7406TIP3    H143709   3.242   1.462   5.337  1.3812  1.1715 -1.5521
 7406TIP3    H243710   3.229   1.494   5.484 -1.1847 -2.2785 -0.8997
 7407TIP3   OH243711   6.245   6.093   0.720  0.8736 -0.2691  0.0077
 7407TIP3    H143712   6.282   6.174   0.685 -0.5556  0.6499  0.5376
 7407TIP3    H243713   6.319   6.033   0.725  2.2901  1.4772  1.0145
 7408TIP3   OH243714   2.744   4.739  16.579  0.3914  0.7105  0.6192
 7408TIP3    H143715   2.691   4.678  16.631 -0.1532 -1.0338 -1.8491
 7408TIP3    H243716   2.680   4.800  16.541  0.5045  0.4563  0.0227
 7409TIP3   OH243717   0.840   2.478  11.111 -0.4768  0.6858  0.0046
 7409TIP3    H143718   0.864   2.462  11.202  0.1908 -1.5815 -0.5231
 7409TIP3    H243719   0.922   2.469  11.062 -1.2797 -0.9987 -1.1147
 7410TIP3   OH243720   0.593   4.385   6.582 -0.1377 -0.6291  0.1966
 7410TIP3    H143721   0.559   4.303   6.616 -1.1954 -0.8434 -1.2841
 7410TIP3    H243722   0.604   4.370   6.488 -0.6166  0.9940 -0.1535
 7411TIP3   OH243723   1.524   2.618  14.952  0.6534  0.1081  0.9081
 7411TIP3    H143724   1.541   2.535  14.908 -0.1191 -0.2519  1.2667
 7411TIP3    H243725   1.602   2.633  15.006  1.2498  0.1526  0.0568
 7412TIP3   OH243726   0.363   6.507   2.830  0.1521  0.0682 -0.6853
 7412TIP3    H143727   0.442   6.453   2.836 -0.6790 -1.0681  0.7865
 7412TIP3    H243728   0.395   6.597   2.833  1.3738 -0.3712  0.5440
 7413TIP3   OH243729   0.758   1.477   0.799 -0.7096  0.7177 -0.0756
 7413TIP3    H143730   0.706   1.557   0.802  1.5126  2.2186  0.9600
 7413TIP3    H243731   0.835   1.496   0.852  0.6710 -1.5627 -1.1060
 7414TIP3   OH243732   6.168   3.603   5.091  0.1009 -0.4096  0.1586
 7414TIP3    H143733   6.174   3.690   5.131 -2.8659 -0.1641  0.2437
 7414TIP3    H243734   6.083   3.603   5.046 -0.9654 -3.9367  1.8705
 7415TIP3   OH243735   0.475   6.322   4.557 -0.2574  0.1775 -0.1640
 7415TIP3    H143736   0.427   6.348   4.636  0.7357 -0.2074  0.5837
 7415TIP3    H243737   0.554   6.279   4.589  0.6878  0.9430 -1.3564
 7416TIP3   OH243738   0.390   5.265  16.469  0.2054 -0.2937  0.3098
 7416TIP3    H143739   0.319   5.236  16.412 -2.0748 -0.8474  3.1870
 7416TIP3    H243740   0.432   5.185  16.498  0.2759 -0.1227  0.6796
 7417TIP3   OH243741   6.729   0.198  10.589  0.2647  0.1536 -0.0563
 7417TIP3    H143742   6.773   0.238  10.514  1.0474 -0.5975 -0.0238
 7417TIP3    H243743   6.657   0.256  10.609 -0.0441  0.2999 -1.4854
 7418TIP3   OH243744   3.378   6.044  13.983 -0.1371 -0.1580 -0.1380
 7418TIP3    H143745   3.408   5.955  13.968  0.0887  0.1876 -2.0710
 7418TIP3    H243746   3.444   6.099  13.941 -1.8302  0.7415 -1.8037
 7419TIP3   OH243747   0.683   2.115   0.648  0.0747 -0.2050  0.2000
 7419TIP3    H143748   0.689   2.211   0.654  0.6858 -0.1714 -0.7317
 7419TIP3    H243749   0.599   2.100   0.604 -0.3805 -0.1402  1.0195
 7420TIP3   OH243750   1.000   3.024  16.735 -0.2607 -0.0570  0.5940
 7420TIP3    H143751   0.938   2.951  16.733 -0.0739 -0.2083  0.1411
 7420TIP3    H243752   0.956   3.094  16.686  0.3529 -0.5251 -0.6830
 7421TIP3   OH243753   0.338   1.563   0.062 -0.1007 -0.6548 -0.4625
 7421TIP3    H143754   0.413   1.524   0.018  1.5589  0.6850  1.0452
 7421TIP3    H243755   0.355   1.549   0.155 -1.3708  0.2883 -0.0641
 7422TIP3   OH243756   3.321   6.040  16.425  0.6176  0.1283 -0.3448
 7422TIP3    H143757   3.276   6.076  16.501  2.2745 -0.4004  0.9487
 7422TIP3    H243758   3.294   6.096  16.352 -1.7332  0.0852  0.4136
 7423TIP3   OH243759   4.323   2.121  12.830 -0.4902 -0.1238  0.1459
 7423TIP3    H143760   4.365   2.122  12.744 -1.6681 -1.2731 -0.4707
 7423TIP3    H243761   4.235   2.087  12.814 -1.4039  1.4043  1.5240
 7424TIP3   OH243762   6.765   3.742  10.883 -0.1632 -0.6558  0.3331
 7424TIP3    H143763   6.838   3.738  10.821 -0.2655 -0.4199  0.1949
 7424TIP3    H243764   6.691   3.704  10.836 -0.2009 -0.6251  0.3670
 7425TIP3   OH243765   6.721   0.334  12.135  0.0123  0.0861 -0.3283
 7425TIP3    H143766   6.765   0.326  12.219 -0.7229  0.1465  0.0667
 7425TIP3    H243767   6.632   0.362  12.156 -0.2656 -0.1704 -1.1059
 7426TIP3   OH243768   0.396   2.302   4.596 -0.0580 -0.3794 -0.8868
 7426TIP3    H143769   0.366   2.269   4.680 -2.1856  1.1719 -0.9590
 7426TIP3    H243770   0.369   2.235   4.533  0.8678 -1.1859 -0.4458
 7427TIP3   OH243771   3.134   6.812   0.646  0.7691  0.0584 -0.3224
 7427TIP3    H143772   3.195   6.866   0.597 -0.0489  0.3026 -1.1048
 7427TIP3    H243773   3.141   6.843   0.736  0.0540  1.7455 -0.8153
 7428TIP3   OH243774   4.733   2.542   5.841  0.0301 -0.0327  0.0762
 7428TIP3    H143775   4.683   2.595   5.903  0.6329  0.0664  0.4939
 7428TIP3    H243776   4.681   2.541   5.761 -0.7171 -0.0741  0.5532
 7429TIP3   OH243777   3.507   4.319  16.782  0.3617 -0.5470 -0.0011
 7429TIP3    H143778   3.560   4.390  16.747 -0.5345 -0.1071 -0.4946
 7429TIP3    H243779   3.527   4.319  16.876  1.5950 -0.7181 -0.2450
 7430TIP3   OH243780   2.594   5.438  12.351 -0.5099 -0.1822 -0.7296
 7430TIP3    H143781   2.598   5.520  12.302  0.3890 -0.3161 -0.9011
 7430TIP3    H243782   2.656   5.450  12.424  2.5791 -1.9975 -2.8133
 7431TIP3   OH243783   0.384   0.819  16.310 -0.2769 -0.5397  0.3032
 7431TIP3    H143784   0.468   0.819  16.357  0.6453 -0.5373 -1.2814
 7431TIP3    H243785   0.357   0.911  16.308 -0.3778 -0.5498  0.8824
 7432TIP3   OH243786   0.286   2.162  12.452  0.5969  0.5014  0.5621
 7432TIP3    H143787   0.353   2.230  12.444  0.8281  0.6340  2.8103
 7432TIP3    H243788   0.231   2.173  12.375  0.7600  3.1120  0.7462
 7433TIP3   OH243789   5.399   4.537  16.957  0.1896  0.6076 -0.3075
 7433TIP3    H143790   5.450   4.457  16.975  0.5861  0.4168 -2.0850
 7433TIP3    H243791   5.465   4.606  16.951 -0.1248  1.0303  0.8933
 7434TIP3   OH243792   4.514   4.818   2.969  0.0184  0.2821  0.2456
 7434TIP3    H143793   4.594   4.871   2.964  0.1794 -0.0105 -0.3335
 7434TIP3    H243794   4.544   4.728   2.969 -0.2446  0.1751  1.5182
 7435TIP3   OH243795   1.664   3.804  14.244 -0.1898  0.2011  0.4553
 7435TIP3    H143796   1.633   3.833  14.159 -0.2454  0.6263  0.6187
 7435TIP3    H243797   1.741   3.859  14.262 -0.2168  0.1586  0.7064
 7436TIP3   OH243798   1.863   2.148  11.766  0.7595  0.4831  0.3460
 7436TIP3    H143799   1.921   2.185  11.832  0.2147 -0.2040  1.2231
 7436TIP3    H243800   1.794   2.104  11.815  0.2054  0.1653 -0.6761
 7437TIP3   OH243801   0.671   3.927   4.683  0.5471 -0.2538  0.2099
 7437TIP3    H143802   0.595   3.956   4.734  0.3025  0.7342 -0.6800
 7437TIP3    H243803   0.746   3.963   4.730  0.2950  1.1229 -0.3869
 7438TIP3   OH243804   2.140   4.950   3.903 -0.1800 -0.0381 -0.0914
 7438TIP3    H143805   2.183   4.881   3.955  0.8126  0.9152  0.3873
 7438TIP3    H243806   2.189   5.030   3.925 -2.9624  1.3843  1.4282
 7439TIP3   OH243807   5.589   4.713  16.935  0.1201 -0.0083 -0.7248
 7439TIP3    H143808   5.644   4.743  17.008 -0.0052  0.2644 -0.7450
 7439TIP3    H243809   5.640   4.733  16.857 -0.3571  0.9780 -0.7864
 7440TIP3   OH243810   3.946   4.389   6.065  0.1734 -0.3248  0.2052
 7440TIP3    H143811   3.959   4.302   6.102 -1.1604 -0.8913 -0.5623
 7440TIP3    H243812   3.853   4.407   6.080  0.7349  1.6335  1.6835
 7441TIP3   OH243813   2.596   6.720   1.101 -0.3703 -0.0517 -0.1177
 7441TIP3    H143814   2.520   6.775   1.084 -0.2473 -0.1872 -1.1490
 7441TIP3    H243815   2.670   6.780   1.102 -0.5369  0.2043  1.6895
 7442TIP3   OH243816   5.382   6.553  11.721 -0.3653 -0.0455 -0.4891
 7442TIP3    H143817   5.345   6.577  11.636 -2.0618  0.3300  0.3093
 7442TIP3    H243818   5.456   6.497  11.700 -0.3335  0.5866 -2.2288
 7443TIP3   OH243819   1.261   0.237  11.897 -0.0569  0.3647  0.2291
 7443TIP3    H143820   1.351   0.272  11.894  0.2511 -0.3819  0.4624
 7443TIP3    H243821   1.210   0.307  11.937  0.9687 -0.2178  2.8117
 7444TIP3   OH243822   2.185   5.273   0.392 -0.7085 -0.0043 -0.3119
 7444TIP3    H143823   2.269   5.281   0.348  0.2539 -1.6138  1.1077
 7444TIP3    H243824   2.196   5.200   0.452 -3.3603 -0.7635 -0.5985
 7445TIP3   OH243825   0.514   2.005   5.761 -0.0086 -0.1915 -0.2167
 7445TIP3    H143826   0.497   2.010   5.855 -1.9870  1.4648 -0.5800
 7445TIP3    H243827   0.471   1.925   5.732  0.4433 -0.6061  0.2512
 7446TIP3   OH243828   5.187   1.976  17.064  0.2384 -0.3537  0.0613
 7446TIP3    H143829   5.251   1.905  17.067  0.0120 -0.5667 -0.1446
 7446TIP3    H243830   5.109   1.937  17.024  0.3482  0.2018 -0.7026
 7447TIP3   OH243831   5.801   1.820  14.490  0.3962 -0.0966  0.0670
 7447TIP3    H143832   5.882   1.872  14.495  0.5066 -0.3370  1.2140
 7447TIP3    H243833   5.776   1.807  14.582 -1.8018  1.2812 -0.2578
 7448TIP3   OH243834   5.150   0.722  12.362 -0.0438 -0.3916 -0.9112
 7448TIP3    H143835   5.182   0.699  12.274 -0.0353 -2.3077 -0.4568
 7448TIP3    H243836   5.169   0.644  12.415  0.3370  0.8912  0.9080
 7449TIP3   OH243837   2.639   2.901  15.868 -0.2499  0.7324 -0.0613
 7449TIP3    H143838   2.602   2.932  15.785 -0.1211  2.3303  0.4428
 7449TIP3    H243839   2.563   2.885  15.924 -0.2935  1.1555  0.0063
 7450TIP3   OH243840   1.286   3.030   3.696  0.2597 -0.2748  0.3293
 7450TIP3    H143841   1.197   2.994   3.696 -0.7803  2.1027  0.8658
 7450TIP3    H243842   1.343   2.953   3.692 -1.7967 -1.8555 -1.4065
 7451TIP3   OH243843   3.397   5.879   4.230  0.1321  0.1550  0.2939
 7451TIP3    H143844   3.323   5.916   4.181 -1.4440  0.1374  2.5007
 7451TIP3    H243845   3.360   5.801   4.272  1.5873 -0.1718  1.0031
 7452TIP3   OH243846   1.727   1.384  13.144  0.0370  0.2351  0.2667
 7452TIP3    H143847   1.782   1.331  13.201  1.0178 -0.5053 -1.3114
 7452TIP3    H243848   1.786   1.418  13.078 -1.1955  0.4067 -0.7927
 7453TIP3   OH243849   2.287   4.239  12.139  0.0513 -0.1585  0.2779
 7453TIP3    H143850   2.368   4.277  12.106  0.3047 -1.7204 -1.0417
 7453TIP3    H243851   2.241   4.312  12.181  2.5886  0.5420  2.0435
 7454TIP3   OH243852   3.417   3.078   1.484 -0.4352  0.2184  0.1015
 7454TIP3    H143853   3.386   2.990   1.505  0.3922  0.3367  1.9943
 7454TIP3    H243854   3.489   3.064   1.422 -2.1970 -0.2074 -1.9784
 7455TIP3   OH243855   1.308   1.679  14.765  0.8502  0.4583 -0.3467
 7455TIP3    H143856   1.240   1.631  14.718  0.6213 -0.2313  0.6607
 7455TIP3    H243857   1.293   1.658  14.858  2.0648  0.7704 -0.0614
 7456TIP3   OH243858   0.696   3.344  16.986  0.6810  0.1146  0.6986
 7456TIP3    H143859   0.734   3.266  17.027  0.1595  0.7367  2.4426
 7456TIP3    H243860   0.758   3.414  17.006 -0.3407  0.7301  1.7883
 7457TIP3   OH243861   0.680   0.551   3.212  0.5906 -0.3501  0.0477
 7457TIP3    H143862   0.738   0.476   3.203 -0.4971 -1.3914  1.2635
 7457TIP3    H243863   0.622   0.528   3.285 -0.8513  0.9684 -0.6199
 7458TIP3   OH243864   3.567   3.093  16.699 -0.7077  0.4732  0.1026
 7458TIP3    H143865   3.542   3.022  16.758  1.9683 -1.2622 -0.6619
 7458TIP3    H243866   3.642   3.134  16.741 -0.8621  1.4221 -0.5211
 7459TIP3   OH243867   1.375   0.864  13.337 -0.3926 -0.1866  0.0565
 7459TIP3    H143868   1.409   0.838  13.252  4.0780  2.7379  0.6185
 7459TIP3    H243869   1.341   0.783  13.375  2.4991 -2.7951 -2.3858
 7460TIP3   OH243870   6.189   1.791  13.977  0.2557 -0.4175  0.1862
 7460TIP3    H143871   6.244   1.868  13.987 -0.9683  0.5741 -0.4456
 7460TIP3    H243872   6.226   1.727  14.039  0.9165  0.8782  1.1816
 7461TIP3   OH243873   6.324   1.350   0.449 -0.7721  0.5267  0.2532
 7461TIP3    H143874   6.273   1.269   0.442 -0.8142  0.4782  1.0169
 7461TIP3    H243875   6.373   1.340   0.531 -0.3176  1.0190  0.0495
 7462TIP3   OH243876   5.786   3.668  15.945  1.1380  0.4315  0.5389
 7462TIP3    H143877   5.853   3.729  15.914  0.3946  0.8570 -0.2695
 7462TIP3    H243878   5.713   3.679  15.884  0.5046 -0.3613  1.1277
 7463TIP3   OH243879   3.802   0.803  12.254  0.0612  0.7910  0.2136
 7463TIP3    H143880   3.777   0.770  12.340  0.3144  0.8523  0.3122
 7463TIP3    H243881   3.880   0.857  12.271  0.7029  0.0085 -0.1810
 7464TIP3   OH243882   3.898   5.116  16.909  0.4138 -0.4200  0.4853
 7464TIP3    H143883   3.831   5.061  16.951 -1.0345  1.7548  1.2291
 7464TIP3    H243884   3.951   5.148  16.982  0.5336  0.0375  0.2007
 7465TIP3   OH243885   0.838   1.273  16.886 -0.2351 -0.3355 -0.2752
 7465TIP3    H143886   0.872   1.354  16.924 -0.9804 -0.2952  0.3234
 7465TIP3    H243887   0.825   1.294  16.793  1.8592 -0.5212 -0.6833
 7466TIP3   OH243888   6.786   5.368  11.484 -0.1690 -0.4336 -0.8215
 7466TIP3    H143889   6.750   5.303  11.423  0.1360 -1.6278  0.2258
 7466TIP3    H243890   6.855   5.412  11.434 -1.4558  0.2352 -2.0706
 7467TIP3   OH243891   1.580   6.469   5.119  0.1203  0.1640  0.0130
 7467TIP3    H143892   1.646   6.531   5.087 -1.1176  0.7249 -1.5941
 7467TIP3    H243893   1.496   6.513   5.102 -0.7056 -0.8019  1.4045
 7468TIP3   OH243894   2.634   0.129  10.647 -0.8831  0.9434  0.1733
 7468TIP3    H143895   2.711   0.182  10.627 -0.0343 -0.4586 -0.4679
 7468TIP3    H243896   2.559   0.184  10.623 -0.0721  2.0413  0.0838
 7469TIP3   OH243897   3.146   3.856   1.178  0.2376  0.3862  0.2347
 7469TIP3    H143898   3.124   3.849   1.085 -0.3795  1.7502  0.2569
 7469TIP3    H243899   3.232   3.814   1.185 -0.4460 -1.2530 -0.6175
 7470TIP3   OH243900   6.385   4.618  11.917  0.3748  0.3672  0.3506
 7470TIP3    H143901   6.423   4.643  11.833  0.4673 -0.2937  0.1881
 7470TIP3    H243902   6.436   4.541  11.945 -1.2220 -0.9438 -0.1830
 7471TIP3   OH243903   1.261   6.437   5.659  0.5512 -0.3556 -0.2905
 7471TIP3    H143904   1.179   6.388   5.653 -0.9544  2.1758 -1.7310
 7471TIP3    H243905   1.236   6.524   5.690  2.8750  0.1727  0.3590
 7472TIP3   OH243906   2.239   1.797   2.574 -0.5870  0.4235 -0.6361
 7472TIP3    H143907   2.160   1.818   2.524 -0.5133 -1.2222 -1.5095
 7472TIP3    H243908   2.207   1.773   2.661 -1.3640 -2.2635 -1.5390
 7473TIP3   OH243909   3.968   4.452   1.118 -0.0896 -0.2568  0.4725
 7473TIP3    H143910   3.945   4.481   1.207  0.3000 -1.9624  1.1642
 7473TIP3    H243911   3.924   4.368   1.108  1.9636 -1.3567  0.0718
 7474TIP3   OH243912   0.825   3.750   4.007  0.0088  0.0470 -1.1516
 7474TIP3    H143913   0.809   3.660   4.034  0.0411 -0.0431 -1.4250
 7474TIP3    H243914   0.775   3.803   4.068 -1.2105 -0.2183 -1.8924
 7475TIP3   OH243915   4.731   6.565  14.539  0.0047 -0.0495  0.3056
 7475TIP3    H143916   4.721   6.472  14.559 -1.4996  0.0934  0.3571
 7475TIP3    H243917   4.641   6.598  14.533  0.4802  1.0739 -1.2527
 7476TIP3   OH243918   4.737   5.446  14.408 -0.2990  0.1192  0.3450
 7476TIP3    H143919   4.770   5.357  14.407 -0.9152 -0.1424 -1.5696
 7476TIP3    H243920   4.808   5.498  14.369 -0.2000  0.3710  0.8516
 7477TIP3   OH243921   2.072   1.931   1.664  0.0544 -0.6330  0.4468
 7477TIP3    H143922   2.085   1.918   1.758  1.0149 -0.5120  0.3392
 7477TIP3    H243923   2.003   1.997   1.658 -1.5034 -2.1183  1.0417
 7478TIP3   OH243924   2.513   1.842   2.538  0.4538 -0.0565  0.5260
 7478TIP3    H143925   2.420   1.820   2.548  0.5330 -1.6854 -1.6035
 7478TIP3    H243926   2.553   1.816   2.621 -0.9213  0.4650  1.3923
 7479TIP3   OH243927   0.370   4.103  16.086  0.2040  0.3860  0.3605
 7479TIP3    H143928   0.414   4.025  16.053 -0.5627  0.0038  0.2210
 7479TIP3    H243929   0.278   4.077  16.095 -0.4775  1.8588 -1.6577
 7480TIP3   OH243930   3.981   3.725   1.838  0.3986  0.3372  0.6792
 7480TIP3    H143931   4.056   3.666   1.835  0.7843  0.8402  0.2357
 7480TIP3    H243932   3.915   3.677   1.888  0.2530 -1.0067 -0.7093
 7481TIP3   OH243933   3.659   2.955  11.316 -0.5110 -0.1093  0.0915
 7481TIP3    H143934   3.566   2.951  11.296 -0.4289  0.8747 -0.5663
 7481TIP3    H243935   3.663   2.955  11.412 -1.1616 -0.5158  0.1233
 7482TIP3   OH243936   0.113   1.547  15.159 -0.0763 -0.1607  0.0035
 7482TIP3    H143937   0.156   1.631  15.174 -1.3745  0.8425 -1.5755
 7482TIP3    H243938   0.023   1.570  15.138 -0.3443 -1.9288 -0.9430
 7483TIP3   OH243939   3.578   1.639   2.642  0.3562  0.3022 -0.3972
 7483TIP3    H143940   3.491   1.656   2.604  0.2850  1.1287  0.1036
 7483TIP3    H243941   3.639   1.660   2.572  0.2097  1.3560 -0.2197
 7484TIP3   OH243942   6.224   3.423  10.134  0.6066  0.3006  0.3210
 7484TIP3    H143943   6.272   3.430  10.051  0.0889  0.4177  0.0231
 7484TIP3    H243944   6.132   3.429  10.108  0.1558 -3.8029  0.4226
 7485TIP3   OH243945   4.794   5.221  14.669 -0.2699  0.6614 -0.1263
 7485TIP3    H143946   4.867   5.267  14.628  0.1676 -0.5998 -0.8209
 7485TIP3    H243947   4.768   5.277  14.742  1.0404  1.3891 -0.1951
 7486TIP3   OH243948   2.047   2.238   1.398 -0.2174  0.1028  0.3007
 7486TIP3    H143949   2.052   2.331   1.421  1.2772 -0.1738  1.2127
 7486TIP3    H243950   2.084   2.233   1.310 -0.7536  0.4208  0.0516
 7487TIP3   OH243951   1.308   4.121  15.256 -0.4600 -0.0634  0.3632
 7487TIP3    H143952   1.368   4.129  15.330  0.2624  0.2636 -0.2504
 7487TIP3    H243953   1.341   4.183  15.191  1.0284 -2.7611 -1.6747
 7488TIP3   OH243954   4.423   3.089   2.887 -0.4447 -0.3089 -0.2987
 7488TIP3    H143955   4.386   3.146   2.954  0.4174 -0.7851  0.6214
 7488TIP3    H243956   4.514   3.119   2.877 -0.3219 -0.7805 -0.6345
 7489TIP3   OH243957   0.940   1.146   4.432  0.1662 -0.2070 -0.2005
 7489TIP3    H143958   0.950   1.090   4.509  1.3472 -0.1029 -0.2625
 7489TIP3    H243959   1.023   1.192   4.424 -0.0212 -0.0249 -1.3875
 7490TIP3   OH243960   4.883   4.846  15.822 -0.1755  0.1408  0.5167
 7490TIP3    H143961   4.891   4.803  15.907 -0.4406 -1.4274 -0.2123
 7490TIP3    H243962   4.797   4.888  15.823 -0.3212 -0.1645  0.8909
 7491TIP3   OH243963   2.929   6.381  15.933  0.1348 -0.4121  0.1102
 7491TIP3    H143964   2.856   6.319  15.939  0.3397 -0.8688 -1.5124
 7491TIP3    H243965   3.007   6.326  15.932  0.3669 -0.0793 -0.5355
 7492TIP3   OH243966   1.332   4.873  12.713  0.4171  0.5342  0.0300
 7492TIP3    H143967   1.326   4.807  12.644 -0.9578 -0.8220  1.3832
 7492TIP3    H243968   1.418   4.860  12.753  0.1974 -0.3514  0.2124
 7493TIP3   OH243969   1.250   0.704  11.764  0.0358  0.1925 -0.0568
 7493TIP3    H143970   1.316   0.728  11.699 -0.2750  1.6333  0.1281
 7493TIP3    H243971   1.291   0.636  11.817  1.8850  1.9475  0.8695
 7494TIP3   OH243972   5.616   5.698  13.116  0.2849  0.0225  0.3138
 7494TIP3    H143973   5.525   5.673  13.128 -0.3646  2.2223  0.5183
 7494TIP3    H243974   5.644   5.652  13.037 -1.0827 -0.5103  0.1249
 7495TIP3   OH243975   4.815   1.141  13.142 -0.0876 -0.1022  0.2379
 7495TIP3    H143976   4.847   1.197  13.213 -2.4108 -0.8847  2.0300
 7495TIP3    H243977   4.754   1.197  13.093  1.0803  0.2608 -0.8621
 7496TIP3   OH243978   6.138   1.137   1.758 -0.0754  0.3157  0.2567
 7496TIP3    H143979   6.234   1.143   1.751 -0.2683  1.6338 -2.1147
 7496TIP3    H243980   6.121   1.043   1.754  1.1572 -0.0916  2.5454
 7497TIP3   OH243981   4.505   0.495   3.652  0.6195 -0.3441 -0.0386
 7497TIP3    H143982   4.576   0.437   3.680  1.0710  0.3958  0.3786
 7497TIP3    H243983   4.480   0.462   3.565  2.4848  0.2707 -0.8567
 7498TIP3   OH243984   3.686   6.838   0.192  0.2147 -0.0327  0.4555
 7498TIP3    H143985   3.745   6.876   0.256 -1.0428  1.1328  0.9669
 7498TIP3    H243986   3.723   6.863   0.107  0.6791  0.3363  0.7651
 7499TIP3   OH243987   4.150   6.056   6.173  0.4995  0.3683  0.2485
 7499TIP3    H143988   4.092   6.125   6.206  0.9890  0.4685  0.9311
 7499TIP3    H243989   4.155   6.072   6.079  0.3188  1.0477  0.3466
 7500TIP3   OH243990   3.607   2.889   1.726 -0.2232 -0.7146 -0.1691
 7500TIP3    H143991   3.536   2.952   1.713  0.8871  0.6542  0.1466
 7500TIP3    H243992   3.674   2.938   1.775  1.3508 -1.6630 -1.2899
 7501TIP3   OH243993   5.292   2.950   2.560 -0.1610  0.0710 -0.3090
 7501TIP3    H143994   5.331   2.993   2.636  1.3030 -2.3668  0.4089
 7501TIP3    H243995   5.210   2.913   2.591  0.9435 -1.8440  0.4330
 7502TIP3   OH243996   6.737   5.131  11.357 -0.1524 -0.0108  0.1123
 7502TIP3    H143997   6.730   5.102  11.266 -3.8861 -1.6809  0.7728
 7502TIP3    H243998   6.806   5.075  11.393  1.6259  0.8945 -1.6690
 7503TIP3   OH243999   6.547   1.647   3.372  0.1062  0.1095 -1.0728
 7503TIP3    H144000   6.641   1.642   3.358  0.2402  2.1913 -1.2569
 7503TIP3    H244001   6.528   1.741   3.373 -1.5114 -0.1131  2.0757
 7504TIP3   OH244002   2.098   3.504   5.224  0.2777 -0.3896 -0.4106
 7504TIP3    H144003   2.071   3.446   5.153 -0.3902  1.5578 -1.8635
 7504TIP3    H244004   2.191   3.521   5.207  0.5661 -1.3015  0.2310
 7505TIP3   OH244005   6.755   0.844   4.608  0.4021 -0.2675 -0.8375
 7505TIP3    H144006   6.718   0.811   4.526  1.0748 -2.8679 -0.2094
 7505TIP3    H244007   6.759   0.766   4.664  2.9578  0.7478  0.5206
 7506TIP3   OH244008   1.577   3.328   1.852 -0.3145  0.1596  0.0324
 7506TIP3    H144009   1.612   3.417   1.854 -1.3205  0.6327 -1.5049
 7506TIP3    H244010   1.520   3.323   1.928  0.3469  0.5511  0.5723
 7507TIP3   OH244011   4.966   1.708  12.749  0.3732  0.5454  1.2933
 7507TIP3    H144012   4.993   1.636  12.692 -0.9524  1.1894 -0.2184
 7507TIP3    H244013   5.035   1.774  12.739  0.9645  0.0106  1.7316
 7508TIP3   OH244014   1.308   4.244   3.883  0.2370 -0.1597 -0.4007
 7508TIP3    H144015   1.216   4.267   3.868  0.2349 -0.1442 -0.3637
 7508TIP3    H244016   1.354   4.282   3.809  0.5944  2.2209  0.9435
 7509TIP3   OH244017   6.566   1.072  12.920  0.3462 -0.3229 -0.3383
 7509TIP3    H144018   6.503   1.006  12.949 -1.4868 -0.0503 -3.2412
 7509TIP3    H244019   6.596   1.041  12.834  3.1364  0.3283  0.2861
 7510TIP3   OH244020   5.148   3.532   2.515  0.2252 -0.0196 -0.5448
 7510TIP3    H144021   5.086   3.577   2.573  1.7261 -0.0775  1.2121
 7510TIP3    H244022   5.160   3.591   2.441 -0.5854  0.7879 -0.0444
 7511TIP3   OH244023   1.230   2.779  13.262  0.2060 -0.1076  0.1510
 7511TIP3    H144024   1.296   2.843  13.287  0.7041  1.5431 -4.4257
 7511TIP3    H244025   1.149   2.829  13.250  0.2445 -0.4593 -2.0930
 7512TIP3   OH244026   0.173   1.261  17.126 -0.2416 -0.0131 -0.3527
 7512TIP3    H144027   0.210   1.196  17.067 -1.2524  0.5396 -1.6449
 7512TIP3    H244028   0.135   1.210  17.197  2.5714 -0.6284  0.8754
 7513TIP3   OH244029   4.878   3.518   0.322 -0.2499 -0.0483  0.1504
 7513TIP3    H144030   4.792   3.483   0.297  0.2319 -0.9705 -0.2957
 7513TIP3    H244031   4.909   3.564   0.244 -0.6737  0.9612  0.5756
 7514TIP3   OH244032   2.555   2.165   5.651 -0.0681  0.4835  0.0662
 7514TIP3    H144033   2.536   2.074   5.674  0.0633  0.1491 -1.0958
 7514TIP3    H244034   2.592   2.160   5.563  0.7102  1.5930  0.3167
 7515TIP3   OH244035   2.059   5.016   4.924  0.0672  0.2528  0.1035
 7515TIP3    H144036   2.128   5.082   4.921  0.7396 -0.4204  0.6048
 7515TIP3    H244037   1.979   5.067   4.938  0.6244  0.9344  0.9460
 7516TIP3   OH244038   3.541   6.662   5.449 -0.3674 -0.8068  0.0723
 7516TIP3    H144039   3.601   6.733   5.425  0.1529 -0.2777  2.5769
 7516TIP3    H244040   3.478   6.658   5.377 -1.9290  3.9314  0.8019
 7517TIP3   OH244041   0.331   0.268  14.293 -0.1745 -0.2204 -0.1177
 7517TIP3    H144042   0.311   0.309  14.208  0.1967  0.5786  0.1719
 7517TIP3    H244043   0.335   0.341  14.354 -0.0214 -0.7532  0.5160
 7518TIP3   OH244044   1.854   3.114   5.396  0.0219 -0.3507  0.6057
 7518TIP3    H144045   1.943   3.143   5.412 -0.4528  1.1212  0.7631
 7518TIP3    H244046   1.813   3.113   5.482 -0.1109 -1.0279  0.5361
 7519TIP3   OH244047   1.214   0.725   5.605 -0.3117 -0.4635  0.1348
 7519TIP3    H144048   1.289   0.690   5.652  0.7548  0.6906 -0.6508
 7519TIP3    H244049   1.203   0.814   5.641 -0.8965 -0.3837 -0.2189
 7520TIP3   OH244050   1.750   3.009   4.393 -0.2075  0.2522  0.4156
 7520TIP3    H144051   1.799   3.064   4.453 -0.2835  1.1894 -0.3490
 7520TIP3    H244052   1.805   3.005   4.314 -0.3837 -0.4585  0.3181
 7521TIP3   OH244053   1.604   2.819  12.815 -0.4346 -0.4003  0.1620
 7521TIP3    H144054   1.589   2.801  12.722  0.7181 -1.5611  0.1727
 7521TIP3    H244055   1.542   2.889  12.836 -0.7056 -0.1001 -1.4803
 7522TIP3   OH244056   3.501   4.701   0.941 -0.5605 -0.2202 -0.5065
 7522TIP3    H144057   3.508   4.789   0.978 -0.9849 -0.6375  0.5783
 7522TIP3    H244058   3.543   4.709   0.855  1.4973  0.4908  0.5004
 7523TIP3   OH244059   6.170   0.715   6.451 -0.2972  0.1156  0.2575
 7523TIP3    H144060   6.101   0.740   6.389  0.2588  0.5298 -0.2002
 7523TIP3    H244061   6.233   0.787   6.447 -0.7831  0.6825  2.1226
 7524TIP3   OH244062   0.439   1.533   3.783 -0.2092  0.4877 -0.2749
 7524TIP3    H144063   0.359   1.570   3.819  0.9027  2.5157  0.2557
 7524TIP3    H244064   0.431   1.439   3.798 -1.9842  0.7699  0.7772
 7525TIP3   OH244065   6.423   0.088  16.788 -0.7880 -0.0350  0.1230
 7525TIP3    H144066   6.465   0.004  16.806 -0.5474  0.1955  0.6568
 7525TIP3    H244067   6.424   0.095  16.692  0.5615  0.0342  0.1201
 7526TIP3   OH244068   0.845   2.763  11.478  0.3330 -0.3263  0.3534
 7526TIP3    H144069   0.891   2.771  11.394 -0.5291  0.1193 -0.0933
 7526TIP3    H244070   0.792   2.843  11.484 -0.0035 -0.5972  1.0861
 7527TIP3   OH244071   6.401   2.593  14.278 -0.3111  0.1702 -0.2988
 7527TIP3    H144072   6.404   2.573  14.184 -0.5707  0.3481 -0.3458
 7527TIP3    H244073   6.326   2.542  14.310 -1.0941  1.2009 -0.4530
 7528TIP3   OH244074   3.408   1.453   3.248  0.1616 -0.0376  0.2362
 7528TIP3    H144075   3.475   1.397   3.288  0.4345  0.2960  0.2538
 7528TIP3    H244076   3.383   1.407   3.168 -0.7238 -0.9451  0.9966
 7529TIP3   OH244077   1.133   5.887   2.476 -0.1696 -0.2176  0.6463
 7529TIP3    H144078   1.038   5.882   2.469 -0.1490 -2.3126  1.2884
 7529TIP3    H244079   1.148   5.961   2.536 -1.3465  0.4485  0.1580
 7530TIP3   OH244080   6.145   5.943  14.609 -0.0198  0.0487  0.6420
 7530TIP3    H144081   6.109   5.901  14.688 -0.5740  1.1004  0.9739
 7530TIP3    H244082   6.231   5.904  14.598 -1.4100 -3.0171 -0.5034
 7531TIP3   OH244083   5.842   3.379  13.812  0.3296 -0.4105  0.5967
 7531TIP3    H144084   5.816   3.444  13.747 -0.8249 -0.8449  0.6010
 7531TIP3    H244085   5.837   3.425  13.895 -1.1135 -0.6407  0.6692
 7532TIP3   OH244086   0.134   2.329   2.021  0.6113 -0.6774 -0.1348
 7532TIP3    H144087   0.125   2.340   1.927  1.6440  0.2648 -0.1373
 7532TIP3    H244088   0.211   2.380   2.045  0.0703 -0.4765  1.3045
 7533TIP3   OH244089   3.413   2.984   3.310  0.2621 -0.8348  0.1068
 7533TIP3    H144090   3.443   2.899   3.342  0.5428 -1.2039 -1.1067
 7533TIP3    H244091   3.406   2.973   3.215  0.5419  0.5624 -0.0933
 7534TIP3   OH244092   5.095   4.222   0.960 -0.4127  0.2262 -0.2081
 7534TIP3    H144093   5.144   4.259   1.033 -0.4678 -0.9170  0.4402
 7534TIP3    H244094   5.005   4.251   0.974 -0.2512  0.8149 -0.3759
 7535TIP3   OH244095   2.346   5.502  15.288 -0.0903  0.0084  0.4671
 7535TIP3    H144096   2.433   5.462  15.278 -0.5443 -0.3026 -3.9284
 7535TIP3    H244097   2.296   5.438  15.338  1.3569 -1.1846  0.4711
 7536TIP3   OH244098   4.446   2.250  11.369 -0.2164  0.2721 -0.5311
 7536TIP3    H144099   4.379   2.316  11.386  1.1709  1.1930  1.8942
 7536TIP3    H244100   4.429   2.182  11.434 -0.3960 -0.8225 -1.6850
 7537TIP3   OH244101   6.348   0.890   0.478 -0.0837 -0.0619  0.7867
 7537TIP3    H144102   6.372   0.824   0.543  0.7309 -0.9966 -0.4134
 7537TIP3    H244103   6.432   0.922   0.444 -0.4917  0.5054  0.2887
 7538TIP3   OH244104   2.757   4.604   5.585 -0.6184  0.5001  0.0242
 7538TIP3    H144105   2.787   4.545   5.516 -2.7032 -3.0188  1.8897
 7538TIP3    H244106   2.700   4.667   5.541  0.4416  0.2338 -1.8093
 7539TIP3   OH244107   2.675   2.147   5.405 -0.6057  0.3153 -0.2360
 7539TIP3    H144108   2.751   2.089   5.401 -1.9136 -1.5901  0.6567
 7539TIP3    H244109   2.690   2.212   5.337 -0.2138 -2.5926 -3.1818
 7540TIP3   OH244110   1.630   3.336   6.077 -0.2662  0.1261  0.2165
 7540TIP3    H144111   1.541   3.371   6.082  0.2404  1.7321 -1.1887
 7540TIP3    H244112   1.662   3.338   6.167 -2.1415 -1.9396  1.0139
 7541TIP3   OH244113   1.837   4.620  10.921  0.4583 -0.1181 -0.2101
 7541TIP3    H144114   1.809   4.529  10.910 -0.1847 -0.1662  1.4857
 7541TIP3    H244115   1.887   4.640  10.842  1.4464 -2.2620 -0.1806
 7542TIP3   OH244116   2.514   1.782   2.117  0.0978  0.2429 -0.1593
 7542TIP3    H144117   2.499   1.864   2.164 -1.2734  0.1719 -0.4186
 7542TIP3    H244118   2.484   1.800   2.027 -1.4824 -0.8950  0.0928
 7543TIP3   OH244119   2.679   2.506  13.894  0.5519 -0.5262  0.2970
 7543TIP3    H144120   2.632   2.484  13.974 -1.5806  0.1588 -0.6996
 7543TIP3    H244121   2.654   2.597  13.875  0.4721 -0.8813 -1.4855
 7544TIP3   OH244122   5.770   5.190   2.808  0.6558  0.2451 -0.3594
 7544TIP3    H144123   5.827   5.113   2.803  1.0670  0.6020 -1.7940
 7544TIP3    H244124   5.828   5.261   2.834  0.5616  0.3386 -0.4040
 7545TIP3   OH244125   6.202   1.287   2.222  0.2025  0.6050 -0.3393
 7545TIP3    H144126   6.270   1.271   2.157  0.3248 -0.2210 -0.0112
 7545TIP3    H244127   6.224   1.230   2.296 -0.6050  0.6346 -0.0630
 7546TIP3   OH244128   0.774   5.582   0.517  1.0112 -0.2851  0.1138
 7546TIP3    H144129   0.732   5.597   0.432  0.2354 -1.5275  0.2600
 7546TIP3    H244130   0.821   5.664   0.535 -0.1377  0.6008 -0.7449
 7547TIP3   OH244131   0.369   2.552   2.447  0.2986  0.2611  0.6988
 7547TIP3    H144132   0.368   2.471   2.498  1.1599  0.6928  1.4333
 7547TIP3    H244133   0.451   2.595   2.472 -0.2833  1.4929  0.5342
 7548TIP3   OH244134   6.366   5.789  10.970 -0.2765 -0.0684  0.5146
 7548TIP3    H144135   6.445   5.802  10.918  0.3958 -0.3940  1.4194
 7548TIP3    H244136   6.363   5.694  10.985 -0.8874 -0.0661  0.4039
 7549TIP3   OH244137   5.825   1.403  16.092  0.2498 -0.4401  0.0361
 7549TIP3    H144138   5.731   1.399  16.073  0.1626  0.7530  0.1642
 7549TIP3    H244139   5.838   1.336  16.159 -0.6644 -0.0563  0.6221
 7550TIP3   OH244140   6.588   6.067  15.664  0.4419 -0.0541 -0.1269
 7550TIP3    H144141   6.504   6.110  15.679  0.0082 -0.9479  0.1232
 7550TIP3    H244142   6.654   6.132  15.688 -0.1228  1.2326 -1.8540
 7551TIP3   OH244143   0.065   3.838  14.042 -0.5145 -0.6225 -0.0900
 7551TIP3    H144144   0.071   3.766  14.104  0.1429 -1.3137 -0.9338
 7551TIP3    H244145   0.142   3.828  13.986 -0.4385  0.7096 -0.2499
 7552TIP3   OH244146   3.728   1.840  15.817 -0.4850 -0.0250 -0.2551
 7552TIP3    H144147   3.816   1.871  15.839  0.5832 -2.2077 -1.0904
 7552TIP3    H244148   3.693   1.807  15.899  0.1155 -0.5361 -0.1972
 7553TIP3   OH244149   5.394   3.351   1.232  0.5059 -0.1126  0.6603
 7553TIP3    H144150   5.471   3.360   1.288  0.4782 -2.1239  1.1166
 7553TIP3    H244151   5.353   3.269   1.261 -1.1597  0.3093 -0.3532
 7554TIP3   OH244152   4.913   4.149   3.571 -0.1329 -0.0648 -0.1134
 7554TIP3    H144153   4.939   4.057   3.576  1.3615  0.3756  1.4933
 7554TIP3    H244154   4.957   4.190   3.646 -3.7163  1.2720  1.5070
 7555TIP3   OH244155   1.540   3.370  14.619 -0.5894 -0.0853  0.0422
 7555TIP3    H144156   1.595   3.296  14.644  1.2646  2.0795  3.0796
 7555TIP3    H244157   1.593   3.420  14.558 -0.2121  0.6219  0.9186
 7556TIP3   OH244158   6.044   3.725  16.148 -0.7050 -0.3545 -0.1226
 7556TIP3    H144159   5.980   3.795  16.131 -1.0957 -0.5718  0.4420
 7556TIP3    H244160   6.122   3.754  16.101 -1.2721 -0.1886 -1.0116
 7557TIP3   OH244161   3.472   4.495  15.240  0.2046  0.2536  0.2185
 7557TIP3    H144162   3.530   4.420  15.235  1.6279  1.2941  0.3941
 7557TIP3    H244163   3.485   4.530  15.329 -0.2645  0.8346  0.0723
 7558TIP3   OH244164   0.394   6.214  12.828 -0.4330 -0.0338 -0.0710
 7558TIP3    H144165   0.393   6.122  12.802 -2.8223  0.1922 -1.0330
 7558TIP3    H244166   0.354   6.215  12.914 -0.3505  0.1073 -0.0335
 7559TIP3   OH244167   5.831   4.670   0.401 -0.2865 -0.4164 -0.9868
 7559TIP3    H144168   5.816   4.719   0.321 -1.2220  0.5989 -0.2175
 7559TIP3    H244169   5.814   4.579   0.377  0.1430 -0.2146 -2.0970
 7560TIP3   OH244170   2.562   5.442   5.569 -1.0579  0.0547  0.0553
 7560TIP3    H144171   2.555   5.374   5.502  2.0516 -1.1306  0.7667
 7560TIP3    H244172   2.487   5.426   5.626 -1.5485 -1.4619 -0.9354
 7561TIP3   OH244173   4.170   3.381   2.369  0.0456 -0.4287 -0.1223
 7561TIP3    H144174   4.138   3.311   2.311  0.1669 -0.4257 -0.1920
 7561TIP3    H244175   4.231   3.336   2.428  0.2055 -0.3615 -0.2367
 7562TIP3   OH244176   2.227   3.938   1.133  0.0084 -0.5840 -0.2801
 7562TIP3    H144177   2.307   3.928   1.185  0.5512 -0.0308 -1.0048
 7562TIP3    H244178   2.214   3.852   1.093 -0.3386 -0.9784  0.6454
 7563TIP3   OH244179   5.984   0.367   1.291  0.2888 -0.0486  0.2262
 7563TIP3    H144180   6.058   0.309   1.309 -0.5941 -1.0652  0.7325
 7563TIP3    H244181   5.919   0.309   1.251 -0.2138  0.8444 -0.2762
 7564TIP3   OH244182   2.824   0.574  12.520 -0.1670 -0.1388  0.0259
 7564TIP3    H144183   2.840   0.646  12.582  1.3477 -0.0984 -0.3803
 7564TIP3    H244184   2.746   0.602  12.472  0.8557  1.6701 -0.6891
 7565TIP3   OH244185   1.918   5.390  13.045  0.1188 -0.3415  0.7664
 7565TIP3    H144186   1.903   5.295  13.047  1.2545 -0.5664 -0.2716
 7565TIP3    H244187   1.860   5.423  12.977  0.4072 -0.4305  0.4767
 7566TIP3   OH244188   3.532   4.537  13.473 -0.0492 -0.4319 -0.7390
 7566TIP3    H144189   3.587   4.600  13.426  0.4347 -0.0373  0.3117
 7566TIP3    H244190   3.445   4.547  13.435  0.3962 -0.3549 -1.7567
 7567TIP3   OH244191   5.890   0.654  15.158  0.4173 -0.0087 -0.8280
 7567TIP3    H144192   5.824   0.661  15.227 -0.0744 -2.3279 -0.9741
 7567TIP3    H244193   5.967   0.618  15.201  0.5185 -0.3181 -1.2628
 7568TIP3   OH244194   5.357   2.872   0.374 -0.6315  0.4993 -0.2760
 7568TIP3    H144195   5.267   2.904   0.361 -0.8665 -0.1320 -0.2672
 7568TIP3    H244196   5.388   2.921   0.450 -1.6417 -0.5872  0.8867
 7569TIP3   OH244197   1.591   6.823  16.866 -0.2367 -0.0777  0.2460
 7569TIP3    H144198   1.553   6.908  16.843 -0.1161 -0.5336 -1.8356
 7569TIP3    H244199   1.672   6.819  16.815 -0.9063 -1.9883 -0.7575
 7570TIP3   OH244200   4.630   4.394  14.519 -0.3588 -0.1426  0.4952
 7570TIP3    H144201   4.591   4.474  14.485  5.1938  1.9333 -2.2832
 7570TIP3    H244202   4.598   4.324  14.462 -0.0410  1.3761 -1.6321
 7571TIP3   OH244203   1.042   2.107   3.452 -0.2054 -0.0165 -0.0172
 7571TIP3    H144204   1.054   2.012   3.465 -0.0604  0.2175  1.8363
 7571TIP3    H244205   0.976   2.113   3.383  0.0563 -1.4614 -0.4424
 7572TIP3   OH244206   2.055   2.391   3.694  0.3509 -0.9948 -0.1537
 7572TIP3    H144207   1.964   2.383   3.664  0.3189 -0.5782 -0.1774
 7572TIP3    H244208   2.091   2.303   3.684 -0.3414 -1.4133  0.7944
 7573TIP3   OH244209   0.056   1.253  16.094 -0.0501  0.5063  0.0689
 7573TIP3    H144210   0.120   1.299  16.147 -1.1610  0.3714  1.5807
 7573TIP3    H244211  -0.006   1.321  16.066 -0.1776  0.3737  0.0271
 7574TIP3   OH244212   5.982   6.705  10.686 -0.3952  0.2207 -0.5793
 7574TIP3    H144213   5.930   6.649  10.629  0.7221 -1.5961  0.0887
 7574TIP3    H244214   6.024   6.768  10.627  2.7576 -3.1293 -2.3195
 7575TIP3   OH244215   2.295   4.775   0.278  0.0525 -0.3886 -0.0159
 7575TIP3    H144216   2.274   4.686   0.251 -0.4880 -0.3473  0.2671
 7575TIP3    H244217   2.227   4.798   0.342 -0.8138  0.8324 -1.3174
 7576TIP3   OH244218   2.189   2.810  14.918 -0.0085 -0.6633  0.3199
 7576TIP3    H144219   2.240   2.764  14.984 -0.6297 -1.6899  0.0969
 7576TIP3    H244220   2.153   2.886  14.964 -0.1114 -1.1493  1.0582
 7577TIP3   OH244221   2.228   0.235   3.893 -0.6143  0.0283 -0.2023
 7577TIP3    H144222   2.197   0.150   3.861 -0.0957 -0.2032 -0.0914
 7577TIP3    H244223   2.196   0.298   3.828 -1.5681 -0.1650  0.0564
 7578TIP3   OH244224   1.567   1.055  13.055 -0.1249 -0.0002  0.5034
 7578TIP3    H144225   1.544   1.136  13.008  0.8479  0.6099  1.0359
 7578TIP3    H244226   1.554   1.077  13.147  0.2314 -0.4257  0.6542
 7579TIP3   OH244227   5.633   0.637   1.388 -0.7256  0.7364  0.3847
 7579TIP3    H144228   5.640   0.730   1.367 -0.0442  0.4070 -0.9866
 7579TIP3    H244229   5.604   0.596   1.306  0.2111 -0.4049  0.5957
 7580TIP3   OH244230   1.180   3.338   1.062 -0.1160  0.2393  0.2711
 7580TIP3    H144231   1.199   3.393   1.138  0.6827  1.0551 -0.4924
 7580TIP3    H244232   1.120   3.272   1.095  0.7399  0.1665  1.7662
 7581TIP3   OH244233   2.024   2.908  15.511  0.1540  0.0386  0.3286
 7581TIP3    H144234   1.929   2.912  15.525 -0.4014 -0.2066 -2.7121
 7581TIP3    H244235   2.060   2.895  15.598 -2.5351  1.0205  1.7112
 7582TIP3   OH244236   1.492   6.246   4.757 -0.7614 -0.2699  0.4942
 7582TIP3    H144237   1.435   6.223   4.683  0.2132 -0.2608 -0.2842
 7582TIP3    H244238   1.478   6.340   4.769 -0.8511 -0.2501  0.2490
 7583TIP3   OH244239   3.320   5.102   2.226  1.0383  0.4079 -0.5357
 7583TIP3    H144240   3.236   5.065   2.199 -1.6657  3.7894  2.2400
 7583TIP3    H244241   3.346   5.159   2.154  0.0631  0.5778 -0.7622
 7584TIP3   OH244242   4.722   2.999   2.757 -0.1680 -0.0919 -0.0010
 7584TIP3    H144243   4.726   3.049   2.838  1.4957  0.1844 -0.2170
 7584TIP3    H244244   4.800   2.944   2.759 -1.5030 -2.0804 -0.1742
 7585TIP3   OH244245   4.540   0.104   3.716 -0.1407 -0.3018 -0.4774
 7585TIP3    H144246   4.615   0.153   3.751 -0.2651 -1.0423  0.8853
 7585TIP3    H244247   4.573   0.015   3.706 -0.4568 -0.3441 -1.1768
 7586TIP3   OH244248   0.976   6.164  10.495  0.6255  0.3239  0.1715
 7586TIP3    H144249   1.012   6.214  10.568 -1.8681  1.0006  1.0233
 7586TIP3    H244250   0.899   6.120  10.531 -0.1564 -0.0568 -1.8305
 7587TIP3   OH244251   1.328   6.480   2.543  0.2058  0.4280 -0.1267
 7587TIP3    H144252   1.266   6.553   2.551  0.8187  0.9369  0.0720
 7587TIP3    H244253   1.414   6.522   2.542  0.6154 -0.3496  0.8437
 7588TIP3   OH244254   2.122   1.811   3.420  0.2305  0.0283  0.1300
 7588TIP3    H144255   2.179   1.753   3.471  0.6491  1.1386  0.9558
 7588TIP3    H244256   2.117   1.891   3.472 -0.0215  0.8859 -1.1808
 7589TIP3   OH244257   3.766   1.565   3.166  0.1250  0.3201 -0.4027
 7589TIP3    H144258   3.696   1.519   3.120  0.3314  0.6846 -1.0947
 7589TIP3    H244259   3.845   1.514   3.147 -0.1897 -1.1724  1.8957
 7590TIP3   OH244260   6.378   3.647   1.739 -0.5971 -0.1396 -0.7622
 7590TIP3    H144261   6.358   3.734   1.705  0.0753 -0.2668 -1.5191
 7590TIP3    H244262   6.312   3.590   1.699 -0.4213 -0.1334 -1.0596
 7591TIP3   OH244263   3.164   1.143   1.779  0.4536 -0.6000 -0.0315
 7591TIP3    H144264   3.135   1.059   1.743  2.0158 -1.2190  0.0915
 7591TIP3    H244265   3.259   1.134   1.788  0.5235  0.8250  0.9314
 7592TIP3   OH244266   4.019   5.913   5.511 -0.3366  0.6988 -0.1255
 7592TIP3    H144267   4.089   5.873   5.461  0.1167 -0.0149  1.0257
 7592TIP3    H244268   4.028   6.007   5.495  0.2584  0.5374 -0.7586
 7593TIP3   OH244269   2.725   2.970   2.971 -0.4812  0.3083 -0.5707
 7593TIP3    H144270   2.710   2.879   2.947 -1.4774  0.5466 -0.9231
 7593TIP3    H244271   2.776   3.006   2.898  0.6601 -0.1731 -0.0221
 7594TIP3   OH244272   0.450   0.739   0.182 -0.7759 -0.3011  0.2735
 7594TIP3    H144273   0.376   0.682   0.203 -0.8791 -0.3263 -0.1578
 7594TIP3    H244274   0.412   0.810   0.131 -1.0893  1.4842  2.7935
 7595TIP3   OH244275   1.621   0.964   0.250 -0.1925 -0.1948  0.4037
 7595TIP3    H144276   1.624   0.869   0.237 -0.0135 -0.2183  0.6163
 7595TIP3    H244277   1.710   0.994   0.232  0.0951 -0.2432  1.7095
 7596TIP3   OH244278   3.433   2.940  10.761  0.1794 -0.2730  0.6711
 7596TIP3    H144279   3.438   3.024  10.716  1.5215 -1.2067 -1.0383
 7596TIP3    H244280   3.507   2.890  10.727 -1.8152 -2.9415 -0.0582
 7597TIP3   OH244281   3.527   4.303   5.827 -0.2292  0.2249  0.2314
 7597TIP3    H144282   3.611   4.321   5.869 -0.3244 -0.9563  0.9608
 7597TIP3    H244283   3.461   4.325   5.893 -0.4624  0.2611 -0.0081
 7598TIP3   OH244284   5.879   2.719  15.835 -0.4362  0.2129 -0.3066
 7598TIP3    H144285   5.799   2.748  15.878 -0.4353  1.3121 -1.0156
 7598TIP3    H244286   5.882   2.624  15.850 -0.4932  0.5330  1.9842
 7599TIP3   OH244287   1.318   5.191  10.693  0.3311  0.0945  0.4630
 7599TIP3    H144288   1.237   5.156  10.729  1.5282 -1.3664  1.8633
 7599TIP3    H244289   1.296   5.281  10.669 -1.9061 -0.5127  0.0121
 7600TIP3   OH244290   3.091   6.656   5.082 -0.3249  0.4910  0.6725
 7600TIP3    H144291   3.110   6.724   5.147 -1.8187  1.5758  0.0160
 7600TIP3    H244292   3.095   6.574   5.131  1.9782  0.9591  1.3905
 7601TIP3   OH244293   4.409   3.656  15.119  0.2524 -0.1488  0.1355
 7601TIP3    H144294   4.341   3.724  15.122  1.4317  1.0414  0.8133
 7601TIP3    H244295   4.423   3.632  15.210 -0.9575 -2.2040 -0.1547
 7602TIP3   OH244296   4.982   0.537   5.311 -0.3102 -0.7437  0.3195
 7602TIP3    H144297   4.954   0.496   5.393 -1.3315 -0.3048  0.1995
 7602TIP3    H244298   5.073   0.562   5.327 -0.6544 -0.1832  1.5106
 7603TIP3   OH244299   0.585   3.977   5.167  0.5858 -0.0915  0.2055
 7603TIP3    H144300   0.632   3.937   5.093 -0.2579  1.8175 -1.4330
 7603TIP3    H244301   0.528   4.042   5.128 -1.9311 -0.8481  2.3333
 7604TIP3   OH244302   2.815   4.798  11.554  0.2724  0.0953  0.1190
 7604TIP3    H144303   2.861   4.874  11.588 -0.6841  0.9367 -0.3931
 7604TIP3    H244304   2.726   4.829  11.537  0.0413 -0.9557 -0.7420
 7605TIP3   OH244305   2.457   3.220  14.149  0.0837 -0.7474 -0.1398
 7605TIP3    H144306   2.415   3.305  14.133 -0.4109 -0.9271  0.1831
 7605TIP3    H244307   2.544   3.229  14.109  0.3814  0.2167  0.6752
 7606TIP3   OH244308   4.998   5.982   6.329  0.2015  0.0628 -0.4784
 7606TIP3    H144309   4.904   5.992   6.316 -0.0607  0.3707  1.3100
 7606TIP3    H244310   5.022   6.054   6.388  0.6217 -2.5071  2.8084
 7607TIP3   OH244311   1.341   1.105   0.032  0.0184  0.4246 -0.1093
 7607TIP3    H144312   1.281   1.132   0.102 -1.5588 -3.0209  0.0538
 7607TIP3    H244313   1.423   1.086   0.077 -0.8032 -1.1773  0.7649
 7608TIP3   OH244314   3.645   2.495   0.908 -0.1774 -0.1330  0.0923
 7608TIP3    H144315   3.592   2.481   0.830  1.3545 -1.2565 -0.7983
 7608TIP3    H244316   3.584   2.487   0.981 -1.3742 -0.5106 -0.9325
 7609TIP3   OH244317   2.387   4.640   3.031 -0.3383  0.3148  0.8326
 7609TIP3    H144318   2.374   4.570   3.096 -2.0423 -0.6143 -0.4257
 7609TIP3    H244319   2.412   4.594   2.951 -2.9715  0.9210 -0.4413
 7610TIP3   OH244320   4.662   0.184   3.344 -0.6964  0.1215  0.2770
 7610TIP3    H144321   4.754   0.191   3.369 -0.4942 -2.3242  0.4558
 7610TIP3    H244322   4.614   0.179   3.427 -0.7413 -0.8926  0.2000
 7611TIP3   OH244323   1.211   0.735   4.426 -0.5113  0.1502 -0.0291
 7611TIP3    H144324   1.119   0.709   4.432  0.0523 -1.6469  2.6092
 7611TIP3    H244325   1.234   0.719   4.334 -2.6775  0.1471 -0.6302
 7612TIP3   OH244326   3.707   5.490  16.050 -0.4181  0.0667  0.4575
 7612TIP3    H144327   3.662   5.478  16.134 -0.7892  0.3785  0.3063
 7612TIP3    H244328   3.639   5.520  15.990 -0.0644  0.2795  0.1573
 7613TIP3   OH244329   1.456   5.805   3.948 -0.5969 -0.1798  0.2084
 7613TIP3    H144330   1.473   5.858   4.026 -3.0037  0.9199  0.0765
 7613TIP3    H244331   1.412   5.727   3.981 -0.9504 -0.0628  0.0122
 7614TIP3   OH244332   0.664   2.333   3.192 -0.4288 -0.0274  0.6300
 7614TIP3    H144333   0.571   2.351   3.178 -0.5375 -0.0123  1.3227
 7614TIP3    H244334   0.680   2.251   3.146 -0.9318 -0.3470  1.0197
 7615TIP3   OH244335   4.251   2.190   4.099  0.0813 -0.0827 -0.0236
 7615TIP3    H144336   4.273   2.201   4.006  0.8710  0.0044  0.1726
 7615TIP3    H244337   4.195   2.266   4.119 -0.5143 -0.3739 -0.5541
 7616TIP3   OH244338   5.653   5.117   2.213 -0.0760 -0.0198 -0.6413
 7616TIP3    H144339   5.561   5.115   2.185 -0.9660 -3.0732  1.9878
 7616TIP3    H244340   5.676   5.210   2.212 -3.8791  1.1238  0.5614
 7617TIP3   OH244341   3.510   5.656  11.490  0.0027 -0.1223  0.1791
 7617TIP3    H144342   3.517   5.561  11.481 -0.6933 -0.4012  2.0975
 7617TIP3    H244343   3.561   5.677  11.568  0.9649  1.2506 -0.7670
 7618TIP3   OH244344   5.351   0.529   5.985 -0.0070  0.1668  0.1757
 7618TIP3    H144345   5.279   0.466   5.999 -0.1023  0.4526  1.0225
 7618TIP3    H244346   5.427   0.486   6.023  0.2011  0.0088 -0.4198
 7619TIP3   OH244347   2.904   6.712  11.548  0.4823 -0.8963 -0.5977
 7619TIP3    H144348   2.977   6.651  11.549  1.1678 -0.0936 -0.0916
 7619TIP3    H244349   2.920   6.767  11.471 -0.2155 -1.4258 -1.1438
 7620TIP3   OH244350   2.871   6.344   4.938 -0.3098 -0.1203  0.4064
 7620TIP3    H144351   2.933   6.376   4.873 -1.1826 -1.4904 -1.1611
 7620TIP3    H244352   2.921   6.341   5.020  0.2902  3.4743  0.3161
 7621TIP3   OH244353   4.794   2.168   6.076  0.1965 -0.4198  0.6900
 7621TIP3    H144354   4.848   2.206   6.146  1.2142 -0.5623 -0.0097
 7621TIP3    H244355   4.837   2.195   5.995 -1.2189  0.1071  0.0865
 7622TIP3   OH244356   1.472   3.280  14.255 -0.3098  0.4066  0.9053
 7622TIP3    H144357   1.527   3.233  14.319  0.4191  1.0142  0.7479
 7622TIP3    H244358   1.437   3.212  14.198  0.2222 -0.0088  1.0654
 7623TIP3   OH244359   3.311   4.904   0.762  0.2804 -0.2208  0.2589
 7623TIP3    H144360   3.316   4.999   0.773  2.9025 -0.2137 -0.2960
 7623TIP3    H244361   3.402   4.877   0.748 -0.4097 -2.8160  0.3251
 7624TIP3   OH244362   2.394   0.641   3.056  0.5453 -1.4401 -0.7390
 7624TIP3    H144363   2.340   0.610   3.129  1.2494 -0.2463  0.3228
 7624TIP3    H244364   2.348   0.718   3.023 -0.1814 -2.4043 -2.1199
 7625TIP3   OH244365   1.203   4.693  13.554  0.6003  0.3538 -0.4438
 7625TIP3    H144366   1.179   4.633  13.483  1.9012 -1.4842  0.5923
 7625TIP3    H244367   1.292   4.721  13.531  0.9643 -0.1247  0.3768
 7626TIP3   OH244368   6.585   3.161  14.649  0.2420  0.1361  0.1605
 7626TIP3    H144369   6.595   3.254  14.672 -0.1572  0.1047  0.4720
 7626TIP3    H244370   6.500   3.137  14.686  0.3222 -0.3412  0.0315
 7627TIP3   OH244371   6.283   6.333   2.411  0.1583 -0.3615  0.1055
 7627TIP3    H144372   6.327   6.284   2.341  0.4166  1.0181 -0.7349
 7627TIP3    H244373   6.236   6.267   2.461 -0.2996 -1.3489 -1.5809
 7628TIP3   OH244374   1.184   3.017   5.384  0.6446 -0.2829 -0.4948
 7628TIP3    H144375   1.132   2.981   5.456  0.2435  0.0765 -0.5990
 7628TIP3    H244376   1.129   3.006   5.307  0.7070  0.1352 -0.5998
 7629TIP3   OH244377   1.803   3.143   2.369 -0.2070  0.0965 -0.0444
 7629TIP3    H144378   1.789   3.238   2.361  1.8754  0.4632  0.1650
 7629TIP3    H244379   1.887   3.135   2.414 -0.3824 -1.8707  0.0121
 7630TIP3   OH244380   5.989   0.169   2.578  0.2161  0.1874  0.3664
 7630TIP3    H144381   6.006   0.085   2.535  2.0489  0.0960  1.1775
 7630TIP3    H244382   5.912   0.153   2.633 -0.1530 -0.6104 -0.3578
 7631TIP3   OH244383   6.685   3.567   3.286 -0.5157  0.1613  0.2419
 7631TIP3    H144384   6.673   3.586   3.379 -2.2806 -1.0094  0.2883
 7631TIP3    H244385   6.653   3.477   3.276 -0.6830  0.3981 -1.5648
 7632TIP3   OH244386   6.238   1.397   2.807  0.1157  0.0626  0.3588
 7632TIP3    H144387   6.161   1.360   2.764  0.2549  0.1157  0.0661
 7632TIP3    H244388   6.300   1.324   2.812  0.5354  0.3461 -0.5569
 7633TIP3   OH244389   1.230   1.015   4.370  0.2612  0.0366 -0.2383
 7633TIP3    H144390   1.201   0.982   4.286  0.8138 -2.5074  0.4704
 7633TIP3    H244391   1.225   0.940   4.429  3.3388  0.7094  1.1206
 7634TIP3   OH244392   1.952   3.220  14.655 -0.1530  0.2006  0.4407
 7634TIP3    H144393   2.013   3.243  14.726 -1.5576  0.9090  1.4574
 7634TIP3    H244394   2.006   3.172  14.593  1.3282  0.3048  1.5789
 7635TIP3   OH244395   5.523   2.745   4.459 -0.1392  0.2908  0.3410
 7635TIP3    H144396   5.604   2.783   4.426 -0.6171  1.3786  0.3735
 7635TIP3    H244397   5.522   2.766   4.552  0.3344 -1.1933  0.7046
 7636TIP3   OH244398   3.143   3.060   4.375  0.5748 -0.1919  0.0428
 7636TIP3    H144399   3.205   2.988   4.366  0.8621  0.0796 -0.1656
 7636TIP3    H244400   3.133   3.073   4.469  0.4793 -0.5405  0.0803
 7637TIP3   OH244401   4.645   6.319   2.892 -0.0522  0.0848  0.6619
 7637TIP3    H144402   4.726   6.290   2.934  1.1663  0.9234 -0.9916
 7637TIP3    H244403   4.666   6.405   2.856 -0.5131 -1.0819 -2.8081
 7638TIP3   OH244404   5.587   1.228   1.288  0.1459 -0.1809  0.0435
 7638TIP3    H144405   5.659   1.168   1.308  0.9603  1.0914  1.1522
 7638TIP3    H244406   5.617   1.276   1.211  0.5376  0.4006  0.5495
 7639TIP3   OH244407   2.695   4.943  12.544  0.4430 -0.8305  0.2262
 7639TIP3    H144408   2.758   4.973  12.610 -0.7590  0.2757  0.9216
 7639TIP3    H244409   2.624   4.905  12.595 -0.4330 -0.1003 -0.4122
 7640TIP3   OH244410   3.950   0.689  15.862 -0.0534  0.2402  0.3732
 7640TIP3    H144411   4.025   0.712  15.807 -0.2577 -0.1520 -0.0678
 7640TIP3    H244412   3.886   0.652  15.802  0.6477 -2.4934  1.1772
 7641TIP3   OH244413   3.496   0.420   5.146 -0.3009  0.4088  0.4121
 7641TIP3    H144414   3.469   0.498   5.195  1.4310  1.5087 -0.3023
 7641TIP3    H244415   3.476   0.440   5.055 -0.9833 -0.5242  0.3353
 7642TIP3   OH244416   6.713   5.293   5.074  0.4191  0.6566  0.0825
 7642TIP3    H144417   6.701   5.381   5.037 -0.5060  0.2652 -0.5736
 7642TIP3    H244418   6.772   5.307   5.148  1.8997  1.5565 -1.1812
 7643TIP3   OH244419   6.246   5.421   5.691  0.0589 -0.2005 -0.0291
 7643TIP3    H144420   6.180   5.408   5.759  1.2514 -0.1708  1.1634
 7643TIP3    H244421   6.196   5.454   5.616 -1.0370  1.6341  1.4167
 7644TIP3   OH244422   0.072   0.886   3.874 -0.4810  0.2028 -0.5068
 7644TIP3    H144423  -0.010   0.862   3.830  0.2806  1.1719 -2.6279
 7644TIP3    H244424   0.140   0.836   3.829  0.0261 -2.0336  2.4473
 7645TIP3   OH244425   6.132   0.313  13.993 -0.4190 -0.4992 -0.2703
 7645TIP3    H144426   6.193   0.297  13.921  1.8678  1.1998  1.1547
 7645TIP3    H244427   6.100   0.227  14.016  0.0074 -1.2571 -2.2638
 7646TIP3   OH244428   0.528   3.533  15.247 -0.3275 -0.3936  0.0282
 7646TIP3    H144429   0.579   3.599  15.198  0.0152 -0.9131 -0.3218
 7646TIP3    H244430   0.465   3.500  15.183 -0.6988 -0.2046  0.2883
 7647TIP3   OH244431   2.200   1.565   0.267 -0.5259 -0.1084  0.4486
 7647TIP3    H144432   2.190   1.619   0.346 -1.2801 -0.1774  0.4044
 7647TIP3    H244433   2.190   1.475   0.299  1.8033 -0.3450  0.7121
 7648TIP3   OH244434   3.839   1.834   0.834 -0.0016  0.0608 -0.0935
 7648TIP3    H144435   3.794   1.756   0.868 -4.3986  1.2700 -2.4451
 7648TIP3    H244436   3.867   1.809   0.746  0.0231  0.6562 -0.2571
 7649TIP3   OH244437   0.132   5.833  11.440 -0.2795 -0.7711  0.0128
 7649TIP3    H144438   0.136   5.781  11.520 -0.8065  0.4176  0.8455
 7649TIP3    H244439   0.223   5.863  11.427 -0.4293  0.1999  1.0056
 7650TIP3   OH244440   0.087   6.535   1.905  0.0563  0.3078 -1.2179
 7650TIP3    H144441   0.129   6.546   1.819 -0.9684  0.5674 -1.7057
 7650TIP3    H244442   0.097   6.620   1.948 -0.9433  0.7510 -1.8052
 7651TIP3   OH244443   5.411   3.759   3.864 -0.1402 -0.4651  0.2439
 7651TIP3    H144444   5.378   3.831   3.918  0.1346  0.3797 -0.6887
 7651TIP3    H244445   5.333   3.709   3.841 -0.2724 -0.8019  1.3379
 7652TIP3   OH244446   4.601   1.199  15.639 -0.4003  0.5653 -0.1993
 7652TIP3    H144447   4.674   1.260  15.653  1.3329 -1.0277 -1.8231
 7652TIP3    H244448   4.641   1.113  15.638 -2.4689 -0.4611 -0.2550
 7653TIP3   OH244449   6.847   1.137   4.678  0.3150  0.0878 -0.3424
 7653TIP3    H144450   6.807   1.051   4.663 -0.3818  0.3199  0.1582
 7653TIP3    H244451   6.847   1.147   4.773 -2.3843  1.8961 -0.4198
 7654TIP3   OH244452   5.399   6.552  13.915 -0.0630  0.2706 -0.0243
 7654TIP3    H144453   5.472   6.578  13.971  1.1241  0.5530 -1.6156
 7654TIP3    H244454   5.352   6.633  13.897  0.3046  0.3918 -0.4475
 7655TIP3   OH244455   2.597   0.124   3.399  0.2928  0.7826 -0.0474
 7655TIP3    H144456   2.586   0.124   3.303  0.6505  0.1216 -0.0894
 7655TIP3    H244457   2.691   0.132   3.412  0.4137 -0.7976  0.2180
 7656TIP3   OH244458   4.879   4.478   0.135  0.2701  0.7688 -0.6851
 7656TIP3    H144459   4.875   4.570   0.111  3.9387  1.4409  0.6119
 7656TIP3    H244460   4.951   4.442   0.083  1.3859 -0.3355  1.4493
 7657TIP3   OH244461   2.165   2.062  10.846 -0.6765 -0.6023  0.1388
 7657TIP3    H144462   2.096   2.013  10.801 -0.7922 -0.9766  0.7105
 7657TIP3    H244463   2.226   1.995  10.875  1.3823 -0.1126 -2.6736
 7658TIP3   OH244464   0.286   4.714   3.010  0.6669  0.0493 -0.2317
 7658TIP3    H144465   0.374   4.741   3.034  0.9606 -1.1361  0.0869
 7658TIP3    H244466   0.280   4.622   3.037 -0.0749 -0.4096 -1.8156
 7659TIP3   OH244467   1.579   4.651   3.048  0.0578  0.6061  0.1068
 7659TIP3    H144468   1.494   4.647   3.093 -1.4994  0.6153 -2.6415
 7659TIP3    H244469   1.608   4.741   3.060 -1.1806  1.0868 -0.3512
 7660TIP3   OH244470   0.534   6.717  15.705  0.5782  0.0562  0.3796
 7660TIP3    H144471   0.595   6.644  15.711  0.6315  0.0513 -0.1453
 7660TIP3    H244472   0.464   6.685  15.647  0.4882  0.3396  0.3308
 7661TIP3   OH244473   2.418   6.740  16.825 -0.4525  0.0089 -0.3570
 7661TIP3    H144474   2.467   6.746  16.742  0.3712  0.4683  0.1472
 7661TIP3    H244475   2.475   6.688  16.882 -0.1677  1.1992  0.4901
 7662TIP3   OH244476   0.068   1.524  15.738 -0.3496 -0.0847 -0.7320
 7662TIP3    H144477   0.015   1.460  15.786 -0.6224 -0.7251 -1.8610
 7662TIP3    H244478   0.153   1.522  15.781 -1.1934  0.9703  1.1288
 7663TIP3   OH244479   5.761   0.168   1.483  0.5565  0.6679  0.0446
 7663TIP3    H144480   5.698   0.240   1.489  0.1795  0.3797 -0.3221
 7663TIP3    H244481   5.785   0.149   1.573 -0.9687 -0.1401  0.3218
 7664TIP3   OH244482   0.821   4.675   4.534 -0.0665  0.1803 -0.8049
 7664TIP3    H144483   0.859   4.591   4.508 -2.4502 -0.8698 -1.1623
 7664TIP3    H244484   0.815   4.725   4.452  0.8462  0.5346 -0.6770
 7665TIP3   OH244485   3.968   1.734  16.048  0.5503  0.2972 -0.3265
 7665TIP3    H144486   4.010   1.798  15.991  1.3805 -0.3491 -0.4483
 7665TIP3    H244487   3.882   1.773  16.068 -0.2500  0.0559 -2.8992
 7666TIP3   OH244488   0.081   5.293  15.638  0.3400  0.1214 -0.8941
 7666TIP3    H144489   0.137   5.323  15.566  0.7106 -0.6789 -0.9501
 7666TIP3    H244490   0.142   5.276  15.710  0.1389 -0.5045 -0.8681
 7667TIP3   OH244491   2.906   4.785  15.091  0.3646 -0.3404  0.1596
 7667TIP3    H144492   2.870   4.698  15.078  2.6888 -1.4610  0.6962
 7667TIP3    H244493   2.875   4.811  15.178 -1.4281  0.0161 -0.5279
 7668TIP3   OH244494   2.885   6.400   4.027 -0.2005 -0.1110 -0.6712
 7668TIP3    H144495   2.958   6.415   3.967 -0.6157  0.3664 -1.0589
 7668TIP3    H244496   2.877   6.305   4.031  0.8764 -0.2017 -0.0963
 7669TIP3   OH244497   5.956   6.763  15.843 -0.6124 -0.2971 -0.2421
 7669TIP3    H144498   5.977   6.778  15.751  1.9126  1.2952  0.4800
 7669TIP3    H244499   5.948   6.852  15.880  0.5489 -0.8643  1.4770
 7670TIP3   OH244500   3.995   1.947  12.109 -0.2898  0.3071 -0.0280
 7670TIP3    H144501   3.919   2.006  12.111  0.9478  2.0003  1.5175
 7670TIP3    H244502   4.007   1.926  12.017 -1.5462  1.4812 -0.4928
 7671TIP3   OH244503   1.227   3.284   5.458  0.0905  0.4879 -0.0247
 7671TIP3    H144504   1.198   3.194   5.446  1.1618  0.0528  0.5083
 7671TIP3    H244505   1.320   3.283   5.436  0.7454  0.8894  2.3955
 7672TIP3   OH244506   6.335   5.149   4.469 -0.4479  0.4027  0.4176
 7672TIP3    H144507   6.415   5.169   4.420 -0.3476  2.1343  1.2053
 7672TIP3    H244508   6.365   5.108   4.549 -0.3724  0.5517  0.4670
 7673TIP3   OH244509   4.510   6.209   2.165  0.1085  0.6620  0.5875
 7673TIP3    H144510   4.453   6.140   2.199  0.9855 -1.0114 -1.1254
 7673TIP3    H244511   4.590   6.202   2.218  0.3864 -0.0413  0.1081
 7674TIP3   OH244512   4.310   3.970  15.672  0.0500 -0.0237  0.1919
 7674TIP3    H144513   4.278   4.055  15.700  0.2551 -0.2030  1.0006
 7674TIP3    H244514   4.235   3.929  15.629 -0.4605  0.0175  1.0331
 7675TIP3   OH244515   4.447   1.508   5.309  0.1756  0.1202 -0.7337
 7675TIP3    H144516   4.441   1.600   5.335  0.1276 -0.6159  2.2126
 7675TIP3    H244517   4.384   1.499   5.237 -1.0353  2.0136  0.0065
 7676TIP3   OH244518   1.112   1.427  12.935  0.0124  0.1952 -0.3649
 7676TIP3    H144519   1.111   1.503  12.877 -0.3312  1.2978  1.0250
 7676TIP3    H244520   1.153   1.460  13.016 -0.1521 -1.1016  0.2593
 7677TIP3   OH244521   4.266   1.210   6.127 -0.0384 -0.0520 -0.3170
 7677TIP3    H144522   4.350   1.170   6.150  0.3162  0.0514 -1.3836
 7677TIP3    H244523   4.287   1.274   6.059 -1.2007 -1.3498 -1.9782
 7678TIP3   OH244524   6.005   0.502  16.940  0.0010 -0.3475  0.5409
 7678TIP3    H144525   6.069   0.473  17.005  0.6449  2.0648  1.0537
 7678TIP3    H244526   5.925   0.520  16.990 -0.0167 -0.0733  0.4155
 7679TIP3   OH244527   1.578   0.571   2.851  0.2759 -0.5072 -0.3295
 7679TIP3    H144528   1.501   0.625   2.870  0.8227  0.1808 -0.0353
 7679TIP3    H244529   1.640   0.591   2.921  0.8402 -0.8293 -0.7255
 7680TIP3   OH244530   0.266   3.640  12.439  0.5871 -0.0045  0.8763
 7680TIP3    H144531   0.306   3.573  12.383  0.2119  1.5088 -1.3250
 7680TIP3    H244532   0.333   3.660  12.505  2.7335  0.9829 -1.4419
 7681TIP3   OH244533   2.356   0.064  12.390 -0.7114 -0.3315  0.5690
 7681TIP3    H144534   2.303   0.143  12.392 -0.5967 -0.0543 -2.3297
 7681TIP3    H244535   2.293  -0.008  12.395 -1.0101 -0.0383  1.0028
 7682TIP3   OH244536   0.194   1.477  13.771  0.5472 -0.3243 -0.4470
 7682TIP3    H144537   0.187   1.444  13.681  0.7288 -0.2865 -0.4751
 7682TIP3    H244538   0.242   1.409  13.818 -0.1087 -0.6354 -0.2275
 7683TIP3   OH244539   4.916   1.481  11.988 -0.4363  0.2880  0.2784
 7683TIP3    H144540   4.955   1.566  12.011 -0.4031  0.7346 -1.2859
 7683TIP3    H244541   4.908   1.435  12.071  0.6308  1.3750  1.0239
 7684TIP3   OH244542   6.621   0.226  14.414 -0.4357  0.0306 -0.2948
 7684TIP3    H144543   6.593   0.290  14.349 -0.2254  2.5946  1.9330
 7684TIP3    H244544   6.716   0.226  14.410 -0.4270  0.0545 -0.1205
 7685TIP3   OH244545   5.452   1.628  11.333 -0.9174 -0.9749  0.1341
 7685TIP3    H144546   5.462   1.549  11.280  1.4501 -0.6071 -0.0976
 7685TIP3    H244547   5.456   1.700  11.269  1.2894 -0.5508  0.6735
 7686TIP3   OH244548   1.134   1.500   5.154  0.5142 -0.2228  1.2717
 7686TIP3    H144549   1.089   1.443   5.217  1.4310 -1.5145  0.7918
 7686TIP3    H244550   1.072   1.572   5.139 -1.7472 -2.2752  0.0875
 7687TIP3   OH244551   1.189   2.734  12.837 -0.2380 -0.3554 -0.1143
 7687TIP3    H144552   1.213   2.824  12.818 -2.1894 -0.0897 -1.5292
 7687TIP3    H244553   1.181   2.692  12.752 -2.9392 -0.8434  0.2758
 7688TIP3   OH244554   0.819   5.104   0.361  0.1748  0.1097 -0.4884
 7688TIP3    H144555   0.846   5.014   0.377 -0.8851  0.0854  1.5214
 7688TIP3    H244556   0.891   5.156   0.398  0.8584  0.1166 -1.7858
 7689TIP3   OH244557   4.194   1.754   4.612 -0.0283  0.5245  0.1528
 7689TIP3    H144558   4.130   1.682   4.604  0.0380  0.4444  0.3522
 7689TIP3    H244559   4.165   1.818   4.547  0.4254 -0.0669 -0.6631
 7690TIP3   OH244560   4.037   3.102   0.664  0.1539 -0.2271 -0.6624
 7690TIP3    H144561   3.982   3.024   0.674 -0.7736  0.3123 -1.3368
 7690TIP3    H244562   4.111   3.087   0.722  0.5930 -2.1374 -1.6101
 7691TIP3   OH244563   0.687   5.510   4.037 -0.6031 -0.1857  0.1009
 7691TIP3    H144564   0.761   5.534   4.094 -1.8802  3.5726  0.4203
 7691TIP3    H244565   0.706   5.554   3.954 -0.6539 -2.4643 -1.2005
 7692TIP3   OH244566   6.151   2.763   0.208  0.3962  0.1154  0.1329
 7692TIP3    H144567   6.222   2.815   0.247  1.6772  0.0449 -1.9341
 7692TIP3    H244568   6.113   2.716   0.281  1.0236  1.8524  1.6601
 7693TIP3   OH244569   4.921   2.246   5.854  0.2899  0.4851 -0.0224
 7693TIP3    H144570   4.978   2.303   5.905 -0.7413  0.3814  1.2951
 7693TIP3    H244571   4.916   2.288   5.768  0.7011  1.5859  0.4726
 7694TIP3   OH244572   1.780   5.493   3.002 -0.1261  0.2975 -0.7237
 7694TIP3    H144573   1.803   5.443   3.081 -1.3754  1.1900  0.2451
 7694TIP3    H244574   1.863   5.502   2.955  0.6149 -0.4077  0.3952
 7695TIP3   OH244575   0.105   1.531   5.386 -0.3084  0.9072 -0.0639
 7695TIP3    H144576   0.030   1.517   5.444 -1.8067 -0.0397 -2.0735
 7695TIP3    H244577   0.070   1.585   5.315  0.7751  0.1040 -1.2594
 7696TIP3   OH244578   3.101   4.058   4.887  0.5266 -0.1059 -0.4229
 7696TIP3    H144579   3.178   4.081   4.938  0.0831  1.5013 -0.4095
 7696TIP3    H244580   3.026   4.081   4.943  0.0433 -0.2949 -0.9721
 7697TIP3   OH244581   4.139   3.400  13.245  0.5995 -0.5724  0.6162
 7697TIP3    H144582   4.100   3.336  13.304  1.6484 -0.6861  1.2020
 7697TIP3    H244583   4.170   3.470  13.303  0.5255 -0.0884  0.0859
 7698TIP3   OH244584   3.760   4.193   4.648 -0.5976 -0.1598  0.3671
 7698TIP3    H144585   3.848   4.161   4.667 -0.7876 -0.1984  1.2241
 7698TIP3    H244586   3.702   4.121   4.675 -0.8604 -0.5695 -1.1756
 7699TIP3   OH244587   4.035   2.503   0.549  0.0928  0.1091  0.0055
 7699TIP3    H144588   3.991   2.495   0.633 -2.9386  1.5656 -1.2929
 7699TIP3    H244589   4.022   2.417   0.507  0.2876 -0.1271  0.4278
 7700TIP3   OH244590   3.873   2.278   2.999 -0.4667 -0.2372 -0.1695
 7700TIP3    H144591   3.952   2.253   3.045  1.3433 -0.5769 -3.1627
 7700TIP3    H244592   3.830   2.195   2.977 -1.1674 -0.0924  0.6054
 7701TIP3   OH244593   0.278   4.997   3.221 -0.4291  0.3487  0.0302
 7701TIP3    H144594   0.224   4.933   3.174  2.0223 -0.5747 -1.7794
 7701TIP3    H244595   0.326   4.945   3.285 -0.4478  0.8534  0.4544
 7702TIP3   OH244596   0.631   1.650   5.839  0.1835  0.5350  0.1830
 7702TIP3    H144597   0.594   1.639   5.927 -0.5653 -0.9632 -0.2769
 7702TIP3    H244598   0.671   1.565   5.819 -2.2873 -0.2472 -2.0519
 7703TIP3   OH244599   3.179   3.037  16.634 -0.2105 -0.5707 -0.4492
 7703TIP3    H144600   3.125   3.098  16.584  0.1504  1.0361  1.0206
 7703TIP3    H244601   3.117   2.986  16.686 -0.4181  1.2179  1.1761
 7704TIP3   OH244602   0.303   6.611  15.622  0.0428  0.3373 -0.2419
 7704TIP3    H144603   0.252   6.556  15.562 -1.0730 -0.7708  1.6230
 7704TIP3    H244604   0.265   6.699  15.612 -0.5195  0.0453 -0.7278
 7705TIP3   OH244605   2.707   1.610   1.047 -0.1736  0.1973 -0.0971
 7705TIP3    H144606   2.798   1.634   1.032 -0.2775  1.2313  0.7839
 7705TIP3    H244607   2.677   1.574   0.963  1.8999 -3.2092  0.4393
 7706TIP3   OH244608   4.675   6.557  17.126 -0.5352 -0.3813 -0.2673
 7706TIP3    H144609   4.621   6.484  17.158 -0.8500 -0.9443 -1.9403
 7706TIP3    H244610   4.738   6.515  17.067  0.0512  0.5799 -0.3389
 7707TIP3   OH244611   3.837   0.706   1.119 -0.2759 -0.5435  0.2571
 7707TIP3    H144612   3.921   0.689   1.162  1.1831  0.8466 -1.8721
 7707TIP3    H244613   3.837   0.800   1.104 -1.7429 -0.6848 -0.7668
 7708TIP3   OH244614   6.812   6.537  15.803  0.3415  0.3488 -0.3901
 7708TIP3    H144615   6.779   6.626  15.807  0.7144  0.6119 -2.2908
 7708TIP3    H244616   6.740   6.482  15.834  0.4324  1.3145  1.7383
 7709TIP3   OH244617   0.667   0.061  11.311 -0.2764 -0.0192 -0.0633
 7709TIP3    H144618   0.713   0.126  11.364  1.5991 -0.3516 -1.1835
 7709TIP3    H244619   0.636   0.110  11.235 -0.3568 -0.0982 -0.0805
 7710TIP3   OH244620   2.411   5.407   6.044  0.2749  0.6012 -0.2111
 7710TIP3    H144621   2.499   5.443   6.035  1.6124 -0.8196  4.4265
 7710TIP3    H244622   2.357   5.481   6.072  0.3938  1.0820 -1.2102
 7711TIP3   OH244623   2.627   5.910   0.666  0.1859 -0.3037  0.2735
 7711TIP3    H144624   2.572   5.988   0.660 -1.7541 -1.6574 -1.1804
 7711TIP3    H244625   2.716   5.943   0.657 -0.6154  1.6690 -1.5018
 7712TIP3   OH244626   3.295   3.016  14.848 -0.5620  0.3418  0.4301
 7712TIP3    H144627   3.355   2.948  14.819 -1.2482  0.0226 -0.2878
 7712TIP3    H244628   3.351   3.081  14.890  0.4199  0.5748 -1.1682
 7713TIP3   OH244629   6.434   5.648  12.736 -0.4187 -0.2101 -0.4583
 7713TIP3    H144630   6.521   5.642  12.777 -0.3027 -2.9331 -0.8872
 7713TIP3    H244631   6.452   5.651  12.642 -0.7737  0.6093 -0.5008
 7714TIP3   OH244632   2.689   0.761  17.026 -0.3426 -0.3408  0.3769
 7714TIP3    H144633   2.750   0.835  17.025  0.4799 -1.0056 -0.4088
 7714TIP3    H244634   2.634   0.774  16.949  0.4792 -1.0622 -0.3631
 7715TIP3   OH244635   4.808   5.129   4.781  0.7806 -0.4628  0.5356
 7715TIP3    H144636   4.834   5.196   4.718  1.4456 -1.1808  0.0256
 7715TIP3    H244637   4.716   5.114   4.763  0.6453  0.2585  0.6049
 7716TIP3   OH244638   1.709   2.904  11.034 -0.3301  0.7168 -0.0915
 7716TIP3    H144639   1.661   2.881  11.114 -1.1671  0.6578 -0.5975
 7716TIP3    H244640   1.766   2.828  11.019 -3.2633 -1.3354 -1.8946
 7717TIP3   OH244641   3.640   3.624  16.908  0.6370  0.2677  0.1409
 7717TIP3    H144642   3.603   3.609  16.995  2.6445 -0.7296  0.8932
 7717TIP3    H244643   3.565   3.649  16.854 -1.1007 -1.5559  1.5405
 7718TIP3   OH244644   5.570   5.255  13.258  0.1800  0.3822  0.2697
 7718TIP3    H144645   5.569   5.230  13.165 -0.0263 -3.3833  1.1098
 7718TIP3    H244646   5.485   5.296  13.272  0.6934  2.1629 -1.3957
 7719TIP3   OH244647   1.355   1.113  15.086  0.5724 -0.0792 -0.9066
 7719TIP3    H144648   1.343   1.164  15.166  0.5696  0.4092 -1.2214
 7719TIP3    H244649   1.362   1.177  15.016  0.8827 -0.4934 -1.2659
 7720TIP3   OH244650   0.871   5.912   5.432 -0.2143  0.2012  0.5705
 7720TIP3    H144651   0.818   5.966   5.491 -0.3959  0.7383 -0.0707
 7720TIP3    H244652   0.865   5.956   5.347 -2.0649 -1.8872 -0.4994
 7721TIP3   OH244653   2.317   2.085   2.739 -0.2114  0.1367 -0.0161
 7721TIP3    H144654   2.253   2.133   2.791 -0.2650  1.3113 -1.1042
 7721TIP3    H244655   2.264   2.024   2.686 -0.2373 -0.3771  0.5952
 7722TIP3   OH244656   4.678   4.761   0.788  0.0326 -0.5148  0.3813
 7722TIP3    H144657   4.671   4.697   0.858  0.1120 -2.2499 -1.1080
 7722TIP3    H244658   4.591   4.764   0.749  0.5310 -1.3143 -0.8522
 7723TIP3   OH244659   5.380   3.198  16.648 -0.7921  0.7804 -0.1036
 7723TIP3    H144660   5.329   3.124  16.614  0.6590  0.6508 -2.2466
 7723TIP3    H244661   5.451   3.157  16.697 -0.4621  0.7631 -0.5860
 7724TIP3   OH244662   3.013   5.263  11.625 -0.0662 -0.2688 -0.2022
 7724TIP3    H144663   2.994   5.329  11.558  0.1375  0.2357  0.2285
 7724TIP3    H244664   2.961   5.290  11.700 -0.1075 -0.6952 -0.0766
 7725TIP3   OH244665   3.586   2.540  11.950 -0.4916 -0.1011  0.0296
 7725TIP3    H144666   3.665   2.496  11.982 -1.3731 -1.6327  0.1843
 7725TIP3    H244667   3.610   2.633  11.948  0.3459 -0.1628  2.9480
 7726TIP3   OH244668   5.151   0.046   2.202 -0.0393  0.5080 -0.3315
 7726TIP3    H144669   5.155  -0.049   2.215  1.2265  0.4267 -1.1139
 7726TIP3    H244670   5.139   0.056   2.108 -0.0101  1.1298 -0.2700
 7727TIP3   OH244671   3.338   2.704   4.613 -0.3285  0.1969 -0.4232
 7727TIP3    H144672   3.407   2.739   4.669 -1.1382  1.5619 -0.2339
 7727TIP3    H244673   3.257   2.723   4.660 -0.8224 -2.7014  0.0818
 7728TIP3   OH244674   6.637   4.632   5.908  0.5936 -0.1912 -0.5545
 7728TIP3    H144675   6.554   4.607   5.867 -0.4816  0.6529  0.9886
 7728TIP3    H244676   6.693   4.555   5.897 -0.7420 -1.1728 -0.7571
 7729TIP3   OH244677   0.512   1.889  13.260 -0.4773  0.0018  0.0215
 7729TIP3    H144678   0.511   1.900  13.165  0.4448  0.4549  0.0569
 7729TIP3    H244679   0.420   1.894  13.285 -1.0538 -2.7151 -1.1161
 7730TIP3   OH244680   3.130   5.604  11.968 -0.6430 -0.1637 -0.2407
 7730TIP3    H144681   3.203   5.542  11.963 -0.6763 -0.3401  1.1605
 7730TIP3    H244682   3.169   5.689  11.948 -0.4990 -0.5296 -1.6726
 7731TIP3   OH244683   0.696   5.562  10.841 -0.0672 -0.0763  0.5322
 7731TIP3    H144684   0.687   5.544  10.748  0.2884  0.5635  0.3661
 7731TIP3    H244685   0.648   5.491  10.884 -1.2050  0.2406 -0.1663
 7732TIP3   OH244686   0.579   2.210  15.629 -0.4814 -0.2466  0.1289
 7732TIP3    H144687   0.548   2.204  15.539  2.1582 -3.2238 -0.7738
 7732TIP3    H244688   0.642   2.282  15.628  1.3484 -1.7660 -1.1604
 7733TIP3   OH244689   0.113   6.307   5.228  0.5279  0.2706 -0.0553
 7733TIP3    H144690   0.029   6.261   5.233  1.2205 -0.9819  0.6169
 7733TIP3    H244691   0.103   6.382   5.287  0.2971 -0.5845  1.0253
 7734TIP3   OH244692   0.898   2.076   4.833  0.1197  0.2504  0.5404
 7734TIP3    H144693   0.848   2.157   4.821  0.6089  0.5986  0.8094
 7734TIP3    H244694   0.871   2.021   4.760 -1.5570 -0.0482  1.3499
 7735TIP3   OH244695   5.894   4.745  11.693  0.2883  0.1352  0.2429
 7735TIP3    H144696   5.923   4.729  11.783 -0.8140  0.6789  0.7155
 7735TIP3    H244697   5.970   4.723  11.639  1.5048  1.2902  1.4105
 7736TIP3   OH244698   3.211   4.307  15.441 -0.5735 -0.0506  0.2992
 7736TIP3    H144699   3.189   4.234  15.498 -0.1548 -0.7853 -0.4477
 7736TIP3    H244700   3.293   4.342  15.476 -0.5716 -0.1865  0.4294
 7737TIP3   OH244701   5.830   6.661  11.363 -0.0580  0.2384  0.0434
 7737TIP3    H144702   5.849   6.711  11.284 -0.4765 -0.6477 -0.6332
 7737TIP3    H244703   5.735   6.671  11.376  0.0348  0.5378  0.5613
 7738TIP3   OH244704   0.016   4.870  12.243  0.1115  0.1510  0.1163
 7738TIP3    H144705   0.016   4.936  12.173  0.7327  1.0359  0.9270
 7738TIP3    H244706   0.092   4.815  12.223  0.7945  0.9159  0.5451
 7739TIP3   OH244707   4.638   1.952   6.006 -0.3599  0.4169 -0.8268
 7739TIP3    H144708   4.616   1.923   6.095 -1.2964 -0.6869 -1.3842
 7739TIP3    H244709   4.693   2.029   6.019  0.9379 -0.7022  0.7255
 7740TIP3   OH244710   6.207   5.960  13.066 -0.6342  0.0611  0.0228
 7740TIP3    H144711   6.200   6.052  13.041  0.4642 -0.1880 -1.3226
 7740TIP3    H244712   6.188   5.912  12.986  2.0625 -0.7965 -0.2087
 7741TIP3   OH244713   5.275   2.308  16.004 -0.1732  0.0637 -0.4798
 7741TIP3    H144714   5.292   2.401  16.020 -2.2975  0.2278  1.2668
 7741TIP3    H244715   5.315   2.263  16.078 -1.5700 -0.1143  0.1982
 7742TIP3   OH244716   2.463   4.754  12.951 -0.2805  0.4682  0.1890
 7742TIP3    H144717   2.434   4.740  13.042  0.2272  0.4229  0.3467
 7742TIP3    H244718   2.540   4.698  12.942 -0.7623 -0.0926 -0.5013
 7743TIP3   OH244719   3.745   2.959   0.534 -0.3071  0.1327 -0.1534
 7743TIP3    H144720   3.704   2.974   0.619  2.3494  2.3065  0.8754
 7743TIP3    H244721   3.817   2.899   0.553  1.9090  2.6267 -0.2574
 7744TIP3   OH244722   0.381   6.561   1.650  0.2814  0.0411 -0.0823
 7744TIP3    H144723   0.350   6.570   1.560  0.4109 -2.1600 -0.4013
 7744TIP3    H244724   0.468   6.600   1.650  0.3874 -0.1878 -0.9714
 7745TIP3   OH244725   5.221   2.646  17.099  0.0637 -0.0653 -0.1094
 7745TIP3    H144726   5.286   2.576  17.104 -0.9461 -1.0206 -0.0800
 7745TIP3    H244727   5.170   2.627  17.021 -0.1775  0.6925 -0.1495
 7746TIP3   OH244728   5.320   1.923   2.361  0.2671  0.0064  0.1282
 7746TIP3    H144729   5.401   1.973   2.360  0.0446  0.3645 -0.2675
 7746TIP3    H244730   5.277   1.944   2.278 -0.6607  0.5511  0.7190
 7747TIP3   OH244731   3.554   3.351  15.899 -0.3767 -0.1689 -0.6875
 7747TIP3    H144732   3.595   3.438  15.898 -0.5560 -0.0419 -3.1486
 7747TIP3    H244733   3.464   3.367  15.872 -0.7454 -1.0060  0.0040
 7748TIP3   OH244734   4.436   0.876  12.384  0.2612  0.3934  0.3983
 7748TIP3    H144735   4.475   0.856  12.299  1.3389  0.2946  0.8915
 7748TIP3    H244736   4.427   0.792  12.427  1.8057  0.6003  1.2208
 7749TIP3   OH244737   6.530   4.383  11.958  0.1401  0.0915 -0.6226
 7749TIP3    H144738   6.620   4.379  11.991 -0.0542 -0.1943 -0.1137
 7749TIP3    H244739   6.484   4.313  12.005 -0.6722  1.1117  0.1493
 7750TIP3   OH244740   0.582   2.998   2.195  0.2608 -0.0168 -0.0825
 7750TIP3    H144741   0.536   2.915   2.186  0.4192 -0.0224 -0.9237
 7750TIP3    H244742   0.615   2.998   2.284  2.1122 -1.8105 -0.6989
 7751TIP3   OH244743   0.218   1.280   6.450  0.3948 -0.1148  0.0002
 7751TIP3    H144744   0.126   1.302   6.458 -0.1872 -2.4718  0.4340
 7751TIP3    H244745   0.264   1.355   6.489 -1.3108  0.9314  0.1105
 7752TIP3   OH244746   4.969   4.929  15.194  0.3999 -0.1542 -0.4973
 7752TIP3    H144747   4.933   4.880  15.268 -0.4258  0.6024 -0.3791
 7752TIP3    H244748   5.062   4.907  15.193  0.2922 -0.6899  0.3493
 7753TIP3   OH244749   5.408   3.119   0.973  0.2676 -0.8786 -0.3932
 7753TIP3    H144750   5.411   3.039   0.920 -0.7294 -1.4952  0.4404
 7753TIP3    H244751   5.465   3.100   1.047 -0.2302 -0.9519 -0.0263
 7754TIP3   OH244752   4.935   1.962   5.850 -0.4063  0.0398 -0.3899
 7754TIP3    H144753   5.014   1.993   5.895 -0.7534 -0.2486  0.4461
 7754TIP3    H244754   4.879   2.039   5.843  0.4957  0.5790 -2.2565
 7755TIP3   OH244755   5.895   2.050  15.457 -0.1372 -0.3046  0.2227
 7755TIP3    H144756   5.850   1.973  15.423 -0.4690 -0.0808  0.1506
 7755TIP3    H244757   5.943   2.085  15.382 -1.5674  0.6989 -0.2847
 7756TIP3   OH244758   1.172   0.974   5.743  0.6371  0.2709 -0.0520
 7756TIP3    H144759   1.261   0.967   5.777  0.2792 -1.5466  0.6444
 7756TIP3    H244760   1.181   1.023   5.662  2.0293  1.5415  0.8305
 7757TIP3   OH244761   1.829   6.563   3.112  0.1392 -0.1909  0.0349
 7757TIP3    H144762   1.776   6.558   3.192  0.3434 -0.2204  0.1693
 7757TIP3    H244763   1.862   6.474   3.100 -2.1427 -0.9168 -1.6439
 7758TIP3   OH244764   0.158   5.380   3.806 -0.1676 -0.3326  0.2368
 7758TIP3    H144765   0.179   5.469   3.835  0.1659 -0.2889 -0.1276
 7758TIP3    H244766   0.230   5.356   3.748 -0.2484 -0.8464  0.3390
 7759TIP3   OH244767   2.141   2.179   1.903  0.0710 -0.8894  0.6286
 7759TIP3    H144768   2.137   2.086   1.921 -1.0982 -0.8386  0.6659
 7759TIP3    H244769   2.068   2.196   1.844  1.3114 -0.2923 -0.7923
 7760TIP3   OH244770   1.106   5.721  11.838 -0.4231 -0.7339  0.4921
 7760TIP3    H144771   1.065   5.789  11.785  1.9531  0.4035 -0.0066
 7760TIP3    H244772   1.090   5.748  11.929 -1.4216 -0.7522  0.3289
 7761TIP3   OH244773   0.073   1.508   0.268 -0.2202  0.1471 -0.3418
 7761TIP3    H144774   0.109   1.440   0.325  0.2028 -1.1272 -2.0370
 7761TIP3    H244775   0.109   1.488   0.181 -3.1159  0.2221 -1.6758
 7762TIP3   OH244776   3.922   0.917  11.455 -0.2860 -0.1063  0.4046
 7762TIP3    H144777   3.964   0.833  11.439  2.5020  0.9250  1.6422
 7762TIP3    H244778   3.976   0.981  11.408 -1.2105  1.2061  1.0412
 7763TIP3   OH244779   4.585   2.278   4.141 -0.3661 -0.5691 -0.4057
 7763TIP3    H144780   4.505   2.226   4.132  0.7939 -2.6751  0.7844
 7763TIP3    H244781   4.620   2.254   4.226  0.5666  1.8016 -0.0360
 7764TIP3   OH244782   4.747   3.107   1.170  0.3335  0.1475  0.1669
 7764TIP3    H144783   4.729   3.061   1.088 -0.0516  0.8204 -0.1408
 7764TIP3    H244784   4.842   3.103   1.180  0.6044  1.6291 -1.2912
 7765TIP3   OH244785   4.939   4.345  10.500 -0.0861  0.1008 -0.4736
 7765TIP3    H144786   4.864   4.287  10.487 -1.5469  2.1853 -2.1092
 7765TIP3    H244787   5.010   4.304  10.450  0.0609 -2.0868  1.3847
 7766TIP3   OH244788   3.322   3.834  12.208 -0.5381 -0.1629 -0.2914
 7766TIP3    H144789   3.236   3.875  12.217  1.2879  3.7405  3.8593
 7766TIP3    H244790   3.366   3.884  12.140 -0.9540 -1.0468 -1.2327
 7767TIP3   OH244791   6.027   0.093  14.091 -0.4455  0.5497 -0.0295
 7767TIP3    H144792   6.021  -0.002  14.097  0.0336  0.2673 -2.6923
 7767TIP3    H244793   6.041   0.122  14.181 -1.2905 -1.8170  0.9418
 7768TIP3   OH244794   2.083   5.299  12.831  0.2291  0.1255 -0.2040
 7768TIP3    H144795   2.050   5.351  12.904 -0.5704  2.1712 -1.9081
 7768TIP3    H244796   2.037   5.215  12.837  0.2970  0.1896  1.6789
 7769TIP3   OH244797   5.360   6.555  17.060  0.0633  0.2647  0.0964
 7769TIP3    H144798   5.443   6.552  17.109  0.5897  1.8809 -0.6564
 7769TIP3    H244799   5.386   6.562  16.969 -0.9272 -0.6189 -0.2696
 7770TIP3   OH244800   4.337   3.694   0.517  0.3377  0.2190  0.4955
 7770TIP3    H144801   4.397   3.662   0.449  1.1369 -0.8295  1.6517
 7770TIP3    H244802   4.263   3.730   0.468  1.1985  0.1396 -0.9411
 7771TIP3   OH244803   2.587   2.866  11.315 -0.1004  0.0460  1.0043
 7771TIP3    H144804   2.501   2.894  11.287  0.4439 -1.0891 -2.1911
 7771TIP3    H244805   2.571   2.783  11.362 -0.7020 -0.9333 -0.8393
 7772TIP3   OH244806   6.080   2.197  14.234  0.4713 -0.3580 -0.2226
 7772TIP3    H144807   6.068   2.292  14.237  0.7489 -0.3446  1.3272
 7772TIP3    H244808   6.140   2.179  14.306 -0.3011 -1.8105  0.0870
 7773TIP3   OH244809   4.757   6.656  15.574 -0.4340 -0.1218  0.7200
 7773TIP3    H144810   4.834   6.641  15.520 -1.0995 -1.1563  0.0169
 7773TIP3    H244811   4.689   6.685  15.513 -1.0982 -0.9563  1.0372
 7774TIP3   OH244812   1.340   4.744  15.909  0.3390 -0.4135 -0.1174
 7774TIP3    H144813   1.285   4.821  15.921 -1.9223 -1.7456 -1.3589
 7774TIP3    H244814   1.383   4.732  15.994  1.2778  2.5007 -0.0768
 7775TIP3   OH244815   0.739   1.460  11.444  0.4614  0.7923  0.3998
 7775TIP3    H144816   0.758   1.551  11.420  1.7032  0.7449  1.0853
 7775TIP3    H244817   0.651   1.463  11.481 -0.4015  1.3184 -1.5663
 7776TIP3   OH244818   3.732   0.620   0.388  0.0433  0.0033  0.4738
 7776TIP3    H144819   3.812   0.567   0.390  0.3910  0.4373 -0.6896
 7776TIP3    H244820   3.729   0.662   0.473  1.4736  0.5691  0.2820
 7777TIP3   OH244821   2.099   2.546   2.712  0.1597 -0.4180  0.5027
 7777TIP3    H144822   2.140   2.607   2.652  2.3446 -0.4998  1.8227
 7777TIP3    H244823   2.107   2.587   2.798 -2.9476 -0.2649  0.8365
 7778TIP3   OH244824   6.433   0.959   4.059 -0.2539  0.6336 -0.2757
 7778TIP3    H144825   6.343   0.934   4.079 -0.9779  1.7968 -1.8382
 7778TIP3    H244826   6.482   0.936   4.138 -1.5248 -1.8563 -0.1171
 7779TIP3   OH244827   1.921   4.810   0.026  0.2241 -0.2725  0.5568
 7779TIP3    H144828   1.988   4.743   0.014  0.3119  0.0989 -1.3452
 7779TIP3    H244829   1.918   4.824   0.121  1.3860 -1.7363  0.8542
 7780TIP3   OH244830   4.649   0.356  11.582 -0.0762  0.6741 -0.1048
 7780TIP3    H144831   4.616   0.266  11.582 -1.7323  1.1988  1.9037
 7780TIP3    H244832   4.586   0.404  11.528 -0.5341  1.0193  0.7224
 7781TIP3   OH244833   3.744   2.047  10.802  0.1630  0.1585 -0.7779
 7781TIP3    H144834   3.712   1.963  10.837  2.8273 -0.8226 -0.5198
 7781TIP3    H244835   3.751   2.032  10.708  1.1143 -0.1096 -0.6742
 7782TIP3   OH244836   6.426   5.951  12.744  0.0999  0.0650 -0.2549
 7782TIP3    H144837   6.467   5.970  12.829  2.0953  0.5423 -1.2636
 7782TIP3    H244838   6.492   5.902  12.696 -1.1669 -0.5752 -1.4073
 7783TIP3   OH244839   3.736   2.542  11.589 -1.1759 -0.0458 -0.2903
 7783TIP3    H144840   3.667   2.478  11.608 -2.4854  1.2344 -0.5150
 7783TIP3    H244841   3.764   2.573  11.675 -1.1901 -0.2593 -0.2089
 7784TIP3   OH244842   2.470   4.343   2.064 -0.0485 -0.1288 -0.1829
 7784TIP3    H144843   2.378   4.347   2.089  0.5354 -0.5104  2.3589
 7784TIP3    H244844   2.492   4.432   2.036 -1.4032 -0.2877 -1.8881
 7785TIP3   OH244845   0.249   3.045  10.960 -0.0503  0.3341  0.2592
 7785TIP3    H144846   0.258   2.965  10.908 -2.0735 -0.4709  1.0588
 7785TIP3    H244847   0.275   3.115  10.900  0.9174 -0.8272 -0.7342
 7786TIP3   OH244848   4.465   4.000  16.137  0.2969  0.5692 -0.3208
 7786TIP3    H144849   4.437   4.091  16.148 -0.2696  0.3445  0.1719
 7786TIP3    H244850   4.517   3.982  16.215 -0.7794  0.0498  0.3124
 7787TIP3   OH244851   6.640   4.327   6.253 -0.1343  0.0094 -0.2343
 7787TIP3    H144852   6.694   4.401   6.280  0.6806 -0.6170 -0.1258
 7787TIP3    H244853   6.593   4.358   6.176 -1.2107  1.2551  0.8641
 7788TIP3   OH244854   6.374   1.851   3.147  0.5501  0.3397 -0.6069
 7788TIP3    H144855   6.432   1.864   3.222 -0.1802  0.1984  0.0008
 7788TIP3    H244856   6.318   1.777   3.173  1.5131 -0.9468 -2.0514
 7789TIP3   OH244857   3.363   4.999  11.903  0.1503 -0.3895 -0.0282
 7789TIP3    H144858   3.387   5.019  11.994  1.2398  2.3677 -0.7934
 7789TIP3    H244859   3.340   5.084  11.866  1.2732 -1.1734 -2.7425
 7790TIP3   OH244860   0.205   0.316  14.044  0.2200 -0.1394  0.0272
 7790TIP3    H144861   0.198   0.410  14.025 -2.6589 -0.5169 -1.3665
 7790TIP3    H244862   0.233   0.277  13.961  0.5935 -0.5821  0.3613
 7791TIP3   OH244863   6.025   1.599  14.779  0.0257 -0.4434 -0.7149
 7791TIP3    H144864   5.939   1.635  14.755  0.5068  0.1182 -1.6443
 7791TIP3    H244865   6.084   1.631  14.711  1.1676 -0.0085  0.4420
 7792TIP3   OH244866   6.777   6.156  14.108 -0.5084  0.4566 -0.2109
 7792TIP3    H144867   6.701   6.100  14.091  1.3388 -2.4164  0.2615
 7792TIP3    H244868   6.806   6.185  14.022 -0.9306 -0.1352 -0.5581
 7793TIP3   OH244869   1.589   0.257  13.281 -0.1468  0.3170 -0.0335
 7793TIP3    H144870   1.560   0.261  13.190 -1.4340  0.7572  0.3825
 7793TIP3    H244871   1.682   0.236  13.275 -0.4976 -1.0188 -1.4167
 7794TIP3   OH244872   5.259   4.157  10.359  0.8891 -0.2908 -0.5075
 7794TIP3    H144873   5.202   4.114  10.423  0.1361  0.6091 -0.5549
 7794TIP3    H244874   5.278   4.088  10.295 -0.1925 -0.6040 -0.5118
 7795TIP3   OH244875   2.470   0.305   3.589  0.2636 -0.0825  0.2317
 7795TIP3    H144876   2.510   0.271   3.669  1.7245  1.1630  0.0882
 7795TIP3    H244877   2.496   0.242   3.521  2.2271  0.7742  0.1153
 7796TIP3   OH244878   4.219   3.749   4.054  0.7854 -0.3346 -0.2780
 7796TIP3    H144879   4.277   3.684   4.015  2.0738  0.3270  0.4878
 7796TIP3    H244880   4.213   3.819   3.989  1.3662 -0.1209 -0.1096
 7797TIP3   OH244881   6.007   1.625  10.983 -0.5027  0.5338  0.1714
 7797TIP3    H144882   6.064   1.675  10.925  2.0583 -2.0999  0.2000
 7797TIP3    H244883   5.936   1.594  10.927  0.8087 -0.2412 -1.1192
 7798TIP3   OH244884   2.079   0.119  16.342 -0.2327  0.0554 -0.3126
 7798TIP3    H144885   2.172   0.113  16.322 -0.2230  1.9185 -1.1066
 7798TIP3    H244886   2.044   0.176  16.273 -1.3517  1.8549  1.6144
 7799TIP3   OH244887   5.159   1.295  15.869  0.4900  0.2019  0.0942
 7799TIP3    H144888   5.081   1.283  15.923 -0.3030 -0.2130 -1.0978
 7799TIP3    H244889   5.166   1.390  15.859 -0.7242  0.2049 -0.9666
 7800TIP3   OH244890   1.608   1.531   3.527  0.1362 -0.0457 -0.3050
 7800TIP3    H144891   1.544   1.601   3.516  0.6264  0.4397 -0.1116
 7800TIP3    H244892   1.608   1.485   3.443 -0.1073  0.2556 -0.4724
 7801TIP3   OH244893   5.219   3.480   3.970  0.5958 -0.4958 -0.0747
 7801TIP3    H144894   5.283   3.410   3.960  0.6828 -0.4598  0.2035
 7801TIP3    H244895   5.199   3.508   3.881  3.5944  1.8418 -0.1969
 7802TIP3   OH244896   2.965   4.388  13.718  0.1529  0.2095  0.5958
 7802TIP3    H144897   2.899   4.357  13.780 -0.3194  2.3330  1.2408
 7802TIP3    H244898   3.031   4.431  13.772  0.4092  0.9289 -0.2657
 7803TIP3   OH244899   2.669   2.765   0.256 -0.0531 -0.4995 -0.0259
 7803TIP3    H144900   2.710   2.752   0.170  1.7429 -0.9921  0.8495
 7803TIP3    H244901   2.651   2.859   0.260  0.1602 -0.4187 -0.8168
 7804TIP3   OH244902   3.108   0.273  12.746 -0.0956 -0.1149  0.1897
 7804TIP3    H144903   3.125   0.310  12.833  1.3145  0.2652 -0.2174
 7804TIP3    H244904   3.015   0.288  12.731 -0.6800 -1.4442  2.2038
 7805TIP3   OH244905   0.198   1.708  12.067 -0.1675  0.1365 -0.8812
 7805TIP3    H144906   0.201   1.736  12.159 -0.5291 -1.2243 -0.4303
 7805TIP3    H244907   0.111   1.736  12.037 -1.4958 -2.3867  0.2564
 7806TIP3   OH244908   3.149   0.911  14.162 -0.5162 -0.0025  0.1957
 7806TIP3    H144909   3.207   0.893  14.088 -1.4068 -2.7193  0.0385
 7806TIP3    H244910   3.179   0.851  14.231 -2.0907 -0.3260  0.6509
 7807TIP3   OH244911   4.095   0.552   5.072 -0.3448 -0.2684 -0.1759
 7807TIP3    H144912   4.184   0.573   5.044 -0.2494  0.1661  0.4551
 7807TIP3    H244913   4.065   0.630   5.119 -0.2544 -1.2266  1.5400
 7808TIP3   OH244914   3.243   2.506  10.474  0.0335  0.1528  0.2959
 7808TIP3    H144915   3.155   2.537  10.453  0.0649 -0.7691 -1.3747
 7808TIP3    H244916   3.288   2.503  10.389  1.1291 -1.0272  0.8887
 7809TIP3   OH244917   4.550   6.851   4.150  0.1282 -0.2041 -0.3529
 7809TIP3    H144918   4.605   6.851   4.228  1.1445 -1.9518 -1.0069
 7809TIP3    H244919   4.565   6.765   4.110 -1.3658  0.1415 -1.7777
 7810TIP3   OH244920   4.745   1.804   3.164  0.0557 -0.5544 -0.0925
 7810TIP3    H144921   4.808   1.791   3.236 -2.6466 -1.1678  2.3694
 7810TIP3    H244922   4.740   1.899   3.154  0.6804 -0.4691  0.3210
 7811TIP3   OH244923   5.292   3.180   0.387  0.6404 -0.1670  0.3490
 7811TIP3    H144924   5.212   3.129   0.378  0.9714 -0.4848 -0.9744
 7811TIP3    H244925   5.353   3.122   0.432  0.8935 -0.8347 -0.8132
 7812TIP3   OH244926   2.036   4.242   1.486 -0.1828  0.1208  0.6212
 7812TIP3    H144927   1.970   4.220   1.552 -0.5507 -1.0788 -0.1378
 7812TIP3    H244928   2.009   4.197   1.407 -0.0817  2.0293 -0.5729
 7813TIP3   OH244929   1.347   6.708  16.935 -0.5463 -0.0398  0.2465
 7813TIP3    H144930   1.437   6.730  16.913  0.0986 -1.6963  1.1538
 7813TIP3    H244931   1.296   6.739  16.860  0.8674  0.1490 -0.6582
 7814TIP3   OH244932   5.769   2.816   4.887  0.2802  0.0162  1.1119
 7814TIP3    H144933   5.819   2.896   4.905 -0.5785  0.9765 -0.4795
 7814TIP3    H244934   5.687   2.828   4.936  0.4843 -0.2819  1.5310
 7815TIP3   OH244935   5.195   0.000  14.142 -0.1540  0.2303 -0.1267
 7815TIP3    H144936   5.226   0.081  14.184  1.4368 -0.5589  0.3132
 7815TIP3    H244937   5.136   0.030  14.074 -0.6233  1.6960  0.8748
 7816TIP3   OH244938   4.379   6.670   2.024 -0.4042  0.1879  0.2195
 7816TIP3    H144939   4.345   6.636   2.107  0.9883  0.1042  0.7792
 7816TIP3    H244940   4.329   6.750   2.009 -0.7488  0.1538  1.0822
 7817TIP3   OH244941   5.530   5.947   2.797  0.5249  0.3083  0.0376
 7817TIP3    H144942   5.462   5.936   2.730  0.6534 -1.9594  0.2322
 7817TIP3    H244943   5.497   6.017   2.853 -0.9588  0.2442 -0.7176
 7818TIP3   OH244944   5.018   4.804   1.560  0.1503 -0.0417 -0.1931
 7818TIP3    H144945   5.084   4.736   1.543 -0.1572 -0.2918 -0.4021
 7818TIP3    H244946   4.940   4.755   1.586  0.1360  0.2696  0.3481
 7819TIP3   OH244947   4.086   1.007  11.241  0.0602  0.2980 -0.3881
 7819TIP3    H144948   4.049   1.007  11.153 -0.0307  1.8178 -0.3836
 7819TIP3    H244949   4.113   1.098  11.255  1.0274 -0.1401  0.7615
 7820TIP3   OH244950   5.969   6.607   3.363  0.0330  0.1121 -0.0971
 7820TIP3    H144951   5.908   6.537   3.387 -2.0034  2.0118  0.6622
 7820TIP3    H244952   5.968   6.609   3.268  1.5848 -2.0190 -0.2243
 7821TIP3   OH244953   4.618   3.953  16.358  0.3356 -0.1302 -0.5487
 7821TIP3    H144954   4.586   4.006  16.431 -1.3848 -0.1666 -1.2370
 7821TIP3    H244955   4.587   3.865  16.376  1.1885 -0.4541 -0.5987
 7822TIP3   OH244956   3.599   5.136  12.485 -0.4901 -0.1572  0.0740
 7822TIP3    H144957   3.579   5.173  12.571 -0.0655  0.1128  0.0579
 7822TIP3    H244958   3.688   5.165  12.466 -0.4018 -0.6164 -0.2460
 7823TIP3   OH244959   4.055   5.855   4.219  0.1966 -0.6133  0.1623
 7823TIP3    H144960   3.994   5.888   4.285  2.7352  3.1427  0.9051
 7823TIP3    H244961   4.073   5.765   4.247 -1.8134 -0.4845  2.2373
 7824TIP3   OH244962   4.352   4.254  15.394 -1.0016  0.3062 -0.4251
 7824TIP3    H144963   4.406   4.327  15.365 -1.1107  0.3548 -0.5077
 7824TIP3    H244964   4.411   4.179  15.395 -1.1995  0.1073 -1.6605
 7825TIP3   OH244965   4.088   1.069  15.518 -0.3878  0.6102 -0.5687
 7825TIP3    H144966   4.027   0.998  15.496 -0.2883  0.6731 -1.0764
 7825TIP3    H244967   4.043   1.148  15.489 -0.4994  0.7609  0.0014
 7826TIP3   OH244968   3.377   2.177   5.254 -0.4862  0.2605 -0.0621
 7826TIP3    H144969   3.335   2.257   5.223 -1.3910 -0.8350 -1.7985
 7826TIP3    H244970   3.405   2.198   5.344 -3.9211  1.3542  0.9015
 7827TIP3   OH244971   1.033   3.915  12.031 -0.3471  0.4135  0.2520
 7827TIP3    H144972   0.976   3.964  11.971 -0.3353 -0.7190 -0.7255
 7827TIP3    H244973   1.091   3.865  11.973 -0.9204 -1.4171  1.1807
 7828TIP3   OH244974   3.280   5.610  16.829 -0.3446 -0.0514 -0.0768
 7828TIP3    H144975   3.228   5.689  16.846 -0.0878 -0.0058  0.5540
 7828TIP3    H244976   3.356   5.620  16.887  0.6510  0.1493 -1.3786
 7829TIP3   OH244977   3.489   5.596   4.790 -0.3925 -1.2583  0.1416
 7829TIP3    H144978   3.547   5.526   4.761  2.4802 -0.5284  3.3899
 7829TIP3    H244979   3.420   5.551   4.839  0.6754 -1.9880  1.0549
 7830TIP3   OH244980   3.035   4.225  17.094 -0.5465  0.2935 -0.4519
 7830TIP3    H144981   3.126   4.252  17.100 -0.4436  0.1752 -1.3395
 7830TIP3    H244982   2.985   4.307  17.104 -0.4034  0.2256  1.0678
 7831TIP3   OH244983   6.302   5.077   3.406  0.1270 -0.6584 -0.6369
 7831TIP3    H144984   6.299   5.011   3.337 -1.9125  0.8382 -2.0836
 7831TIP3    H244985   6.251   5.150   3.372 -0.5951  0.3303  2.2923
 7832TIP3   OH244986   5.416   1.328  12.801 -0.2986  0.0710  0.4176
 7832TIP3    H144987   5.341   1.376  12.836 -0.6808 -0.0773 -0.1699
 7832TIP3    H244988   5.419   1.248  12.852  1.1496  1.2409  2.3147
 7833TIP3   OH244989   2.998   2.022   4.777  0.7304 -0.1118 -0.0764
 7833TIP3    H144990   3.053   2.051   4.850  0.6620  1.4667 -0.6117
 7833TIP3    H244991   2.938   2.095   4.762 -0.2572 -1.0353 -0.7394
 7834TIP3   OH244992   4.299   2.688  16.482 -0.0130  0.1008 -0.2766
 7834TIP3    H144993   4.270   2.616  16.425  0.5725  1.8930 -3.0178
 7834TIP3    H244994   4.393   2.674  16.494 -0.2123 -0.5190  0.7030
 7835TIP3   OH244995   0.857   4.479   2.313  0.2711  0.1644  0.3520
 7835TIP3    H144996   0.919   4.415   2.349 -0.5511 -0.4654  0.6787
 7835TIP3    H244997   0.781   4.474   2.371  0.3547  1.7757  0.6453
 7836TIP3   OH244998   4.404   4.679  16.407  0.3422 -0.1995 -0.6102
 7836TIP3    H144999   4.381   4.752  16.350  0.8536 -0.6046 -1.3657
 7836TIP3    H245000   4.494   4.696  16.433  0.2242 -0.1943 -0.2035
 7837TIP3   OH245001   1.151   3.095   2.797  0.4800 -0.0569 -0.3772
 7837TIP3    H145002   1.093   3.022   2.774  0.7006  0.3730 -2.5721
 7837TIP3    H245003   1.130   3.114   2.888 -1.4206 -1.1950 -0.5006
 7838TIP3   OH245004   4.861   5.756   5.083 -0.6253  0.4556 -0.1500
 7838TIP3    H145005   4.884   5.700   5.009 -0.4992 -0.8690  0.8536
 7838TIP3    H245006   4.788   5.809   5.051 -0.2526  0.2570 -1.3716
 7839TIP3   OH245007   3.582   5.359  11.799  0.0832 -0.2783 -0.2347
 7839TIP3    H145008   3.604   5.288  11.859 -1.3277 -0.7241 -0.2104
 7839TIP3    H245009   3.523   5.416  11.849  3.3432  2.5691  0.7715
 7840TIP3   OH245010   4.175   5.137   4.511  0.5426  0.0666  0.7738
 7840TIP3    H145011   4.147   5.047   4.526 -1.8169  0.6996  0.6482
 7840TIP3    H245012   4.170   5.149   4.417  1.5290  0.1357  0.7268
 7841TIP3   OH245013   5.671   3.346  13.430 -0.6342 -0.0290 -0.8422
 7841TIP3    H145014   5.581   3.333  13.462 -1.5683  1.5728 -2.6368
 7841TIP3    H245015   5.723   3.358  13.510 -1.6946 -2.4386  0.3244
 7842TIP3   OH245016   5.151   6.825   5.898  0.4233  0.2258 -0.1329
 7842TIP3    H145017   5.231   6.786   5.931 -0.2201 -1.1146 -0.1099
 7842TIP3    H245018   5.120   6.881   5.970  1.2950  0.7200 -0.1315
 7843TIP3   OH245019   4.683   0.701  11.500 -0.0618 -0.5416  0.0421
 7843TIP3    H145020   4.657   0.682  11.410  0.5278  0.3578 -0.3381
 7843TIP3    H245021   4.635   0.637  11.553 -3.2665  1.1345 -0.5686
 7844TIP3   OH245022   2.556   2.143   2.838 -0.5748 -0.5786  0.2738
 7844TIP3    H145023   2.482   2.131   2.779  1.1438 -0.4543 -2.0238
 7844TIP3    H245024   2.549   2.233   2.869 -1.8273 -0.8349  0.7944
 7845TIP3   OH245025   3.424   2.157  10.780  0.3154 -0.8904  0.1239
 7845TIP3    H145026   3.349   2.176  10.723 -0.7758  0.1496  1.8212
 7845TIP3    H245027   3.402   2.072  10.820 -0.1844 -0.4044  0.9148
 7846TIP3   OH245028   0.583   1.012   4.207 -0.0253  0.2250  0.2390
 7846TIP3    H145029   0.582   1.082   4.142 -1.1055  0.7393  0.7773
 7846TIP3    H245030   0.523   1.043   4.275 -1.6998 -1.8633 -0.1927
 7847TIP3   OH245031   6.487   3.333  13.095  0.2860  0.1823 -0.0116
 7847TIP3    H145032   6.519   3.315  13.184 -2.6575 -0.6755  0.9918
 7847TIP3    H245033   6.420   3.400  13.107 -0.1059  0.1033 -1.6067
 7848TIP3   OH245034   4.693   2.995   4.296 -0.2810  0.0861  0.2337
 7848TIP3    H145035   4.629   2.923   4.298 -0.3792  0.1868  0.9955
 7848TIP3    H245036   4.663   3.051   4.224  0.7258 -1.4627 -1.4851
 7849TIP3   OH245037   3.071   6.201  16.789 -0.2277 -0.2452 -0.0362
 7849TIP3    H145038   3.107   6.220  16.876 -2.6248 -0.2002  1.0365
 7849TIP3    H245039   3.090   6.279  16.737 -0.0135  0.3403  0.8943
 7850TIP3   OH245040   3.772   5.222  11.388  0.1746 -0.3808 -0.8282
 7850TIP3    H145041   3.758   5.133  11.420  3.2199 -0.3794  0.8747
 7850TIP3    H245042   3.703   5.273  11.428 -0.3800 -1.6352 -0.1390
 7851TIP3   OH245043   4.805   5.529  12.758  0.0391  0.3411  0.3386
 7851TIP3    H145044   4.789   5.524  12.664  2.3078  0.1962 -0.0982
 7851TIP3    H245045   4.849   5.447  12.779  1.1313  1.1029  1.1541
 7852TIP3   OH245046   3.964   5.087   1.061 -0.2648  0.3306 -0.1071
 7852TIP3    H145047   4.029   5.024   1.031  1.0274  0.1959  2.6820
 7852TIP3    H245048   3.990   5.169   1.019  1.4077  0.1497  0.4927
 7853TIP3   OH245049   0.903   0.482  16.081  0.5036 -0.1160 -0.0153
 7853TIP3    H145050   0.930   0.574  16.072 -2.9353  0.9384 -1.6359
 7853TIP3    H245051   0.938   0.455  16.166 -0.0371  3.4110  1.5497
 7854TIP3   OH245052   1.997   4.561   0.306 -0.0021  0.0266  0.0356
 7854TIP3    H145053   2.083   4.549   0.267 -0.0798  1.9048 -0.8013
 7854TIP3    H245054   2.008   4.633   0.368 -0.4970 -1.1947  1.6335
 7855TIP3   OH245055   5.882   6.145   3.601 -0.2290 -0.1678  0.2164
 7855TIP3    H145056   5.927   6.196   3.669  1.0480  0.1261 -0.8194
 7855TIP3    H245057   5.846   6.210   3.542 -0.1603 -0.4390 -0.1270
 7856TIP3   OH245058   5.132   4.076  16.884  0.7313  0.5447 -0.1184
 7856TIP3    H145059   5.168   4.152  16.930 -2.6186  0.8832  2.3516
 7856TIP3    H245060   5.110   4.014  16.954 -1.5115 -0.3816 -1.5342
 7857TIP3   OH245061   3.823   1.777   2.359  0.1736 -0.6690 -0.0470
 7857TIP3    H145062   3.750   1.837   2.375 -0.7198 -1.7263 -0.0830
 7857TIP3    H245063   3.900   1.824   2.392 -0.4574  0.6012 -0.3133
 7858TIP3   OH245064   0.221   4.615   3.531 -0.3197 -0.0384  0.0601
 7858TIP3    H145065   0.178   4.536   3.497 -0.9911  0.4598 -0.2759
 7858TIP3    H245066   0.314   4.598   3.521 -0.3299 -1.8105  2.2683
 7859TIP3   OH245067   0.506   4.620  16.029  0.2727 -0.0445  0.8922
 7859TIP3    H145068   0.487   4.533  15.994 -0.4792  1.3047 -2.4385
 7859TIP3    H245069   0.602   4.623  16.035  0.3778 -0.7031 -0.2165
 7860TIP3   OH245070   6.367   0.512   3.095  1.1583  0.1791 -0.1846
 7860TIP3    H145071   6.300   0.569   3.133  1.9332  1.3676 -0.5456
 7860TIP3    H245072   6.350   0.426   3.134  0.0386  0.6688  0.4702
 7861TIP3   OH245073   5.766   4.157   3.557 -0.4437  0.5376  0.5227
 7861TIP3    H145074   5.676   4.154   3.524 -0.3342 -1.3680  0.3234
 7861TIP3    H245075   5.770   4.088   3.623  1.5423 -1.2941 -1.3666
 7862TIP3   OH245076   2.381   2.388   4.699  0.4421 -0.4040  0.5253
 7862TIP3    H145077   2.298   2.408   4.655  0.0148 -2.2553  0.4065
 7862TIP3    H245078   2.409   2.471   4.736 -1.0257  0.4477 -0.1909
 7863TIP3   OH245079   1.089   5.197  14.795  0.0360 -0.3147  0.5339
 7863TIP3    H145080   1.002   5.156  14.806  0.2092 -0.2595  2.5571
 7863TIP3    H245081   1.147   5.123  14.779 -0.4089 -0.3132 -1.3293
 7864TIP3   OH245082   5.606   5.642  17.030 -0.3902 -0.1141  0.3468
 7864TIP3    H145083   5.578   5.730  17.057  0.3931  0.1624  0.2843
 7864TIP3    H245084   5.630   5.599  17.112  0.5628  0.2170  0.2545
 7865TIP3   OH245085   1.872   0.409  15.099  0.1420  0.0778 -0.1083
 7865TIP3    H145086   1.918   0.440  15.177  1.1770  0.8685 -1.0065
 7865TIP3    H245087   1.900   0.318  15.089  0.5334  0.1797  0.0637
 7866TIP3   OH245088   1.115   2.172  16.759 -0.3015 -0.1220 -0.3508
 7866TIP3    H145089   1.137   2.265  16.769 -1.5760  0.3716 -1.7147
 7866TIP3    H245090   1.180   2.126  16.811 -0.7415  1.6286  1.8915
 7867TIP3   OH245091   2.613   3.064  12.215  0.2339 -0.4813  0.4419
 7867TIP3    H145092   2.589   3.031  12.301 -0.4924  1.1958  0.9281
 7867TIP3    H245093   2.555   3.019  12.154 -2.8835  1.9225  1.3828
 7868TIP3   OH245094   5.025   3.875  12.386 -0.6178  0.7834 -0.4580
 7868TIP3    H145095   4.976   3.822  12.323  0.5769  0.4065 -1.0970
 7868TIP3    H245096   5.113   3.883  12.349 -0.8098  3.5212 -0.5498
 7869TIP3   OH245097   0.336   3.909   5.320 -0.1498 -0.0237 -0.6487
 7869TIP3    H145098   0.351   3.995   5.279 -0.0849 -0.0002 -0.5743
 7869TIP3    H245099   0.384   3.913   5.403 -0.4880  0.0209 -0.4528
 7870TIP3   OH245100   0.542   5.054  11.096  0.1807  0.2991 -0.0624
 7870TIP3    H145101   0.496   5.083  11.017  1.6123  1.9150 -0.3469
 7870TIP3    H245102   0.584   4.972  11.070 -0.7773 -0.0927 -0.4303
 7871TIP3   OH245103   4.157   2.233   0.836 -0.0732  0.1186  0.1620
 7871TIP3    H145104   4.157   2.326   0.813 -1.5999  0.6256  1.9721
 7871TIP3    H245105   4.142   2.187   0.753 -2.8077  1.7005 -0.3158
 7872TIP3   OH245106   0.676   3.903  15.575  0.6110  0.2070  0.4981
 7872TIP3    H145107   0.713   3.929  15.491 -1.1308 -1.5999 -0.9258
 7872TIP3    H245108   0.584   3.885  15.555 -0.3202  1.4561  3.1977
 7873TIP3   OH245109   1.327   6.388  12.928  0.1517 -0.1093  0.2720
 7873TIP3    H145110   1.416   6.378  12.895  0.4699  1.8314  0.3844
 7873TIP3    H245111   1.332   6.464  12.987 -1.3809 -0.5380  1.0179
 7874TIP3   OH245112   6.230   2.363   3.958 -0.2630 -0.2603  0.4272
 7874TIP3    H145113   6.273   2.401   4.034  0.3824 -0.3061  0.0931
 7874TIP3    H245114   6.159   2.423   3.938  0.2058  0.3063  0.4371
 7875TIP3   OH245115   1.392   6.320  15.466  0.0303  0.8722 -0.0646
 7875TIP3    H145116   1.378   6.284  15.378 -1.2330  0.9442  0.1010
 7875TIP3    H245117   1.355   6.254  15.525  0.5846  0.9762  0.4078
 7876TIP3   OH245118   5.106   0.357   2.026  0.1469  0.2028  0.4251
 7876TIP3    H145119   5.033   0.317   2.072 -0.4680 -0.3287 -0.9392
 7876TIP3    H245120   5.174   0.368   2.092 -1.3150  1.1479  1.8293
 7877TIP3   OH245121   4.595   3.562  11.500  0.7795  0.1666 -0.1859
 7877TIP3    H145122   4.665   3.518  11.548  1.0549  0.0504 -0.6825
 7877TIP3    H245123   4.608   3.655  11.519  0.9605  0.1302 -0.1247
 7878TIP3   OH245124   5.603   5.549  12.026  0.2547 -0.1031 -0.3107
 7878TIP3    H145125   5.584   5.643  12.030 -1.4951 -0.3986 -0.6706
 7878TIP3    H245126   5.609   5.531  11.932  0.8191 -0.3148 -0.2340
 7879TIP3   OH245127   1.222   0.982  15.503 -0.2611 -0.0558  0.1469
 7879TIP3    H145128   1.186   1.011  15.587 -0.1539  0.0261  0.1640
 7879TIP3    H245129   1.158   1.012  15.439  0.1348  0.7477  0.1076
 7880TIP3   OH245130   4.799   6.478  13.927 -0.0780  0.0543 -0.3854
 7880TIP3    H145131   4.870   6.421  13.898  0.1363 -0.4190  1.0068
 7880TIP3    H245132   4.742   6.420  13.978  0.1638  1.0747  1.0942
 7881TIP3   OH245133   5.744   4.888   4.307  0.4782 -0.0381  0.5567
 7881TIP3    H145134   5.803   4.813   4.315  0.0165 -0.6420 -1.3256
 7881TIP3    H245135   5.691   4.870   4.229 -1.1406  1.2296  1.2936
 7882TIP3   OH245136   1.341   5.199   4.678  0.1988  0.1557 -0.2656
 7882TIP3    H145137   1.383   5.117   4.652  0.5837 -1.0442  3.6057
 7882TIP3    H245138   1.405   5.267   4.653  1.5474 -1.0521 -0.2255
 7883TIP3   OH245139   2.535   4.870   1.232 -0.0731  0.3160 -0.4719
 7883TIP3    H145140   2.571   4.812   1.300  0.1834  1.5688  0.5024
 7883TIP3    H245141   2.440   4.863   1.242 -0.0897  2.2687  1.6900
 7884TIP3   OH245142   1.309   1.601   2.968  0.4028 -0.3202 -0.0487
 7884TIP3    H145143   1.401   1.609   2.994  0.1858  2.7580  0.1784
 7884TIP3    H245144   1.311   1.578   2.875  1.5694  2.5908 -0.8468
 7885TIP3   OH245145   6.185   1.549   2.479 -0.0137  0.4404  0.3452
 7885TIP3    H145146   6.124   1.553   2.406 -0.3262 -0.4094  0.5426
 7885TIP3    H245147   6.248   1.481   2.454  0.2140  0.5502  0.6161
 7886TIP3   OH245148   0.551   1.970   3.617 -0.2903  0.1750 -0.5105
 7886TIP3    H145149   0.494   2.045   3.632 -1.9150 -0.8110 -1.5159
 7886TIP3    H245150   0.492   1.897   3.599  1.2523 -1.2311 -0.1658
 7887TIP3   OH245151   4.926   2.177   3.665  0.2015 -0.1106  0.7144
 7887TIP3    H145152   4.850   2.177   3.723 -1.1681  0.7947 -0.9858
 7887TIP3    H245153   4.901   2.120   3.592  0.8800  0.6944 -0.1807
 7888TIP3   OH245154   2.699   5.205  11.672 -0.1571  0.1887 -0.2552
 7888TIP3    H145155   2.731   5.267  11.737  0.5985 -1.0762  0.6222
 7888TIP3    H245156   2.648   5.258  11.611  0.7773  1.7280  0.2455
 7889TIP3   OH245157   0.732   5.011  12.036 -0.3062  0.0493  0.0771
 7889TIP3    H145158   0.698   5.021  11.947 -0.0224  0.0793 -0.0318
 7889TIP3    H245159   0.663   5.044  12.092 -0.8654 -0.8382 -0.0781
 7890TIP3   OH245160   2.091   4.462   3.564  0.8681  0.0852  0.4571
 7890TIP3    H145161   2.080   4.487   3.472 -0.2617  0.9339  0.7936
 7890TIP3    H245162   2.147   4.530   3.601  2.5415 -1.0468  0.0916
 7891TIP3   OH245163   2.958   1.312   1.494 -0.0675  1.1542 -0.0077
 7891TIP3    H145164   3.029   1.248   1.485 -0.6830  0.4223  0.2212
 7891TIP3    H245165   2.955   1.356   1.409  0.1584  0.6567 -0.2772
 7892TIP3   OH245166   5.045   0.510  16.634 -0.2048  0.2972 -0.8585
 7892TIP3    H145167   5.081   0.598  16.630  0.5033  0.0028 -1.0143
 7892TIP3    H245168   5.112   0.458  16.679 -1.0226  0.0378  0.1129
 7893TIP3   OH245169   2.784   2.916  12.671 -0.4539  0.4300 -0.0853
 7893TIP3    H145170   2.870   2.890  12.706  0.4463  1.4006 -1.4489
 7893TIP3    H245171   2.778   3.009  12.692 -0.8678  0.5158 -0.5723
 7894TIP3   OH245172   5.051   2.734  15.087  0.0746 -0.5521 -0.4365
 7894TIP3    H145173   5.069   2.649  15.047 -0.0739 -0.4048 -0.8208
 7894TIP3    H245174   5.090   2.798  15.027 -1.3251 -0.2526 -1.0655
 7895TIP3   OH245175   0.055   6.447   3.706  0.1479  0.2341 -0.2356
 7895TIP3    H145176   0.138   6.453   3.658  0.9954 -0.5234  1.0761
 7895TIP3    H245177  -0.012   6.451   3.638  1.1955  2.0727 -1.2321
 7896TIP3   OH245178   2.194   6.725  16.659  0.1716  0.1159 -0.3534
 7896TIP3    H145179   2.113   6.764  16.693  1.3456  2.4200  0.0456
 7896TIP3    H245180   2.261   6.750  16.723  1.4546 -0.3635 -1.4643
 7897TIP3   OH245181   4.295   0.581   0.125 -0.0690  0.1402  0.6684
 7897TIP3    H145182   4.228   0.522   0.092 -0.2469  0.7721 -0.1269
 7897TIP3    H245183   4.376   0.553   0.082  0.0881 -0.2854  1.2241
 7898TIP3   OH245184   5.446   5.004  15.294  0.2174 -0.7023  0.0965
 7898TIP3    H145185   5.427   4.915  15.264  0.4184 -0.7964  0.2439
 7898TIP3    H245186   5.541   5.010  15.293  0.2027 -0.4707  0.0379
 7899TIP3   OH245187   1.255   1.999   4.209  0.2632 -0.6295  0.1885
 7899TIP3    H145188   1.256   2.067   4.277 -0.3398 -0.2807 -0.1470
 7899TIP3    H245189   1.342   1.959   4.214  1.0847  0.9942 -0.4399
 7900TIP3   OH245190   1.965   6.423  15.319 -0.4093 -0.5568 -0.4244
 7900TIP3    H145191   1.892   6.361  15.324 -2.8584  2.1826  1.3871
 7900TIP3    H245192   2.031   6.387  15.379 -0.8058 -2.4169 -1.0293
 7901TIP3   OH245193   5.187   6.622   2.217  0.1973  0.0915 -0.1493
 7901TIP3    H145194   5.105   6.595   2.177 -0.2855  0.2169  0.7179
 7901TIP3    H245195   5.207   6.552   2.279  0.3139  0.4383  0.2159
 7902TIP3   OH245196   4.280   3.027  16.442  0.3221 -0.2355 -0.5390
 7902TIP3    H145197   4.317   2.941  16.420 -1.3534 -1.0509 -0.2753
 7902TIP3    H245198   4.287   3.077  16.360  0.8390 -0.7758 -0.8341
 7903TIP3   OH245199   3.237   4.816   1.720  0.4340 -0.5779  0.0757
 7903TIP3    H145200   3.147   4.842   1.700  0.4673 -1.1648 -0.8912
 7903TIP3    H245201   3.287   4.898   1.717 -0.3051  0.0296  2.2688
 7904TIP3   OH245202   4.840   5.399   4.174  0.7772  0.1600 -0.8022
 7904TIP3    H145203   4.792   5.343   4.235  0.8364  0.8933 -0.0623
 7904TIP3    H245204   4.772   5.449   4.129  0.7778  0.3359 -0.6122
 7905TIP3   OH245205   3.319   2.370  11.029  0.2636 -0.4134 -0.0034
 7905TIP3    H145206   3.273   2.436  11.081  1.0787 -0.2797  0.5538
 7905TIP3    H245207   3.279   2.377  10.942  1.9060  2.5040 -0.6535
 7906TIP3   OH245208   6.796   6.490   2.869 -0.0274  0.0384 -0.1700
 7906TIP3    H145209   6.833   6.572   2.902  0.1803 -0.6065  1.2797
 7906TIP3    H245210   6.707   6.489   2.904 -0.8837  0.7374 -2.1656
 7907TIP3   OH245211   6.295   4.216  11.289  0.0048  0.1191  0.2900
 7907TIP3    H145212   6.289   4.240  11.381 -0.1359 -1.5006  0.7177
 7907TIP3    H245213   6.251   4.288  11.243 -1.1928  0.2554  1.5859
 7908TIP3   OH245214   0.482   3.027   0.791  0.4375 -0.1569  0.3695
 7908TIP3    H145215   0.525   3.028   0.705  1.2115 -1.0420  0.7397
 7908TIP3    H245216   0.397   3.069   0.775  1.0371  0.7643 -0.5736
 7909TIP3   OH245217   5.604   3.006   2.842  0.5536  0.3218  0.2043
 7909TIP3    H145218   5.632   2.966   2.925  0.3084  1.2131  0.7309
 7909TIP3    H245219   5.685   3.028   2.797  0.6913  0.1512  0.3680
 7910TIP3   OH245220   5.633   2.202   1.946 -0.1533  0.4351  0.8852
 7910TIP3    H145221   5.714   2.153   1.931  0.2191  1.1101  0.6401
 7910TIP3    H245222   5.661   2.294   1.948 -1.3167  1.0463 -2.8020
 7911TIP3   OH245223   0.623   4.870  16.954 -0.4119  0.6158  0.5417
 7911TIP3    H145224   0.592   4.811  17.024  0.5436  1.6997  1.9290
 7911TIP3    H245225   0.597   4.826  16.873  0.2593 -1.7325  1.5025
 7912TIP3   OH245226   5.523   0.156  13.229  0.0893  0.0572  0.0562
 7912TIP3    H145227   5.596   0.198  13.182 -0.4896  0.1878 -0.7463
 7912TIP3    H245228   5.476   0.107  13.161  0.5872 -1.7106  0.9128
 7913TIP3   OH245229   3.348   2.169  15.354  0.1216  0.6054 -0.5640
 7913TIP3    H145230   3.268   2.116  15.352  0.5104 -0.0416  0.2863
 7913TIP3    H245231   3.419   2.106  15.367  0.6517  1.2673 -0.1290
 7914TIP3   OH245232   2.993   1.935   0.818  0.6916 -0.5330 -0.6851
 7914TIP3    H145233   3.067   1.979   0.859  0.4593  1.6040 -2.3660
 7914TIP3    H245234   2.918   1.992   0.834 -0.2548 -1.7745 -0.5098
 7915TIP3   OH245235   3.942   0.708   4.767  0.6063 -0.0986  0.2822
 7915TIP3    H145236   3.920   0.682   4.857  2.1908  0.1696  0.7822
 7915TIP3    H245237   3.946   0.804   4.771  1.5454 -0.1227  0.1613
 7916TIP3   OH245238   6.597   4.453  10.824  0.0548 -0.0415  0.9452
 7916TIP3    H145239   6.643   4.537  10.833  0.7494 -0.5766  2.8139
 7916TIP3    H245240   6.652   4.390  10.870 -0.4637 -1.5622 -0.4159
 7917TIP3   OH245241   6.052   0.414  13.100  0.0543  0.0151  0.1052
 7917TIP3    H145242   6.004   0.471  13.040 -1.7351 -2.1720 -0.6833
 7917TIP3    H245243   6.001   0.414  13.180  0.8532  0.6352  0.6305
 7918TIP3   OH245244   3.868   4.612   0.638 -0.4149 -0.3723 -0.1659
 7918TIP3    H145245   3.899   4.695   0.674  1.4969 -0.5762 -1.1650
 7918TIP3    H245246   3.780   4.630   0.607  0.3648  1.6776 -1.4418
 7919TIP3   OH245247   3.132   2.435   5.005  0.4184 -0.6478 -0.0874
 7919TIP3    H145248   3.178   2.411   4.924 -0.6714  1.9648 -1.5993
 7919TIP3    H245249   3.199   2.478   5.058  0.7551 -0.9030 -0.2989
 7920TIP3   OH245250   6.213   5.022   0.843 -0.4240  0.1100 -0.2018
 7920TIP3    H145251   6.125   5.006   0.810 -0.0218  0.0124 -1.2737
 7920TIP3    H245252   6.249   5.089   0.785 -0.0097  0.5975  0.6099
 7921TIP3   OH245253   4.855   6.618   0.993  0.4185  0.1454  0.3976
 7921TIP3    H145254   4.823   6.533   1.024  1.1295 -0.6222 -0.8856
 7921TIP3    H245255   4.828   6.680   1.061 -0.9146 -0.9556  0.9235
 7922TIP3   OH245256   4.763   2.918  14.122  0.7346 -0.3606  0.5515
 7922TIP3    H145257   4.703   2.989  14.102  0.1053 -0.4282  2.0444
 7922TIP3    H245258   4.781   2.877  14.038  0.8256  1.3259 -0.2934
 7923TIP3   OH245259   0.436   2.974   4.835  0.4957 -0.5973  0.1336
 7923TIP3    H145260   0.427   3.018   4.750  1.6038  0.3240  0.4691
 7923TIP3    H245261   0.500   2.905   4.820  1.7871  0.4711  0.5173
 7924TIP3   OH245262   4.794   3.465  16.439  0.1238  0.0442 -0.6483
 7924TIP3    H145263   4.828   3.381  16.408  0.7916 -0.0488  0.2905
 7924TIP3    H245264   4.863   3.528  16.418  0.7762 -0.0878  0.9573
 7925TIP3   OH245265   3.335   1.951   6.359 -0.0554 -0.3856 -0.1796
 7925TIP3    H145266   3.246   1.945   6.394  0.3363 -0.1739  0.9003
 7925TIP3    H245267   3.369   2.033   6.394  0.8022 -0.8061 -0.0032
 7926TIP3   OH245268   3.958   6.009   1.419  0.1746 -0.5883  0.2134
 7926TIP3    H145269   4.034   6.067   1.409 -0.3400  0.0294 -0.1773
 7926TIP3    H245270   3.919   6.036   1.502  0.2639 -0.7703  0.3155
 7927TIP3   OH245271   3.108   3.596   3.537 -0.0401  0.3680 -0.4338
 7927TIP3    H145272   3.082   3.650   3.462 -1.3788 -2.2571 -2.0165
 7927TIP3    H245273   3.026   3.556   3.567  0.8850 -0.7863  0.6648
 7928TIP3   OH245274   0.605   3.848  17.003  0.0554 -0.5400  0.4335
 7928TIP3    H145275   0.642   3.926  16.961 -0.5494 -0.5297 -0.0928
 7928TIP3    H245276   0.530   3.881  17.053  1.2551 -0.4125  2.2723
 7929TIP3   OH245277   1.709   3.074  12.628 -0.0890  0.7945  0.5478
 7929TIP3    H145278   1.624   3.101  12.662 -1.0597 -0.9860 -0.3072
 7929TIP3    H245279   1.701   2.979  12.618  1.2027  0.8559 -1.6657
 7930TIP3   OH245280   0.692   5.523  16.113 -0.0398 -0.2043  0.4505
 7930TIP3    H145281   0.765   5.534  16.174  1.3692  1.8080 -1.4474
 7930TIP3    H245282   0.665   5.432  16.124  1.9799 -0.6909  2.0551
 7931TIP3   OH245283   6.670   5.114  14.785  0.1679  0.4506 -0.7911
 7931TIP3    H145284   6.761   5.144  14.793  1.2747 -2.6741 -0.3544
 7931TIP3    H245285   6.651   5.075  14.870 -0.2006 -2.2884 -2.0404
 7932TIP3   OH245286   1.380   2.960   5.600 -0.7096 -0.1983  0.1596
 7932TIP3    H145287   1.459   2.927   5.557 -1.0366 -1.9135  0.8427
 7932TIP3    H245288   1.318   2.973   5.528 -0.6816 -1.4037 -0.0966
 7933TIP3   OH245289   4.487   0.162   5.111 -0.5893  0.7862 -0.3935
 7933TIP3    H145290   4.468   0.240   5.057 -0.5845  1.1649  0.1419
 7933TIP3    H245291   4.456   0.089   5.058 -4.0989  1.3493  0.5765
 7934TIP3   OH245292   1.699   2.344   3.907 -0.3578  0.2514 -0.0635
 7934TIP3    H145293   1.727   2.435   3.901  0.9295 -0.1084  0.0342
 7934TIP3    H245294   1.720   2.307   3.821  0.9393 -0.4014  0.5000
 7935TIP3   OH245295   3.401   4.623   4.173  0.0282 -0.2073 -0.0610
 7935TIP3    H145296   3.401   4.718   4.172 -3.0533 -0.0829 -1.8396
 7935TIP3    H245297   3.335   4.600   4.239  0.6546 -1.1107  0.2666
 7936TIP3   OH245298   5.637   5.466   0.131 -0.2137  0.2159 -0.0054
 7936TIP3    H145299   5.656   5.431   0.219 -0.3964  2.0540  0.8169
 7936TIP3    H245300   5.576   5.402   0.093  0.4267 -0.9892  0.9160
 7937TIP3   OH245301   4.884   2.765   3.048 -0.3550  0.0978 -0.3336
 7937TIP3    H145302   4.891   2.765   3.143  0.2604  0.5680 -0.3773
 7937TIP3    H245303   4.899   2.856   3.022 -1.1161  0.0941 -0.8426
 7938TIP3   OH245304   1.773   0.478  16.444 -0.0806 -0.6809  0.0651
 7938TIP3    H145305   1.837   0.410  16.465 -0.0556 -0.6195  0.1882
 7938TIP3    H245306   1.707   0.434  16.391  0.4949 -0.5574 -0.7747
 7939TIP3   OH245307   6.643   4.922   2.536  0.0343  0.0631  0.2272
 7939TIP3    H145308   6.616   4.928   2.445  1.1762 -2.0623 -0.3252
 7939TIP3    H245309   6.587   4.854   2.573  0.0074  0.4649  0.9378
 7940TIP3   OH245310   6.036   2.976  13.828  0.6747 -0.1868  0.2146
 7940TIP3    H145311   6.086   3.016  13.899  1.8912 -1.9535  0.4030
 7940TIP3    H245312   6.012   3.050  13.772 -0.4890  1.3106  2.4915
 7941TIP3   OH245313   4.973   1.717  11.240 -0.1732 -0.7730 -0.1689
 7941TIP3    H145314   5.033   1.658  11.286  0.5076 -0.5204 -0.7113
 7941TIP3    H245315   5.004   1.718  11.150 -1.1032 -0.7543 -0.5018
 7942TIP3   OH245316   2.352   2.315  13.435  0.1021 -0.6377 -0.0465
 7942TIP3    H145317   2.257   2.315  13.423  0.0788  3.1941 -1.2429
 7942TIP3    H245318   2.364   2.327  13.530 -0.4644 -3.1240  0.4001
 7943TIP3   OH245319   2.098   3.824  14.445  0.2701  0.4740 -0.4780
 7943TIP3    H145320   2.013   3.790  14.472  0.7245 -0.5836 -0.3511
 7943TIP3    H245321   2.146   3.834  14.527  0.4023  0.7137 -0.5836
 7944TIP3   OH245322   1.083   0.952  14.985  0.0847  0.7774 -0.2581
 7944TIP3    H145323   1.124   0.936  14.900  0.0863 -0.8732  0.0151
 7944TIP3    H245324   1.154   0.980  15.041  0.8175 -1.5527  0.0744
 7945TIP3   OH245325   5.376   5.970   3.851  0.0600  0.0308  0.4257
 7945TIP3    H145326   5.353   5.930   3.767 -2.1356  0.3022  0.8461
 7945TIP3    H245327   5.318   6.046   3.858  1.9558  1.5256  1.0748
 7946TIP3   OH245328   3.038   5.382  14.663 -0.0750  0.1949 -0.0109
 7946TIP3    H145329   2.974   5.425  14.605 -0.0239  0.0296 -0.1909
 7946TIP3    H245330   3.010   5.291  14.665 -0.0847  0.2043  0.2392
 7947TIP3   OH245331   5.882   2.340  16.712  0.1957 -0.0115 -0.2651
 7947TIP3    H145332   5.962   2.318  16.759 -0.2169  1.1576  1.0572
 7947TIP3    H245333   5.845   2.414  16.760  0.8283  2.7817 -3.6727
 7948TIP3   OH245334   2.914   3.976  12.020 -0.1668 -0.2645  0.1786
 7948TIP3    H145335   2.924   3.889  11.979 -0.0278 -0.3413  0.3699
 7948TIP3    H245336   2.916   4.037  11.946 -1.0203 -0.4745 -0.0215
 7949TIP3   OH245337   0.490   0.338   0.394  0.5956  0.1688 -0.4257
 7949TIP3    H145338   0.528   0.422   0.370  1.2375 -0.4055 -1.4837
 7949TIP3    H245339   0.491   0.287   0.314  0.3764 -0.9247  0.2404
 7950TIP3   OH245340   2.914   2.231  12.649 -0.3342 -0.2572 -0.4305
 7950TIP3    H145341   2.847   2.220  12.716  1.5737  0.5192  1.7264
 7950TIP3    H245342   2.974   2.158  12.664  2.5631  2.3707  1.8712
 7951TIP3   OH245343   4.069   0.167  16.030  0.2444 -0.0439 -0.1207
 7951TIP3    H145344   4.105   0.084  15.996  0.2283 -0.1171  0.0401
 7951TIP3    H245345   4.062   0.223  15.953 -0.5887 -0.4929 -0.3917
 7952TIP3   OH245346   3.347   0.854  14.013 -0.3828  0.4181  0.3284
 7952TIP3    H145347   3.358   0.908  13.935  0.9521 -0.7019 -0.3125
 7952TIP3    H245348   3.389   0.771  13.991  2.2388  0.8327  2.9985
 7953TIP3   OH245349   6.400   3.335  11.539 -0.1788 -0.3813 -0.1817
 7953TIP3    H145350   6.407   3.413  11.485  1.3246  0.9959  1.8474
 7953TIP3    H245351   6.436   3.265  11.485  1.2480  0.9319 -0.9974
 7954TIP3   OH245352   6.062   4.059   2.416 -0.2911  0.6525  0.0393
 7954TIP3    H145353   6.107   3.979   2.446  1.6258  1.3365 -0.8458
 7954TIP3    H245354   5.969   4.039   2.427  0.0907 -1.9742 -0.7889
 7955TIP3   OH245355   5.829   3.252  12.467 -0.4895 -0.2093  0.2041
 7955TIP3    H145356   5.892   3.315  12.503 -1.1361  0.0084  0.9970
 7955TIP3    H245357   5.881   3.174  12.447 -0.2406 -0.7642  2.6888
 7956TIP3   OH245358   6.201   0.122   2.781  0.0390 -0.4234  0.2033
 7956TIP3    H145359   6.191   0.084   2.694  0.5280  3.0670 -1.5640
 7956TIP3    H245360   6.287   0.094   2.811  0.5742 -0.3451 -1.2090
 7957TIP3   OH245361   4.201   4.270  11.028  0.0135 -0.4471 -0.2942
 7957TIP3    H145362   4.145   4.336  11.069 -0.3699 -0.3873 -0.9002
 7957TIP3    H245363   4.204   4.295  10.935  1.2797 -0.2835 -0.2278
 7958TIP3   OH245364   5.533   6.809  13.534 -0.1014 -0.1759  0.0148
 7958TIP3    H145365   5.571   6.733  13.579 -1.0397 -1.5449 -1.4081
 7958TIP3    H245366   5.609   6.861  13.508  0.7274 -1.7741 -0.9308
 7959TIP3   OH245367   4.391   5.365   5.761  0.0660  0.3468 -0.9810
 7959TIP3    H145368   4.454   5.410   5.705  0.9932 -0.7028 -0.8250
 7959TIP3    H245369   4.410   5.398   5.849 -1.9555  2.6405 -1.2977
 7960TIP3   OH245370   5.537   5.571   0.515 -0.2277 -0.0891  0.3187
 7960TIP3    H145371   5.461   5.622   0.541 -0.2048 -0.3962  0.9936
 7960TIP3    H245372   5.601   5.585   0.584  1.1620  1.8876 -1.2665
 7961TIP3   OH245373   4.035   1.739   1.826 -0.2866  0.0136  0.1124
 7961TIP3    H145374   4.075   1.817   1.865  0.4364  0.3535 -1.2419
 7961TIP3    H245375   4.108   1.677   1.816 -0.8514 -0.8691  1.1671
 7962TIP3   OH245376   4.452   5.172   1.500 -0.4782 -0.0822  0.0171
 7962TIP3    H145377   4.529   5.166   1.556 -1.5605 -1.7841  1.4085
 7962TIP3    H245378   4.441   5.266   1.485  0.0192  0.4329  2.4700
 7963TIP3   OH245379   1.818   6.171   5.563 -0.5171  0.1485  0.3062
 7963TIP3    H145380   1.782   6.229   5.496 -1.0428  0.3595  0.7655
 7963TIP3    H245381   1.778   6.086   5.545  0.7715 -0.2660 -0.7869
 7964TIP3   OH245382   2.622   4.071   1.038  0.0396  0.3223  0.0760
 7964TIP3    H145383   2.711   4.059   1.073  0.2904 -0.4191 -0.7847
 7964TIP3    H245384   2.565   4.036   1.107  0.5757 -1.9353 -0.5474
 7965TIP3   OH245385   0.165   6.621  16.430  0.2143  0.1549  0.2902
 7965TIP3    H145386   0.233   6.687  16.440 -1.1747  1.4456  1.8714
 7965TIP3    H245387   0.097   6.648  16.492 -0.9954 -2.0214 -0.0068
 7966TIP3   OH245388   2.770   3.108   2.653  0.8977 -0.3410 -0.1017
 7966TIP3    H145389   2.848   3.083   2.702  0.6244  0.9681  1.0478
 7966TIP3    H245390   2.734   3.025   2.622  1.9771 -1.0717  0.5218
 7967TIP3   OH245391   1.459   0.272  13.920  0.6741  0.3312  0.3511
 7967TIP3    H145392   1.547   0.237  13.905  0.2512 -0.8110  0.4394
 7967TIP3    H245393   1.457   0.355  13.871  0.7687 -1.1543 -2.3837
 7968TIP3   OH245394   4.668   1.076   2.965 -0.1371 -0.0994 -0.0322
 7968TIP3    H145395   4.582   1.054   3.002 -0.6337 -1.8029 -1.9865
 7968TIP3    H245396   4.647   1.126   2.886  0.7264  0.4491  0.0819
 7969TIP3   OH245397   3.525   2.417  14.923  0.0207  0.0816  0.0322
 7969TIP3    H145398   3.454   2.356  14.943  0.8885 -0.9124  0.1682
 7969TIP3    H245399   3.527   2.422  14.828 -0.6221  0.6058  0.0365
 7970TIP3   OH245400   4.519   3.997  15.173  0.0766  0.0198  0.5001
 7970TIP3    H145401   4.573   3.921  15.150 -0.8484 -0.4987 -0.0335
 7970TIP3    H245402   4.537   4.012  15.266 -1.3894 -2.3171  1.2613
 7971TIP3   OH245403   6.537   5.589   1.348 -0.5926 -0.4156 -0.2570
 7971TIP3    H145404   6.505   5.513   1.396  0.0766 -0.2143  0.5321
 7971TIP3    H245405   6.467   5.654   1.358 -0.6344 -0.5122  0.1216
 7972TIP3   OH245406   3.017   6.319   3.505  0.0169 -0.4541 -0.3904
 7972TIP3    H145407   2.952   6.287   3.567 -0.8378 -1.8533 -1.9142
 7972TIP3    H245408   3.054   6.239   3.466  0.3214  0.3683 -1.8575
 7973TIP3   OH245409   3.790   1.474   2.703  0.2215 -0.2699  0.6874
 7973TIP3    H145410   3.714   1.527   2.679  1.5675  1.6581  0.4675
 7973TIP3    H245411   3.763   1.431   2.785 -1.9110 -1.5151 -0.5627
 7974TIP3   OH245412   3.321   0.916   5.265 -0.1291 -0.3186 -0.1006
 7974TIP3    H145413   3.240   0.870   5.287 -0.6144 -1.0551 -3.0795
 7974TIP3    H245414   3.292   0.992   5.214  1.0089 -0.0480 -0.3658
 7975TIP3   OH245415   6.702   1.141   4.015 -0.2358 -0.2889  0.1009
 7975TIP3    H145416   6.627   1.142   3.957 -1.4082 -1.5128  1.5214
 7975TIP3    H245417   6.721   1.048   4.029  1.6259 -0.0181 -0.2955
 7976TIP3   OH245418   3.366   6.067   2.371  0.0574 -0.5519  0.5338
 7976TIP3    H145419   3.312   6.030   2.440  1.8473 -3.4826  0.5383
 7976TIP3    H245420   3.439   6.109   2.416  1.2502 -2.5049  0.5430
 7977TIP3   OH245421   1.427   2.341   6.111  0.1397 -0.5041  0.5821
 7977TIP3    H145422   1.381   2.381   6.186 -2.0582 -1.9472  0.0990
 7977TIP3    H245423   1.518   2.334   6.139  0.0999  2.2681  1.7188
 7978TIP3   OH245424   2.885   4.649   2.448 -0.4406 -1.2485  0.2646
 7978TIP3    H145425   2.917   4.566   2.411  1.6434  0.2901 -1.6672
 7978TIP3    H245426   2.937   4.716   2.404 -2.6120  1.1728  1.1547
 7979TIP3   OH245427   6.384   0.987  11.274  0.1405  0.2075 -0.0890
 7979TIP3    H145428   6.373   0.892  11.274 -0.7906  0.2995 -0.0263
 7979TIP3    H245429   6.311   1.019  11.327  0.1178  0.9840 -0.5664
 7980TIP3   OH245430   3.019   5.609  14.047  0.3791 -0.6466  0.1417
 7980TIP3    H145431   3.032   5.514  14.049  2.1727 -0.4300  0.3582
 7980TIP3    H245432   3.070   5.638  13.971 -1.0473  0.0491 -0.5889
 7981TIP3   OH245433   2.048   5.443  12.113 -0.1380  0.3129 -0.0345
 7981TIP3    H145434   2.129   5.391  12.110  0.3042  0.9067  1.1029
 7981TIP3    H245435   1.984   5.390  12.064  0.2208 -1.4663  1.3033
 7982TIP3   OH245436   5.942   3.066   1.492 -0.3457  0.0476  0.1047
 7982TIP3    H145437   6.016   3.095   1.546  1.0281 -0.2841 -1.4992
 7982TIP3    H245438   5.969   2.980   1.460 -1.3371  0.0210 -0.6876
 7983TIP3   OH245439   0.227   5.912   1.224 -0.0982 -0.0747  0.0122
 7983TIP3    H145440   0.316   5.943   1.241  0.1176 -0.6485 -0.0876
 7983TIP3    H245441   0.224   5.893   1.131  0.1204 -1.4797  0.2805
 7984TIP3   OH245442   5.043   3.335  12.165  0.3352  0.1153 -0.4484
 7984TIP3    H145443   5.020   3.325  12.258 -0.4365  0.8687 -0.5473
 7984TIP3    H245444   5.138   3.331  12.163  0.3480 -3.5574 -0.0604
 7985TIP3   OH245445   5.759   4.895   4.016  0.4920  0.4998 -0.1250
 7985TIP3    H145446   5.854   4.905   4.013  0.6485 -0.8721 -0.9014
 7985TIP3    H245447   5.725   4.983   4.003  1.6309  1.2972  1.7424
 7986TIP3   OH245448   6.624   2.103  16.387 -0.2490  0.3029 -0.1361
 7986TIP3    H145449   6.646   2.115  16.294  0.2164 -2.5997 -0.4919
 7986TIP3    H245450   6.531   2.084  16.388  0.2134 -2.2475 -0.3754
 7987TIP3   OH245451   6.270   5.618  14.037  0.6438  0.0728 -0.2630
 7987TIP3    H145452   6.311   5.591  14.119  0.0849 -0.3684 -0.1249
 7987TIP3    H245453   6.185   5.654  14.062  1.0746  1.3218 -0.5149
 7988TIP3   OH245454   4.675   1.613  14.719  0.1163 -0.0545  0.7932
 7988TIP3    H145455   4.759   1.575  14.743 -0.2298 -2.9731 -1.9713
 7988TIP3    H245456   4.697   1.701  14.687  2.1724 -0.8230 -0.0655
 7989TIP3   OH245457   4.747   0.530  16.359 -0.3377 -0.7305 -0.0622
 7989TIP3    H145458   4.757   0.517  16.453  0.6690 -1.9294 -0.3128
 7989TIP3    H245459   4.766   0.623  16.346 -2.0458 -0.1697  1.0795
 7990TIP3   OH245460   4.772   6.038  13.557 -0.1675 -0.0955 -0.4640
 7990TIP3    H145461   4.680   6.057  13.535  0.0251  0.4920 -0.7854
 7990TIP3    H245462   4.816   6.033  13.472 -0.1665 -1.8798 -0.3934
 7991TIP3   OH245463   2.785   4.895  14.364 -0.4455 -0.2138 -1.0368
 7991TIP3    H145464   2.848   4.958  14.329 -0.6335 -0.2868 -1.5071
 7991TIP3    H245465   2.700   4.924  14.331 -0.5211 -0.7827 -1.3528
 7992TIP3   OH245466   2.333   1.585   5.000  0.5191 -0.2370 -0.2072
 7992TIP3    H145467   2.391   1.541   5.063  0.6179  0.1347 -0.0372
 7992TIP3    H245468   2.360   1.550   4.915  4.0985  3.0790 -0.7366
 7993TIP3   OH245469   5.731   5.500  11.769  0.1260  0.4400  0.1432
 7993TIP3    H145470   5.737   5.596  11.766  0.5334  0.4889  1.7468
 7993TIP3    H245471   5.820   5.471  11.784 -0.2753 -0.0346  1.8962
 7994TIP3   OH245472   1.062   4.437  12.108  0.4182  0.1399  0.2365
 7994TIP3    H145473   1.010   4.427  12.028  0.8873  0.9587 -0.1770
 7994TIP3    H245474   1.000   4.470  12.173  0.1033 -0.2407  0.1361
 7995TIP3   OH245475   0.534   4.223   2.862 -0.0517  0.2589  0.0971
 7995TIP3    H145476   0.451   4.179   2.842  0.1775 -0.5158  0.8127
 7995TIP3    H245477   0.595   4.152   2.880  0.2175  0.8588  1.7204
 7996TIP3   OH245478   1.449   5.144   2.526 -0.0403 -0.2261  0.1095
 7996TIP3    H145479   1.535   5.135   2.484 -0.7862 -1.0300 -1.3198
 7996TIP3    H245480   1.397   5.072   2.491 -2.0138  1.5486 -0.9125
 7997TIP3   OH245481   0.085   0.490   1.916  0.1111 -0.8096  0.0409
 7997TIP3    H145482   0.014   0.457   1.972 -0.0019  0.8152  0.9414
 7997TIP3    H245483   0.159   0.500   1.976  0.5291 -0.7086 -0.4898
 7998TIP3   OH245484   0.988   1.609   1.447  0.5959 -0.5215  0.1403
 7998TIP3    H145485   0.936   1.535   1.413 -3.6940  2.9956 -1.9760
 7998TIP3    H245486   1.050   1.628   1.377  0.7987 -1.2603  0.1049
 7999TIP3   OH245487   0.065   2.834  11.805  0.0353 -0.4257  0.1151
 7999TIP3    H145488   0.029   2.837  11.716 -1.0624 -2.3041  0.4375
 7999TIP3    H245489   0.140   2.776  11.799  0.6444  0.3410  0.2146
 8000TIP3   OH245490   2.773   0.659  14.368  0.2050 -0.2773 -0.1818
 8000TIP3    H145491   2.798   0.710  14.291 -0.0501 -0.3615 -0.3221
 8000TIP3    H245492   2.813   0.705  14.442 -0.4613  0.4180 -0.2543
 8001TIP3   OH245493   0.068   4.591   1.930 -0.0580 -0.0757 -0.3955
 8001TIP3    H145494   0.101   4.501   1.925 -0.9260 -0.3446 -1.8221
 8001TIP3    H245495   0.006   4.598   1.857  0.5414  1.9247 -0.7720
 8002TIP3   OH245496   6.269   4.481   4.745  0.0203 -0.3914 -0.3837
 8002TIP3    H145497   6.311   4.513   4.665  0.5169 -2.1378 -0.8708
 8002TIP3    H245498   6.342   4.459   4.803 -0.3298  2.0470  1.1151
 8003TIP3   OH245499   6.807   5.654   1.424  0.0600  0.1912  0.6191
 8003TIP3    H145500   6.790   5.691   1.337  1.1798 -0.9582 -0.1251
 8003TIP3    H245501   6.721   5.628   1.457 -0.2894 -0.1079 -0.5049
 8004TIP3   OH245502   3.314   5.480   4.188 -0.0258 -0.1954  0.2295
 8004TIP3    H145503   3.289   5.544   4.255 -0.3270  0.1310 -0.1867
 8004TIP3    H245504   3.242   5.481   4.126  0.1333 -0.6875  0.0344
 8005TIP3   OH245505   0.985   6.009  11.838  0.4978 -0.0721 -1.2000
 8005TIP3    H145506   0.994   6.032  11.745 -0.5791 -0.2000 -1.3548
 8005TIP3    H245507   1.029   6.080  11.885  0.7024  0.1987 -1.7989
 8006TIP3   OH245508   1.521   0.245   1.550 -1.2091  0.9618  0.1110
 8006TIP3    H145509   1.548   0.253   1.458 -1.7124  1.2518 -0.0201
 8006TIP3    H245510   1.583   0.300   1.598 -0.7003  0.4949 -0.0025
 8007TIP3   OH245511   0.546   1.354  17.101  0.3155  0.1432 -0.1311
 8007TIP3    H145512   0.497   1.275  17.124  1.4965 -0.4873  0.2884
 8007TIP3    H245513   0.526   1.368  17.008 -2.4180  1.2105  0.5155
 8008TIP3   OH245514   0.812   3.177   2.592 -0.6357 -0.0951 -0.0979
 8008TIP3    H145515   0.811   3.085   2.564  0.6692 -0.4620  0.9907
 8008TIP3    H245516   0.895   3.211   2.560  0.2090 -0.1154  1.9563
 8009TIP3   OH245517   0.135   6.814  15.896 -0.1185  0.2691  0.2009
 8009TIP3    H145518   0.209   6.874  15.894  0.2035 -0.0898  0.9995
 8009TIP3    H245519   0.171   6.731  15.864  0.0490 -0.1229  1.3441
 8010TIP3   OH245520   1.045   6.392  14.821 -0.0654 -0.4900 -0.4923
 8010TIP3    H145521   0.980   6.373  14.889 -1.9191  1.6715 -1.5060
 8010TIP3    H245522   0.993   6.401  14.741  1.4545  1.4503 -1.3397
 8011TIP3   OH245523   2.644   6.812   0.679 -0.0279 -0.0017  0.4441
 8011TIP3    H145524   2.676   6.867   0.751  0.3393 -1.0742  1.1304
 8011TIP3    H245525   2.615   6.732   0.722  0.1048 -0.6201 -0.6058
 8012TIP3   OH245526   5.608   5.408   3.802  0.5356  0.4738  0.1495
 8012TIP3    H145527   5.704   5.408   3.800  0.5502 -1.1186 -0.1784
 8012TIP3    H245528   5.584   5.489   3.757  1.7270  0.6756 -0.1658
 8013TIP3   OH245529   0.988   2.758  11.251 -0.2088 -0.3956  0.5838
 8013TIP3    H145530   1.058   2.696  11.230 -0.0472  0.0761 -0.3268
 8013TIP3    H245531   1.030   2.844  11.245  0.3686 -0.1773  4.6899
 8014TIP3   OH245532   0.905   5.258  13.998  0.0602  1.0163 -0.0959
 8014TIP3    H145533   0.940   5.344  13.973  0.8191  0.9768  0.7703
 8014TIP3    H245534   0.944   5.241  14.084 -1.3252  0.5021  0.4508
 8015TIP3   OH245535   3.446   1.304  10.950  0.1204 -0.7115 -0.1205
 8015TIP3    H145536   3.395   1.376  10.987 -0.6439 -0.8635 -0.8510
 8015TIP3    H245537   3.531   1.343  10.929 -0.1650 -0.1158 -0.1760
 8016TIP3   OH245538   4.227   1.116   1.415  0.0377 -0.0564  0.1378
 8016TIP3    H145539   4.257   1.175   1.345  1.9970 -0.5272  0.5107
 8016TIP3    H245540   4.304   1.063   1.435 -0.7754 -0.6052  1.9826
 8017TIP3   OH245541   4.022   0.396  14.144 -0.2333  0.3247 -0.2630
 8017TIP3    H145542   4.045   0.481  14.181  1.7535  0.0056 -0.6594
 8017TIP3    H245543   3.953   0.363  14.202 -0.5475  1.8872  0.3038
 8018TIP3   OH245544   2.133   0.300  11.501 -0.6758  0.2451 -0.7191
 8018TIP3    H145545   2.090   0.376  11.540  0.1789 -0.1521  1.0970
 8018TIP3    H245546   2.063   0.236  11.489 -0.9167  0.2269  0.6237
 8019TIP3   OH245547   1.725   3.052   2.760 -0.0549 -0.4463  0.0607
 8019TIP3    H145548   1.698   3.007   2.841  2.9998 -0.3337  1.2963
 8019TIP3    H245549   1.742   2.981   2.698  0.7045 -0.7683  0.6200
 8020TIP3   OH245550   2.961   5.913  11.452  0.4011 -0.5118  0.1817
 8020TIP3    H145551   3.046   5.893  11.492  1.3037 -1.0338 -1.8571
 8020TIP3    H245552   2.981   5.978  11.384 -0.8274 -0.6026 -0.2925
 8021TIP3   OH245553   2.835   2.819  14.864  0.1080 -0.4782 -0.1851
 8021TIP3    H145554   2.855   2.874  14.788  0.3395 -0.2000  0.0733
 8021TIP3    H245555   2.751   2.778  14.843  0.3885 -0.7583 -0.7853
 8022TIP3   OH245556   1.866   6.123   3.735 -0.5553  0.5349 -0.3764
 8022TIP3    H145557   1.819   6.040   3.727 -1.4924  1.0823 -0.7164
 8022TIP3    H245558   1.910   6.118   3.820  0.7160 -0.9598 -1.0791
 8023TIP3   OH245559   5.872   0.400  16.534 -0.3777  0.4270 -0.2977
 8023TIP3    H145560   5.868   0.366  16.445  4.3272  0.9667 -0.9674
 8023TIP3    H245561   5.845   0.327  16.589 -0.9362 -0.7465 -2.0460
 8024TIP3   OH245562   1.402   0.835   1.592 -0.0599  0.2671  0.4954
 8024TIP3    H145563   1.429   0.779   1.665 -1.5150 -1.2019 -0.0228
 8024TIP3    H245564   1.428   0.787   1.514 -1.7849 -0.0038  0.0336
 8025TIP3   OH245565   5.738   2.480   2.682 -0.3604  0.2072  0.1039
 8025TIP3    H145566   5.778   2.402   2.719  0.0843  0.1229 -0.5312
 8025TIP3    H245567   5.801   2.511   2.617 -0.2781  1.4208  0.7343
 8026TIP3   OH245568   0.121   1.802  13.215  0.1772 -0.2285 -0.0857
 8026TIP3    H145569   0.197   1.827  13.267 -1.1078  0.9238  1.3088
 8026TIP3    H245570   0.158   1.747  13.145  1.9965 -1.5241  1.7789
 8027TIP3   OH245571   5.529   6.662   0.551  0.1421  0.6406  0.1149
 8027TIP3    H145572   5.490   6.575   0.557  3.1670 -0.7100  2.4732
 8027TIP3    H245573   5.494   6.710   0.626 -0.0613  0.8674 -0.1170
 8028TIP3   OH245574   5.227   3.986  12.906  0.2493  0.4174  0.0888
 8028TIP3    H145575   5.197   4.011  12.819  0.3207  0.5397  0.0980
 8028TIP3    H245576   5.150   3.947  12.948 -0.2702  1.8362  0.5419
 8029TIP3   OH245577   1.248   0.750  12.698  0.4321  1.0582 -0.6242
 8029TIP3    H145578   1.184   0.813  12.730  0.5454  1.6008 -1.4334
 8029TIP3    H245579   1.200   0.696  12.635 -0.0051 -0.5302  0.9595
 8030TIP3   OH245580   2.169   4.836  11.924 -0.7713  0.2075 -0.1270
 8030TIP3    H145581   2.155   4.928  11.900 -0.2858  0.1756 -0.5507
 8030TIP3    H245582   2.115   4.786  11.863  1.9545  0.0149 -2.6101
 8031TIP3   OH245583   5.027   5.809  12.783  0.4917 -0.1041 -0.0368
 8031TIP3    H145584   5.044   5.877  12.848  1.9815  0.8513 -1.3646
 8031TIP3    H245585   5.039   5.727  12.832  0.8588  0.5793  1.0745
 8032TIP3   OH245586   4.791   4.472   5.317  0.1611  0.2099  0.1056
 8032TIP3    H145587   4.709   4.424   5.331  0.6366 -1.4799 -2.2892
 8032TIP3    H245588   4.844   4.413   5.264  0.8606  3.3036 -2.9658
 8033TIP3   OH245589   2.647   5.658   1.142 -0.1842  0.1833  0.2669
 8033TIP3    H145590   2.612   5.572   1.118  0.0116  0.2580 -0.3095
 8033TIP3    H245591   2.620   5.716   1.070 -2.2625  1.1303  1.7024
 8034TIP3   OH245592   3.814   1.353   1.405 -0.6886  0.2208 -0.4173
 8034TIP3    H145593   3.874   1.414   1.363  0.0876  0.4557  0.9713
 8034TIP3    H245594   3.848   1.266   1.381 -0.4188  0.3475 -0.4980
 8035TIP3   OH245595   3.535   4.349  17.086 -0.2648 -0.0983 -0.1360
 8035TIP3    H145596   3.589   4.386  17.156 -0.6978  1.3246 -0.5263
 8035TIP3    H245597   3.498   4.425  17.041  0.0044 -0.9760 -1.9285
 8036TIP3   OH245598   1.944   1.789  11.371 -0.3356  0.0065 -0.1001
 8036TIP3    H145599   2.004   1.758  11.303 -0.2693  1.7149 -0.8895
 8036TIP3    H245600   1.857   1.764  11.341 -0.2478  0.1634 -0.4873
 8037TIP3   OH245601   5.565   3.100   3.995  0.4517 -0.3373 -0.0254
 8037TIP3    H145602   5.583   3.023   3.940 -0.6323 -0.3757 -0.3510
 8037TIP3    H245603   5.550   3.063   4.083  0.0543 -0.4882 -0.1555
 8038TIP3   OH245604   0.251   6.241  16.693  0.0535  0.4110 -0.1043
 8038TIP3    H145605   0.305   6.269  16.619  1.3733 -0.6395  0.4250
 8038TIP3    H245606   0.205   6.164  16.662  2.2378 -1.3373  0.7581
 8039TIP3   OH245607   2.289   2.453   0.812  0.2565  0.0714 -0.3017
 8039TIP3    H145608   2.226   2.520   0.786 -0.0479 -0.0209  0.1825
 8039TIP3    H245609   2.279   2.446   0.907  0.0302 -0.9158 -0.3832
 8040TIP3   OH245610   3.012   2.509   3.209 -0.2175  0.0203 -0.0292
 8040TIP3    H145611   3.076   2.580   3.213  0.6439 -0.7105 -0.5011
 8040TIP3    H245612   3.041   2.447   3.276 -0.5874 -0.1972 -0.0689
 8041TIP3   OH245613   3.578   4.084  11.713 -0.1098  0.3971  0.5176
 8041TIP3    H145614   3.522   4.082  11.636 -0.0938  1.2903  0.4768
 8041TIP3    H245615   3.665   4.108  11.681 -0.0590  0.5869  0.7880
 8042TIP3   OH245616   1.070   0.794   3.609  0.4932  0.4992  0.3332
 8042TIP3    H145617   1.117   0.877   3.611  1.0079  0.2129  0.1006
 8042TIP3    H245618   1.138   0.727   3.609  0.0842  0.0772  0.2766
 8043TIP3   OH245619   0.238   2.559   6.489 -0.1055 -0.3306  0.0037
 8043TIP3    H145620   0.174   2.490   6.506  0.2056 -0.4149  0.8982
 8043TIP3    H245621   0.309   2.515   6.442 -1.6140  0.1946 -3.0189
 8044TIP3   OH245622   2.170   4.341   1.719 -0.3018  0.7246  0.0492
 8044TIP3    H145623   2.159   4.320   1.626  1.0476 -0.7639  0.1838
 8044TIP3    H245624   2.249   4.396   1.722 -0.3159  0.7326  0.3200
 8045TIP3   OH245625   5.796   6.121   2.883 -0.5959 -0.1666 -0.3937
 8045TIP3    H145626   5.753   6.153   2.803 -0.3050 -0.6022 -0.7285
 8045TIP3    H245627   5.880   6.168   2.885 -0.8167  0.2155 -0.0766
 8046TIP3   OH245628   0.267   6.540   3.270  0.3323  0.0302  0.0342
 8046TIP3    H145629   0.255   6.491   3.351 -1.1613 -1.8604 -1.2176
 8046TIP3    H245630   0.358   6.523   3.246  0.5860  0.0348  0.9607
 8047TIP3   OH245631   3.254   4.949   5.649  0.2615  0.1904  0.1528
 8047TIP3    H145632   3.231   5.042   5.655  1.1856  0.3925  0.6713
 8047TIP3    H245633   3.169   4.904   5.647 -0.1983  0.9484  1.4457
 8048TIP3   OH245634   1.641   4.881   0.881 -0.1483 -0.3611  0.4463
 8048TIP3    H145635   1.641   4.793   0.919  0.3366 -1.1668 -1.3257
 8048TIP3    H245636   1.722   4.885   0.830 -0.1658  1.1301  0.4806
 8049TIP3   OH245637   4.302   0.841   0.838 -0.1131  0.0102  0.8606
 8049TIP3    H145638   4.286   0.924   0.883  0.3301  0.7852 -0.3620
 8049TIP3    H245639   4.397   0.829   0.843  0.0751  0.6178 -0.6784
 8050TIP3   OH245640   3.999   4.211   5.434  0.5864 -0.0583 -0.0831
 8050TIP3    H145641   4.014   4.119   5.457  0.3913 -1.1666 -3.6836
 8050TIP3    H245642   4.077   4.236   5.386  1.2511  2.2176  2.0131
 8051TIP3   OH245643   2.110   6.729  17.038 -0.4315 -0.0947  0.8259
 8051TIP3    H145644   2.175   6.796  17.060 -1.1379  0.5956  0.8830
 8051TIP3    H245645   2.076   6.699  17.122  1.8152 -2.5802  0.9810
 8052TIP3   OH245646   0.201   3.531  10.933 -0.0292  1.2657 -0.2994
 8052TIP3    H145647   0.233   3.614  10.968  0.1776 -0.0216  2.8615
 8052TIP3    H245648   0.133   3.503  10.995 -0.2297 -0.8556 -1.3743
 8053TIP3   OH245649   3.691   6.487   1.348  0.4320 -0.0864 -0.4022
 8053TIP3    H145650   3.785   6.503   1.345  0.2442  1.1126 -0.6049
 8053TIP3    H245651   3.664   6.523   1.433  0.0127  0.5324 -0.7900
 8054TIP3   OH245652   6.431   0.553  11.076  0.5273 -0.3263 -0.1817
 8054TIP3    H145653   6.475   0.511  11.002  0.2350  0.8137 -1.0372
 8054TIP3    H245654   6.340   0.561  11.048 -0.1233 -2.0716  1.3076
 8055TIP3   OH245655   4.840   2.692   1.001  0.1224  0.5785 -0.3040
 8055TIP3    H145656   4.859   2.778   0.964 -0.1036  0.4500 -0.7289
 8055TIP3    H245657   4.745   2.687   1.003  0.1345  0.4539 -0.0101
 8056TIP3   OH245658   3.367   3.156  14.626 -0.5037  0.0206 -0.1385
 8056TIP3    H145659   3.437   3.205  14.669 -1.1981 -0.3890  1.5178
 8056TIP3    H245660   3.329   3.102  14.695 -1.3209 -1.0669 -1.3947
 8057TIP3   OH245661   1.218   5.224  14.187  0.0590 -0.1043 -0.0929
 8057TIP3    H145662   1.287   5.277  14.147 -1.3055  0.7591 -1.4240
 8057TIP3    H245663   1.246   5.134  14.173  1.7487  0.2118  0.9861
 8058TIP3   OH245664   2.964   3.602   0.649  0.1395  0.2239 -0.3829
 8058TIP3    H145665   2.922   3.531   0.601  0.6388 -0.4059  0.0911
 8058TIP3    H245666   2.925   3.598   0.737  1.3837 -0.5856  0.1685
 8059TIP3   OH245667   1.770   0.607   1.953 -0.1285  0.3254  0.0948
 8059TIP3    H145668   1.858   0.585   1.922  0.5862 -1.0189  2.7409
 8059TIP3    H245669   1.773   0.701   1.970  1.5927 -0.0120  2.1450
 8060TIP3   OH245670   2.606   6.212  12.581 -0.9136  0.2964  0.1626
 8060TIP3    H145671   2.557   6.247  12.507 -1.1250 -0.9760 -0.3198
 8060TIP3    H245672   2.698   6.231  12.560 -1.0981  1.5598  0.4646
 8061TIP3   OH245673   4.342   0.414  14.255 -0.0429  0.4167 -0.0039
 8061TIP3    H145674   4.417   0.387  14.202 -0.1747 -0.8874  0.4228
 8061TIP3    H245675   4.336   0.508  14.242  2.4326  0.7856  0.9093
 8062TIP3   OH245676   2.127   2.457  14.000 -0.0157  0.1148 -0.1139
 8062TIP3    H145677   2.041   2.485  13.969 -0.1339 -1.8811 -1.8854
 8062TIP3    H245678   2.135   2.495  14.087 -3.5718 -1.1973  0.9983
 8063TIP3   OH245679   1.716   0.912  10.755  0.2642  0.1127 -0.7713
 8063TIP3    H145680   1.725   0.822  10.786 -0.4452  0.0950 -0.6162
 8063TIP3    H245681   1.806   0.945  10.752  0.5993 -0.8177 -1.5084
 8064TIP3   OH245682   4.943   4.755  12.364 -0.3502  0.1036  0.3077
 8064TIP3    H145683   4.853   4.769  12.395 -0.6343 -1.6961  0.4426
 8064TIP3    H245684   4.933   4.702  12.285  0.6046 -0.5736  0.6198
 8065TIP3   OH245685   6.178   0.015  14.640 -0.0423 -0.1933 -0.0402
 8065TIP3    H145686   6.220   0.065  14.710  0.4669  0.6363 -0.9067
 8065TIP3    H245687   6.246   0.004  14.574 -0.6572 -0.4665 -0.6494
 8066TIP3   OH245688   5.036   2.713  14.009 -0.0621 -0.8374  0.9345
 8066TIP3    H145689   5.127   2.743  14.006 -0.0291 -0.5925  2.8681
 8066TIP3    H245690   5.042   2.618  14.020  0.0112 -0.7067  2.1547
 8067TIP3   OH245691   5.624   4.114  16.137 -0.5032 -0.7161  0.3020
 8067TIP3    H145692   5.676   4.192  16.118 -0.6315  0.0198  2.7199
 8067TIP3    H245693   5.535   4.137  16.109 -0.7485  0.4402  1.9116
 8068TIP3   OH245694   3.883   3.983  15.446  0.2211 -0.2796  0.3939
 8068TIP3    H145695   3.835   3.954  15.524 -1.0856 -0.2553 -0.3727
 8068TIP3    H245696   3.895   4.077  15.459 -0.6622 -0.1364  0.2294
 8069TIP3   OH245697   5.420   0.334   5.090  0.6443  0.5754 -0.1606
 8069TIP3    H145698   5.434   0.373   5.004  1.4163  0.3378 -0.1492
 8069TIP3    H245699   5.498   0.282   5.106 -0.5007 -1.2744 -0.3085
 8070TIP3   OH245700   4.789   0.207  16.049  0.5142  0.2806 -0.4471
 8070TIP3    H145701   4.761   0.119  16.074 -0.7239 -0.0505 -2.6588
 8070TIP3    H245702   4.726   0.265  16.091  0.2309 -0.0355 -0.4278
 8071TIP3   OH245703   4.294   6.389  15.341  0.2612 -0.4966 -0.2254
 8071TIP3    H145704   4.215   6.349  15.305 -0.5354 -1.1272  2.0507
 8071TIP3    H245705   4.270   6.481  15.356  0.3721 -0.3995 -0.6166
 8072TIP3   OH245706   6.088   5.614  11.559 -0.2881  0.0748 -0.4968
 8072TIP3    H145707   6.128   5.690  11.517  2.4581 -1.4029 -0.7777
 8072TIP3    H245708   6.058   5.559  11.487 -2.6054  0.9806 -0.2903
 8073TIP3   OH245709   1.572   1.319   3.838  0.0266 -0.2458 -0.1018
 8073TIP3    H145710   1.576   1.225   3.855 -1.4631 -0.3876 -0.4368
 8073TIP3    H245711   1.488   1.332   3.794  1.1748  0.9153 -2.1121
 8074TIP3   OH245712   0.979   6.373   3.560 -0.9407  0.5191 -0.4944
 8074TIP3    H145713   0.961   6.333   3.645 -1.3037 -2.3322 -1.7795
 8074TIP3    H245714   0.922   6.326   3.499  2.0493 -0.3297 -2.8809
 8075TIP3   OH245715   5.479   2.535  14.580 -0.0927  0.1054 -0.0427
 8075TIP3    H145716   5.494   2.506  14.490  1.1398 -1.5296  0.6345
 8075TIP3    H245717   5.461   2.454  14.628  0.0270  0.8620  1.3215
 8076TIP3   OH245718   4.046   4.058  16.506  0.2720 -0.1352 -0.2442
 8076TIP3    H145719   4.025   4.078  16.415 -0.5620 -1.7482 -0.4488
 8076TIP3    H245720   4.043   3.962  16.511  2.2724 -0.1948  1.0257
 8077TIP3   OH245721   1.500   2.478   3.151  0.1903  0.3902  0.1178
 8077TIP3    H145722   1.511   2.411   3.219 -0.7188 -0.1260 -0.2165
 8077TIP3    H245723   1.502   2.428   3.069 -1.0193  0.6919 -0.1125
 8078TIP3   OH245724   0.516   0.011  15.430 -0.0791 -0.1058  0.3279
 8078TIP3    H145725   0.453  -0.019  15.364  0.4320  1.7881 -1.0905
 8078TIP3    H245726   0.474   0.087  15.471  1.2681  1.2404 -0.6953
 8079TIP3   OH245727   4.720   5.983   2.222  0.3726 -0.0020  0.8035
 8079TIP3    H145728   4.683   5.997   2.309  1.6453  2.2789  1.0443
 8079TIP3    H245729   4.814   5.994   2.233  0.8631 -2.3407 -0.4094
 8080TIP3   OH245730   6.567   4.876  15.093 -0.1859 -0.1085 -0.0196
 8080TIP3    H145731   6.657   4.883  15.125  0.0883  2.3060 -1.1357
 8080TIP3    H245732   6.531   4.964  15.101 -3.5386 -1.4750  3.1032
 8081TIP3   OH245733   3.349   0.308  17.084 -0.2872  0.0223  0.3704
 8081TIP3    H145734   3.352   0.386  17.029  1.4347 -0.5064 -0.3625
 8081TIP3    H245735   3.296   0.334  17.159 -0.8091  1.4816 -0.4607
 8082TIP3   OH245736   1.581   0.710  13.558 -0.4042  0.1770  0.3801
 8082TIP3    H145737   1.497   0.735  13.597 -0.2456 -1.4123  1.8570
 8082TIP3    H245738   1.624   0.794  13.537 -1.8895  1.0165  0.5893
 8083TIP3   OH245739   6.848   3.801   4.907  0.1299  0.2491 -0.3158
 8083TIP3    H145740   6.799   3.758   4.837  0.2729 -0.7268  0.1694
 8083TIP3    H245741   6.841   3.742   4.982 -2.3527  2.5004  1.4038
 8084TIP3   OH245742   5.309   1.540   0.034  0.3855 -0.2260 -0.1460
 8084TIP3    H145743   5.331   1.621  -0.013  1.4540 -0.0343  0.6310
 8084TIP3    H245744   5.213   1.540   0.038  0.3643  1.3972  0.4602
 8085TIP3   OH245745   5.278   2.831   1.086  0.5142 -0.4644 -0.5260
 8085TIP3    H145746   5.369   2.839   1.115  0.2304  1.1095  0.0073
 8085TIP3    H245747   5.247   2.921   1.079 -0.1345 -0.8147 -3.6275
 8086TIP3   OH245748   5.566   1.002   4.298  0.8934  0.1136 -0.0196
 8086TIP3    H145749   5.561   1.067   4.228 -2.2739  0.6815  0.5868
 8086TIP3    H245750   5.590   1.052   4.376 -0.4030  0.4182  0.2131
 8087TIP3   OH245751   3.008   0.320  16.958 -0.0342 -0.2957  0.3305
 8087TIP3    H145752   2.999   0.403  16.910  0.8100  1.2866  2.7361
 8087TIP3    H245753   3.081   0.276  16.915  0.9269  1.2195  0.3208
 8088TIP3   OH245754   3.212   3.446  14.871  0.2483  0.4670 -0.0323
 8088TIP3    H145755   3.147   3.405  14.814 -0.8485 -0.8381  2.0374
 8088TIP3    H245756   3.286   3.386  14.870 -0.6608 -0.7647  1.5980
 8089TIP3   OH245757   3.880   2.479   2.163  0.0898  0.6998 -0.1127
 8089TIP3    H145758   3.929   2.445   2.088 -0.7765 -0.0828 -0.3459
 8089TIP3    H245759   3.826   2.406   2.192 -1.0302  1.5548  0.0579
 8090TIP3   OH245760   1.548   5.141  14.746  0.2469 -0.5502 -0.6158
 8090TIP3    H145761   1.630   5.094  14.728 -0.4604 -1.1367 -2.4806
 8090TIP3    H245762   1.553   5.219  14.691 -0.8356 -1.0578 -1.4609
 8091TIP3   OH245763   3.396   1.144  11.253  0.1381 -0.1444  0.2185
 8091TIP3    H145764   3.364   1.233  11.270  0.2353  0.0463 -0.5864
 8091TIP3    H245765   3.468   1.156  11.192 -0.9226 -0.8995 -1.2348
 8092TIP3   OH245766   5.349   0.988   4.833  0.1517  0.0351 -0.1365
 8092TIP3    H145767   5.275   1.011   4.889  0.1945 -0.2745  0.0481
 8092TIP3    H245768   5.309   0.942   4.759  0.1956 -0.4787  0.1562
 8093TIP3   OH245769   2.188   6.340  14.758 -0.8717  0.2143  0.0286
 8093TIP3    H145770   2.093   6.336  14.771 -1.0131  0.1138 -0.9475
 8093TIP3    H245771   2.210   6.257  14.715 -0.2785  0.0694  0.6035
 8094TIP3   OH245772   2.186   1.679   0.887 -0.2446  0.3273 -0.2181
 8094TIP3    H145773   2.223   1.680   0.799 -0.6112 -0.1129 -0.3823
 8094TIP3    H245774   2.262   1.688   0.945  0.1476 -0.6407 -0.5519
 8095TIP3   OH245775   1.085   5.778  15.614  0.1036 -0.0481  0.0031
 8095TIP3    H145776   1.068   5.713  15.546  1.4447 -0.4203 -0.0068
 8095TIP3    H245777   1.128   5.729  15.684  0.3436  0.6643  0.3653
 8096TIP3   OH245778   3.358   3.783   2.251 -0.1471 -0.1070  0.4528
 8096TIP3    H145779   3.293   3.720   2.220  0.1706 -0.0450 -0.3409
 8096TIP3    H245780   3.442   3.743   2.229  0.0640  0.3203  0.4916
 8097TIP3   OH245781   2.380   0.033   4.240 -0.3031 -0.4122 -0.6068
 8097TIP3    H145782   2.457  -0.023   4.237  0.0919 -0.0514  1.2709
 8097TIP3    H245783   2.413   0.120   4.218 -0.4616 -0.5006 -1.2075
 8098TIP3   OH245784   5.433   5.437   4.116 -0.7440 -0.3897  0.4144
 8098TIP3    H145785   5.412   5.491   4.192  0.7252 -0.0752  0.6311
 8098TIP3    H245786   5.487   5.494   4.061 -0.0476 -1.2955  0.1416
 8099TIP3   OH245787   0.163   0.794  12.525  0.2887  0.2085  0.1450
 8099TIP3    H145788   0.207   0.783  12.440 -0.4238  1.1730 -0.3687
 8099TIP3    H245789   0.073   0.819  12.502 -0.4913 -1.4863  1.1781
 8100TIP3   OH245790   6.294   4.860   3.222  0.4865 -0.0865 -0.3756
 8100TIP3    H145791   6.352   4.795   3.181  1.9133 -0.5208  2.1543
 8100TIP3    H245792   6.237   4.809   3.278  1.3005  0.7375  1.2752
 8101TIP3   OH245793   3.885   1.070  14.553  0.4203 -0.2194  0.0393
 8101TIP3    H145794   3.863   1.140  14.492 -2.0137 -0.3504  0.6617
 8101TIP3    H245795   3.868   0.990  14.504  1.5643 -0.3874 -0.1140
 8102TIP3   OH245796   6.392   3.907   1.894  0.0163 -0.7135 -0.1096
 8102TIP3    H145797   6.320   3.893   1.955  0.2371  1.3365  0.6888
 8102TIP3    H245798   6.369   3.987   1.846  1.2665 -0.6018 -0.5714
 8103TIP3   OH245799   3.763   3.201  16.881  0.3525  0.2595  0.5664
 8103TIP3    H145800   3.826   3.221  16.950  3.1680  0.6263 -1.8974
 8103TIP3    H245801   3.790   3.115  16.848 -0.8589  0.1216 -0.1065
 8104TIP3   OH245802   3.627   4.971  10.335  0.6763 -0.3282  0.2176
 8104TIP3    H145803   3.662   5.048  10.380  2.3380 -0.7247 -0.3096
 8104TIP3    H245804   3.693   4.903  10.350  0.0506 -1.1573 -0.7190
 8105TIP3   OH245805   1.789   2.657  14.705 -0.1941  0.2048 -0.1520
 8105TIP3    H145806   1.769   2.577  14.655 -1.8055  0.1108  0.5829
 8105TIP3    H245807   1.799   2.627  14.795  0.1526  0.7104 -0.0198
 8106TIP3   OH245808   5.010   6.142  17.126  0.0132 -0.8091 -0.2309
 8106TIP3    H145809   4.993   6.219  17.181  0.5456 -1.2201  0.5286
 8106TIP3    H245810   5.054   6.177  17.049  1.3421 -0.4672  0.6528
 8107TIP3   OH245811   4.013   5.332  14.443  0.3653  0.4063  0.0139
 8107TIP3    H145812   3.966   5.367  14.367  1.8364  0.6735 -0.8075
 8107TIP3    H245813   3.970   5.372  14.519 -1.6278 -0.4369 -0.5862
 8108TIP3   OH245814   2.974   6.637  12.482 -0.0575  0.7078  0.2672
 8108TIP3    H145815   3.012   6.599  12.562  2.0753  0.2835 -0.8610
 8108TIP3    H245816   2.958   6.729  12.505  0.7648  0.6548  1.1303
 8109TIP3   OH245817   4.932   4.983   1.147 -0.3742 -0.6255 -0.1244
 8109TIP3    H145818   4.838   5.004   1.139 -0.6332 -1.4946  0.5506
 8109TIP3    H245819   4.952   4.997   1.239  0.5301  0.9674 -0.5266
 8110TIP3   OH245820   3.687   4.429   5.307  0.2828  0.3833  0.3833
 8110TIP3    H145821   3.716   4.346   5.271  0.5670  0.9752 -0.7929
 8110TIP3    H245822   3.681   4.488   5.231 -1.4053  1.0184  0.9514
 8111TIP3   OH245823   3.820   6.313  14.801 -1.2597 -0.3171 -0.3294
 8111TIP3    H145824   3.854   6.346  14.718  1.2995  0.8107  1.0530
 8111TIP3    H245825   3.799   6.221  14.784  2.2763 -1.0625 -1.5011
 8112TIP3   OH245826   1.830   5.708  13.066  0.4774  0.0537  0.6768
 8112TIP3    H145827   1.817   5.646  13.139  2.5777 -1.3209 -0.0341
 8112TIP3    H245828   1.820   5.655  12.987 -0.5097  1.2592 -0.0383
 8113TIP3   OH245829   5.728   5.231  11.959 -0.0148  0.0247  0.0745
 8113TIP3    H145830   5.758   5.280  11.882  2.3653 -1.8888 -0.3248
 8113TIP3    H245831   5.650   5.185  11.929  1.0927 -0.9973 -1.3649
 8114TIP3   OH245832   4.657   6.714   1.916  0.3708  0.0912 -0.4885
 8114TIP3    H145833   4.687   6.786   1.860 -1.2758 -0.3991 -2.0689
 8114TIP3    H245834   4.562   6.716   1.909  0.2957 -2.5196 -0.9039
 8115TIP3   OH245835   5.532   5.159  12.589 -0.1637 -0.7011 -0.2643
 8115TIP3    H145836   5.598   5.102  12.628  0.1059  0.9213  1.8065
 8115TIP3    H245837   5.581   5.232  12.552 -0.7344  0.5398  1.3213
 8116TIP3   OH245838   2.513   4.044  11.549 -0.2654  1.0065  0.1351
 8116TIP3    H145839   2.565   4.118  11.582 -0.6970  0.8223  1.3006
 8116TIP3    H245840   2.423   4.066  11.574 -0.9307  1.7671 -2.6624
 8117TIP3   OH245841   3.157   5.890  12.263  0.0502  0.6987  0.0337
 8117TIP3    H145842   3.250   5.871  12.253 -0.4353 -2.4469  0.4005
 8117TIP3    H245843   3.146   5.907  12.357  0.0719 -0.5638  0.2900
 8118TIP3   OH245844   0.066   2.978   2.700  0.2505 -0.7059 -0.0996
 8118TIP3    H145845   0.019   3.000   2.620  0.1899 -2.0878 -0.4650
 8118TIP3    H245846   0.002   2.992   2.770 -0.5729 -2.0908 -0.5444
 8119TIP3   OH245847   6.121   2.859   5.111 -0.0093 -0.7652 -0.3212
 8119TIP3    H145848   6.086   2.899   5.190  0.3414 -1.2439  0.0852
 8119TIP3    H245849   6.214   2.846   5.130  0.7989  1.8975 -1.9420
 8120TIP3   OH245850   1.904   6.784  16.486  0.2753 -0.1034 -0.0827
 8120TIP3    H145851   1.975   6.848  16.486  0.0060  0.2026  0.6607
 8120TIP3    H245852   1.924   6.726  16.412  2.3206 -1.1518  1.2135
 8121TIP3   OH245853   4.163   2.547  13.493 -0.5646 -0.0164 -0.1143
 8121TIP3    H145854   4.200   2.519  13.577  0.5697 -0.1304 -0.6311
 8121TIP3    H245855   4.130   2.466  13.453  0.5540 -0.2631 -0.5651
 8122TIP3   OH245856   6.448   0.697   0.651  0.0055  0.6066  0.1759
 8122TIP3    H145857   6.398   0.632   0.700 -0.0605  0.3074 -0.2810
 8122TIP3    H245858   6.507   0.645   0.596  0.9435  0.9563  0.8355
 8123TIP3   OH245859   4.024   1.575   2.739  0.5964 -0.3199 -0.1254
 8123TIP3    H145860   3.937   1.544   2.714 -0.2097  0.6554  1.3416
 8123TIP3    H245861   4.077   1.496   2.750 -0.4521 -0.9866  0.1791
 8124TIP3   OH245862   5.344   3.072  15.517 -0.1335  0.4517  0.3885
 8124TIP3    H145863   5.390   2.994  15.547  1.4031  1.2094  0.1026
 8124TIP3    H245864   5.385   3.144  15.565 -1.7252  1.0716  0.8720
 8125TIP3   OH245865   0.567   5.797  10.761 -0.4610  0.2916  0.7234
 8125TIP3    H145866   0.593   5.720  10.811  0.0431  0.8390  1.3328
 8125TIP3    H245867   0.501   5.840  10.815 -0.9834  0.1121  0.2321
 8126TIP3   OH245868   0.847   5.650  13.622 -0.2769  0.5444 -0.4331
 8126TIP3    H145869   0.850   5.563  13.582 -0.4750 -0.4970  1.6687
 8126TIP3    H245870   0.753   5.667  13.633 -0.2471  1.1647 -1.0613
 8127TIP3   OH245871   1.335   3.098  16.070 -0.8735 -0.0915  0.1102
 8127TIP3    H145872   1.267   3.136  16.014 -1.0751 -2.0692 -1.0927
 8127TIP3    H245873   1.410   3.157  16.060 -0.8624 -0.4311 -2.4150
 8128TIP3   OH245874   6.157   1.030   1.053  0.3724  0.2549 -0.2546
 8128TIP3    H145875   6.141   0.994   0.966 -0.8272  0.5177 -0.1627
 8128TIP3    H245876   6.148   0.955   1.112  2.6992 -0.2501 -0.4389
 8129TIP3   OH245877   1.093   4.981   6.164 -0.4307 -0.2451 -0.1212
 8129TIP3    H145878   1.024   5.047   6.157 -0.7726 -0.4019  1.2749
 8129TIP3    H245879   1.160   5.022   6.218 -0.1148 -0.6196 -0.2221
 8130TIP3   OH245880   1.110   3.389  13.838 -0.2314 -0.0995 -0.1206
 8130TIP3    H145881   1.132   3.384  13.931 -0.4090 -0.6054 -0.1031
 8130TIP3    H245882   1.190   3.422  13.796  0.3115 -1.1420  0.0436
 8131TIP3   OH245883   6.294   0.139  12.715  0.7931  0.5819 -0.0614
 8131TIP3    H145884   6.220   0.122  12.658  0.3162  0.5747  0.5542
 8131TIP3    H245885   6.333   0.053  12.730 -0.1354  0.3294  1.0377
 8132TIP3   OH245886   4.389   5.621   2.711 -0.0464 -0.0400 -0.0883
 8132TIP3    H145887   4.465   5.635   2.768 -0.4336  0.7830  0.2397
 8132TIP3    H245888   4.393   5.693   2.648 -0.9249  0.4019  0.3461
 8133TIP3   OH245889   3.913   6.676  12.278  0.4834 -0.4651  0.2879
 8133TIP3    H145890   3.926   6.655  12.370 -2.1910 -0.6863  0.7184
 8133TIP3    H245891   3.911   6.591  12.234 -4.0779 -1.0710  1.0768
 8134TIP3   OH245892   1.582   2.590   3.610  0.3643 -0.4526  0.0293
 8134TIP3    H145893   1.549   2.500   3.599 -1.2736  0.3119 -1.8520
 8134TIP3    H245894   1.631   2.587   3.692 -1.3077 -2.6145  1.0670
 8135TIP3   OH245895   5.101   3.373  11.315 -0.2083 -0.0792  0.5071
 8135TIP3    H145896   5.061   3.423  11.386 -0.7848 -1.0161  0.8638
 8135TIP3    H245897   5.050   3.292  11.311  2.4135 -1.9520  1.9079
 8136TIP3   OH245898   4.677   3.386   3.500 -0.1083 -0.0737 -0.5088
 8136TIP3    H145899   4.724   3.433   3.568 -0.6890  1.0709 -0.8723
 8136TIP3    H245900   4.715   3.416   3.418 -0.6852  0.0023 -0.7570
 8137TIP3   OH245901   0.186   3.601  15.259  0.6618  0.4185 -0.2667
 8137TIP3    H145902   0.194   3.514  15.219 -1.1086 -0.4611  1.1477
 8137TIP3    H245903   0.260   3.606  15.319  1.0641  0.1007 -0.7226
 8138TIP3   OH245904   1.217   3.973  16.274 -0.0262 -0.4736 -0.0098
 8138TIP3    H145905   1.243   3.977  16.366  1.1323 -0.4151 -0.3196
 8138TIP3    H245906   1.296   3.996  16.225 -1.2362  1.9773 -0.9969
 8139TIP3   OH245907   6.013   6.406  15.677 -0.2993  0.4715 -0.0147
 8139TIP3    H145908   6.034   6.360  15.758  0.3665 -3.6021 -2.2279
 8139TIP3    H245909   5.922   6.384  15.660 -0.3451  1.0329 -0.5210
 8140TIP3   OH245910   0.079   4.931   2.521  0.3450  0.6447 -0.0601
 8140TIP3    H145911   0.100   5.021   2.496  2.2931  0.3578  0.3595
 8140TIP3    H245912  -0.017   4.927   2.519  0.2308  2.5727 -0.5691
 8141TIP3   OH245913   4.061   6.370   5.228 -0.2874 -0.4135 -0.8042
 8141TIP3    H145914   3.991   6.366   5.293 -0.2377 -0.4053 -0.7502
 8141TIP3    H245915   4.141   6.352   5.278  0.1119  2.2731 -0.3340
 8142TIP3   OH245916   1.482   0.643  10.515 -0.3044 -0.1360  0.2303
 8142TIP3    H145917   1.509   0.704  10.447 -0.5161  2.1917  2.1008
 8142TIP3    H245918   1.562   0.625  10.565 -0.7022  0.6844  1.2009
 8143TIP3   OH245919   3.989   4.781   6.457  0.1024 -0.1777 -0.0340
 8143TIP3    H145920   3.906   4.828   6.457 -0.0840 -0.5072 -0.6132
 8143TIP3    H245921   3.997   4.745   6.369  0.9811  0.0675 -0.0617
 8144TIP3   OH245922   4.481   2.000  11.886 -0.6070  0.5059  0.0459
 8144TIP3    H145923   4.492   1.912  11.920 -0.3786  0.7584  0.6424
 8144TIP3    H245924   4.402   2.033  11.929 -0.4360  0.7542  0.1720
 8145TIP3   OH245925   6.102   5.304  15.998  0.2075  0.5609 -0.3748
 8145TIP3    H145926   6.035   5.251  16.041  0.1806 -0.2735 -1.4068
 8145TIP3    H245927   6.185   5.266  16.028  0.2065  0.8408 -0.0153
 8146TIP3   OH245928   3.816   2.359   5.306 -0.2275  0.1793  0.3562
 8146TIP3    H145929   3.863   2.441   5.292  0.0201 -0.3596 -2.5490
 8146TIP3    H245930   3.883   2.295   5.328 -0.0418  0.1777 -0.2002
 8147TIP3   OH245931   0.564   5.977   1.681  0.2288  0.1771 -0.3067
 8147TIP3    H145932   0.625   5.978   1.607 -0.1431  0.5625 -0.6210
 8147TIP3    H245933   0.478   5.969   1.640 -0.1158  1.9556 -0.0328
 8148TIP3   OH245934   2.254   4.541   6.676 -0.3365 -0.1064 -0.1634
 8148TIP3    H145935   2.159   4.551   6.673 -0.1971  1.2032 -0.7953
 8148TIP3    H245936   2.284   4.617   6.727  0.1953 -1.9971  2.5649
 8149TIP3   OH245937   4.765   4.095   6.424 -0.6119 -0.1473  0.6745
 8149TIP3    H145938   4.778   4.181   6.464  1.3439  0.0769 -0.3295
 8149TIP3    H245939   4.763   4.035   6.499  1.5899  0.4133  1.2716
 8150TIP3   OH245940   3.118   5.792  13.595  0.2592  0.0764  0.2540
 8150TIP3    H145941   3.104   5.728  13.525  1.1592 -0.1608  0.2837
 8150TIP3    H245942   3.065   5.868  13.568  0.6352  0.0098 -0.7201
 8151TIP3   OH245943   1.456   5.558   1.840 -0.6169 -0.4501 -0.0079
 8151TIP3    H145944   1.483   5.549   1.749 -0.7970  0.7024 -0.1867
 8151TIP3    H245945   1.430   5.469   1.867  3.0275 -1.6633  0.0941
 8152TIP3   OH245946   0.892   5.895  16.730  0.1765 -0.5416 -0.4690
 8152TIP3    H145947   0.987   5.907  16.718  0.4176 -0.7454  0.9681
 8152TIP3    H245948   0.853   5.975  16.695  0.9764  0.0092 -0.1390
 8153TIP3   OH245949   1.398   1.871   5.483  0.1949  0.2996  0.2499
 8153TIP3    H145950   1.362   1.953   5.518 -0.9846 -0.4256  0.8256
 8153TIP3    H245951   1.345   1.803   5.525  1.5616 -0.7867  0.2686
 8154TIP3   OH245952   5.957   5.264   5.410 -0.5144  0.6061  0.5074
 8154TIP3    H145953   5.908   5.187   5.439 -0.2618  0.2430 -0.0183
 8154TIP3    H245954   5.890   5.328   5.386 -0.7248  0.5601  0.9718
 8155TIP3   OH245955   3.320   4.301   1.384 -0.0205  0.0490  0.6054
 8155TIP3    H145956   3.354   4.266   1.301  0.5734 -1.2208  1.3570
 8155TIP3    H245957   3.390   4.285   1.447 -0.6441  0.5976  1.4576
 8156TIP3   OH245958   1.985   2.144  12.178 -0.1938  0.1541  0.2848
 8156TIP3    H145959   2.034   2.167  12.099  2.3089  2.5569  2.3319
 8156TIP3    H245960   2.039   2.078  12.221 -1.0879 -0.4948  0.4255
 8157TIP3   OH245961   3.166   4.554  15.714 -0.0586  0.6378 -0.0702
 8157TIP3    H145962   3.172   4.638  15.758 -0.0882  0.7660 -0.3092
 8157TIP3    H245963   3.186   4.489  15.782  0.7578  0.8784 -0.0780
 8158TIP3   OH245964   1.067   3.802   3.886  0.1714  0.7544 -0.5934
 8158TIP3    H145965   1.081   3.708   3.872 -0.7672  0.5026  0.0692
 8158TIP3    H245966   0.994   3.806   3.947 -0.1549  1.9395 -1.0457
 8159TIP3   OH245967   2.735   4.515  13.870  0.3671  0.0660  0.6676
 8159TIP3    H145968   2.822   4.507  13.910  1.2975  0.5127 -1.1602
 8159TIP3    H245969   2.727   4.608  13.848 -0.1080 -0.1664 -0.1720
 8160TIP3   OH245970   5.435   3.460  12.538  0.1350 -0.0780 -0.1444
 8160TIP3    H145971   5.443   3.556  12.546  0.6394 -0.1349  0.0971
 8160TIP3    H245972   5.505   3.436  12.477 -0.1943 -0.2601 -0.4519
 8161TIP3   OH245973   6.689   3.619   3.005 -0.1735 -0.3252  0.2210
 8161TIP3    H145974   6.706   3.537   2.958  0.3717 -0.0534 -0.0537
 8161TIP3    H245975   6.646   3.591   3.086  0.7690 -0.9533  0.5157
 8162TIP3   OH245976   2.570   5.101   2.213  0.2299  0.0874 -0.3010
 8162TIP3    H145977   2.486   5.144   2.193  0.2414 -0.5566 -1.9057
 8162TIP3    H245978   2.608   5.083   2.127  1.1400 -1.3380  0.3677
 8163TIP3   OH245979   0.380   1.056  13.314  0.4842  0.0749  0.0484
 8163TIP3    H145980   0.417   1.067  13.402 -0.5501 -1.9903  0.7812
 8163TIP3    H245981   0.286   1.060  13.326  0.3149  1.7308 -1.3107
 8164TIP3   OH245982   5.073   0.829   2.408 -0.2831 -1.2293 -0.1239
 8164TIP3    H145983   5.154   0.806   2.452 -0.5629 -3.6279 -0.7148
 8164TIP3    H245984   5.035   0.899   2.461  1.0874 -1.5872  1.3819
 8165TIP3   OH245985   1.957   4.854   1.793 -0.0436  0.0995  0.2906
 8165TIP3    H145986   2.001   4.930   1.831 -0.0484 -0.7310  2.1006
 8165TIP3    H245987   1.991   4.848   1.704  1.1559  1.2863  0.6341
 8166TIP3   OH245988   6.083   2.814   4.191  0.3871  0.1890  0.3556
 8166TIP3    H145989   6.112   2.777   4.274 -2.0387  0.3576  1.3541
 8166TIP3    H245990   5.988   2.806   4.193  0.0784  2.4177 -1.3667
 8167TIP3   OH245991   0.425   3.021  11.511  0.3429  0.3718  0.4174
 8167TIP3    H145992   0.351   3.055  11.562  0.2290  0.5724  0.1174
 8167TIP3    H245993   0.482   3.097  11.498 -0.0670  0.5272 -0.5258
 8168TIP3   OH245994   2.724   0.164   5.773 -0.1609  0.4877  0.2781
 8168TIP3    H145995   2.780   0.111   5.830  1.4036  1.8249  0.0670
 8168TIP3    H245996   2.745   0.133   5.684 -0.2562  0.5301  0.2414
 8169TIP3   OH245997   2.331   3.424   0.291  0.3960 -0.1229 -0.0755
 8169TIP3    H145998   2.317   3.338   0.251 -3.9541  1.1177 -1.7987
 8169TIP3    H245999   2.362   3.479   0.220 -1.4162  0.7249 -0.2542
 8170TIP3   OH246000   5.702   1.831   5.562  0.2513 -0.0144  0.2189
 8170TIP3    H146001   5.721   1.883   5.640 -0.2074  2.5557 -1.2698
 8170TIP3    H246002   5.782   1.836   5.509  0.0278 -0.4418 -0.1672
 8171TIP3   OH246003   5.310   2.948  14.544 -0.3618  0.6587 -0.3004
 8171TIP3    H146004   5.271   3.033  14.524  0.1825  0.9627 -0.0805
 8171TIP3    H246005   5.370   2.965  14.616  0.3297  0.2363 -0.7650
 8172TIP3   OH246006   3.097   6.714  15.196  0.0414 -0.5291 -0.3417
 8172TIP3    H146007   3.101   6.802  15.160  0.5606 -0.0151  0.9339
 8172TIP3    H246008   3.004   6.695  15.202 -0.0993  0.2934  0.2128
 8173TIP3   OH246009   0.362   5.792   0.227 -0.5359  0.4339 -0.1782
 8173TIP3    H146010   0.357   5.887   0.224 -1.8475  0.5124  1.9428
 8173TIP3    H246011   0.323   5.762   0.145 -0.7929  1.7030 -0.5328
 8174TIP3   OH246012   6.171   4.790  10.777  0.2987 -0.2467  0.0542
 8174TIP3    H146013   6.117   4.714  10.754  1.2726 -1.2970  1.0942
 8174TIP3    H246014   6.260   4.765  10.750  0.2771  1.6756 -2.1586
 8175TIP3   OH246015   3.571   4.693  11.591  0.3807  0.4151  0.3490
 8175TIP3    H146016   3.613   4.770  11.552  0.8396 -0.2006 -0.3952
 8175TIP3    H246017   3.477   4.707  11.578  0.5456 -0.1832 -1.8055
 8176TIP3   OH246018   1.110   6.013   0.040 -0.1735  0.1307 -0.0446
 8176TIP3    H146019   1.180   5.959   0.005 -0.6498 -0.0565 -0.7396
 8176TIP3    H246020   1.047   6.021  -0.033 -0.9164  0.2123  0.5927
 8177TIP3   OH246021   0.242   4.767  12.130  0.4012 -0.1843 -0.5711
 8177TIP3    H146022   0.311   4.700  12.134  1.4167  0.6992 -2.0549
 8177TIP3    H246023   0.224   4.777  12.037  0.4487  1.7508 -0.4170
 8178TIP3   OH246024   5.357   6.515   2.440 -0.4958  0.1185  0.2945
 8178TIP3    H146025   5.361   6.492   2.532  0.3189  1.2183  0.5581
 8178TIP3    H246026   5.389   6.605   2.436 -1.0561  0.2913 -0.9918
 8179TIP3   OH246027   0.758   4.343  16.990 -0.1756  0.2904 -0.3820
 8179TIP3    H146028   0.685   4.292  16.955 -2.1659  2.1346  0.8691
 8179TIP3    H246029   0.805   4.374  16.912 -0.6448 -0.9695 -1.2040
 8180TIP3   OH246030   1.067   4.853   2.893 -0.1846  0.5784 -0.1257
 8180TIP3    H146031   1.040   4.896   2.811  1.6651  0.3534 -0.8948
 8180TIP3    H246032   1.043   4.916   2.961 -3.6120 -0.0619 -0.5576
 8181TIP3   OH246033   4.827   4.084   3.184  0.2513 -0.0191 -0.4334
 8181TIP3    H146034   4.847   4.177   3.193 -3.5822  0.9006  0.3309
 8181TIP3    H246035   4.837   4.048   3.272 -2.0461  0.6702  0.1782
 8182TIP3   OH246036   2.200   2.106   5.260 -0.4738 -0.5245 -0.3484
 8182TIP3    H146037   2.241   2.165   5.324 -2.4889  2.3493 -1.4582
 8182TIP3    H246038   2.267   2.043   5.238  3.0684  3.1340 -1.2380
 8183TIP3   OH246039   2.402   2.229  10.840  0.2725 -0.1920 -0.4127
 8183TIP3    H146040   2.412   2.317  10.804 -1.4229  0.3045  0.2709
 8183TIP3    H246041   2.311   2.206  10.823  0.7079 -1.8761 -0.6625
 8184TIP3   OH246042   6.035   6.682   2.686 -0.5203  0.1362 -0.2914
 8184TIP3    H146043   6.105   6.748   2.683  0.0466 -0.2590  2.2890
 8184TIP3    H246044   5.980   6.708   2.760 -0.7495 -1.8073  0.2672
 8185TIP3   OH246045   2.401   0.348   3.192  0.4901  0.0925  0.4292
 8185TIP3    H146046   2.334   0.287   3.223 -0.8449  0.6919 -1.0739
 8185TIP3    H246047   2.409   0.329   3.098 -0.3250  2.4408 -0.2011
 8186TIP3   OH246048   6.346   5.455   1.931 -0.0168  0.1010 -0.1412
 8186TIP3    H146049   6.281   5.519   1.961  0.1982 -0.3807  1.4202
 8186TIP3    H246050   6.321   5.373   1.975  2.1455  0.1059  1.2553
 8187TIP3   OH246051   1.500   2.135   2.825 -0.1117  0.2260 -0.1171
 8187TIP3    H146052   1.538   2.087   2.899  1.1952  0.7608 -0.4139
 8187TIP3    H246053   1.451   2.069   2.776 -1.1078 -0.1069  1.2850
 8188TIP3   OH246054   5.011   6.592   5.744  0.2823  0.1759  0.4850
 8188TIP3    H146055   5.040   6.663   5.802  2.2908 -1.4788  1.6590
 8188TIP3    H246056   4.992   6.520   5.804  0.3687 -0.9275 -0.7831
 8189TIP3   OH246057   3.653   2.142   2.095 -0.4807  0.0486 -0.1519
 8189TIP3    H146058   3.596   2.196   2.040 -1.0931 -0.5740 -0.1366
 8189TIP3    H246059   3.691   2.078   2.034 -0.8980 -0.4270  0.0757
 8190TIP3   OH246060   4.022   6.482   1.879  0.3268  0.3415 -0.0567
 8190TIP3    H146061   4.014   6.575   1.857 -2.4849  0.4252  0.8970
 8190TIP3    H246062   3.974   6.438   1.809  0.3492 -0.2708  0.3132
 8191TIP3   OH246063   5.207   2.219   4.599 -0.2474  0.5912 -0.0237
 8191TIP3    H146064   5.297   2.250   4.602 -0.3531  0.8669  3.4019
 8191TIP3    H246065   5.212   2.129   4.631 -1.3523  1.3927  2.6966
 8192TIP3   OH246066   4.798   6.107  13.285 -0.2949 -0.1288  0.4873
 8192TIP3    H146067   4.839   6.028  13.250  0.0283  0.7883 -1.3150
 8192TIP3    H246068   4.727   6.126  13.224 -2.5259 -0.8270  2.7105
 8193TIP3   OH246069   1.904   3.687   3.880  0.0449  0.7010 -0.2859
 8193TIP3    H146070   1.851   3.753   3.835 -1.5663  1.0830  1.9638
 8193TIP3    H246071   1.969   3.738   3.929  2.1264  0.2667 -2.4495
 8194TIP3   OH246072   1.070   3.786   5.469 -1.1651  0.3681  0.4209
 8194TIP3    H146073   1.009   3.737   5.413  0.6312  0.1819 -1.5008
 8194TIP3    H246074   1.065   3.743   5.554 -2.0487 -1.0652 -0.3268
 8195TIP3   OH246075   3.801   4.380  14.934 -0.0637 -0.4180 -0.5878
 8195TIP3    H146076   3.741   4.335  14.994 -0.6443 -0.0896 -0.9120
 8195TIP3    H246077   3.848   4.442  14.990  0.8558 -1.5224 -0.1116
 8196TIP3   OH246078   1.912   4.047  13.661  0.1486 -0.1413 -0.3237
 8196TIP3    H146079   1.970   4.012  13.730  0.4243  0.4447 -0.2524
 8196TIP3    H246080   1.962   4.118  13.621  0.1394 -0.7122 -1.3866
 8197TIP3   OH246081   2.344   1.029  10.809 -0.1379  0.1855 -0.3793
 8197TIP3    H146082   2.252   1.012  10.832 -0.5576  1.5224 -0.9860
 8197TIP3    H246083   2.375   0.946  10.772 -0.3164 -1.1003  2.1336
 8198TIP3   OH246084   5.313   2.056  15.327  0.3422 -0.6790  0.1311
 8198TIP3    H146085   5.228   2.038  15.288  0.1883  0.3426 -0.0220
 8198TIP3    H246086   5.314   2.003  15.407  0.1756 -1.8418 -0.6003
 8199TIP3   OH246087   1.916   3.283  14.242  0.6186 -0.1540 -0.1185
 8199TIP3    H146088   1.920   3.187  14.239  4.0969 -0.1076 -0.3495
 8199TIP3    H246089   1.832   3.304  14.200  1.2015 -3.0325 -3.1930
 8200TIP3   OH246090   2.283   1.938  14.744  0.3730  0.1886 -0.3033
 8200TIP3    H146091   2.346   1.983  14.687  1.9311 -0.6616  0.6671
 8200TIP3    H246092   2.230   1.886  14.685  0.8479  0.6182 -1.1266
 8201TIP3   OH246093   0.285   5.688  13.154  0.3885 -0.0549  0.1920
 8201TIP3    H146094   0.330   5.615  13.112  0.5557  0.8220 -1.2143
 8201TIP3    H246095   0.346   5.761  13.146 -0.3814  0.6036  0.2537
 8202TIP3   OH246096   1.700   6.297  14.057 -0.5425 -0.0032  0.7385
 8202TIP3    H146097   1.706   6.388  14.084  1.8928  0.4139 -0.9335
 8202TIP3    H246098   1.642   6.299  13.980 -0.5391  0.1049  0.7386
 8203TIP3   OH246099   4.242   1.715  11.713  0.5193  0.0204 -0.0462
 8203TIP3    H146100   4.183   1.781  11.749  1.0201  0.1084  0.6442
 8203TIP3    H246101   4.320   1.765  11.687  1.1561 -0.3497  1.0585
 8204TIP3   OH246102   3.311   1.726  12.995  0.2435  0.7298 -0.3513
 8204TIP3    H146103   3.234   1.682  13.031 -1.1569  2.4614 -1.0301
 8204TIP3    H246104   3.277   1.809  12.961  2.0858  0.7360 -2.4278
 8205TIP3   OH246105   2.208   0.948  14.396  0.2259  0.2165  0.5465
 8205TIP3    H146106   2.174   0.858  14.400 -1.3288  0.5198 -2.6334
 8205TIP3    H246107   2.299   0.939  14.370  1.5472 -0.4660  4.7632
 8206TIP3   OH246108   3.199   3.121  13.940 -0.3694 -0.7281 -0.0382
 8206TIP3    H146109   3.194   3.180  14.015  0.0495 -1.8950  0.9254
 8206TIP3    H246110   3.288   3.130  13.908 -0.8490  0.5875 -1.1122
 8207TIP3   OH246111   1.135   6.636  11.215 -0.0758 -0.1745  0.7845
 8207TIP3    H146112   1.136   6.698  11.142 -0.6098  0.1605  1.0533
 8207TIP3    H246113   1.197   6.673  11.278 -0.9697  0.5147  1.2809
 8208TIP3   OH246114   0.964   2.093   0.943 -0.4693  0.4928 -0.4360
 8208TIP3    H146115   0.998   2.012   0.904 -1.1759  0.8223 -1.7935
 8208TIP3    H246116   0.996   2.091   1.034  0.1985 -0.9046 -0.6721
 8209TIP3   OH246117   4.092   4.851  11.237 -0.2306 -0.1576  0.1652
 8209TIP3    H146118   4.091   4.846  11.141 -2.2785 -2.3190  0.1932
 8209TIP3    H246119   4.184   4.848  11.261  0.3351  0.6510 -1.7365
 8210TIP3   OH246120   3.658   1.195  11.159  0.0948 -0.4303 -0.7789
 8210TIP3    H146121   3.716   1.202  11.235  0.8179 -1.5492 -1.2097
 8210TIP3    H246122   3.651   1.285  11.126 -1.3702  0.3500  1.4042
 8211TIP3   OH246123   1.217   1.258  14.715 -0.0299 -0.4949 -0.8164
 8211TIP3    H146124   1.242   1.314  14.642  2.0597 -2.9945 -2.2236
 8211TIP3    H246125   1.293   1.200  14.727 -2.2369 -3.4820 -0.0345
 8212TIP3   OH246126   6.007   5.725  17.076  0.0571  0.2019  0.0916
 8212TIP3    H146127   6.067   5.655  17.050  0.1035  0.5671 -0.8107
 8212TIP3    H246128   5.953   5.686  17.145 -0.5937 -1.0396 -1.0879
 8213TIP3   OH246129   3.031   3.861  14.110 -0.1304 -0.2408 -0.5813
 8213TIP3    H146130   3.091   3.871  14.183  0.9087 -1.4132 -1.2363
 8213TIP3    H246131   2.944   3.879  14.148  0.7243  3.7814 -0.1302
 8214TIP3   OH246132   4.829   3.582  13.642  0.1324 -0.3438 -0.0519
 8214TIP3    H146133   4.830   3.561  13.735  0.6823  0.8953  0.2342
 8214TIP3    H246134   4.899   3.646  13.630 -0.4351  0.1031 -1.1749
 8215TIP3   OH246135   3.813   3.528   0.402  0.1084  0.2976  0.5339
 8215TIP3    H146136   3.770   3.590   0.343 -0.2734  0.2563  0.7688
 8215TIP3    H246137   3.807   3.444   0.357 -0.2480  0.2528  0.6636
 8216TIP3   OH246138   5.159   5.146   0.553  0.1799  0.0698  0.4278
 8216TIP3    H146139   5.235   5.186   0.510 -1.1355  0.7921 -1.3574
 8216TIP3    H246140   5.145   5.198   0.632  0.5341  1.0029 -0.1113
 8217TIP3   OH246141   6.716   5.588   0.703  0.0991  0.2094  0.2596
 8217TIP3    H146142   6.740   5.520   0.766  0.0422  1.0662  1.2432
 8217TIP3    H246143   6.773   5.662   0.726  0.8604  0.1921 -1.4158
 8218TIP3   OH246144   0.134   3.816  15.111 -0.0837  0.4091 -0.3897
 8218TIP3    H146145   0.220   3.860  15.110  0.2541 -0.2438 -0.5448
 8218TIP3    H246146   0.153   3.728  15.142 -1.1579  1.1542  2.6806
 8219TIP3   OH246147   6.055   2.781  14.188  0.5293  0.1251 -0.1319
 8219TIP3    H146148   6.034   2.869  14.157  2.0961  0.5942  0.0213
 8219TIP3    H246149   6.129   2.794  14.248  0.5606 -1.2656  0.1751
 8220TIP3   OH246150   0.112   0.705  16.481  0.2208  0.4998 -0.0189
 8220TIP3    H146151   0.139   0.718  16.572  5.4848  0.6980 -1.2368
 8220TIP3    H246152   0.109   0.610  16.470 -2.4459  0.4236  0.6605
 8221TIP3   OH246153   4.244   5.084   4.225  0.1634  0.5408  0.6329
 8221TIP3    H146154   4.256   4.990   4.210 -1.6517  0.1020  1.5252
 8221TIP3    H246155   4.187   5.113   4.153  3.6723  1.8911 -1.8516
 8222TIP3   OH246156   3.986   1.259  15.132 -0.5587 -0.3407 -0.2444
 8222TIP3    H146157   3.948   1.346  15.146  0.4083  0.1719 -0.7679
 8222TIP3    H246158   3.958   1.234  15.044 -0.8162 -0.5644 -0.1037
 8223TIP3   OH246159   6.438   5.619  15.668  0.2019 -0.3512  0.1770
 8223TIP3    H146160   6.386   5.569  15.731 -1.7970 -0.3322 -1.3345
 8223TIP3    H246161   6.452   5.704  15.709 -0.7106 -0.4748  0.7630
 8224TIP3   OH246162   0.474   6.666   5.575 -0.0356 -0.1113 -0.1200
 8224TIP3    H146163   0.553   6.665   5.630 -0.0156 -0.4058 -0.1548
 8224TIP3    H246164   0.499   6.718   5.499  0.7415 -1.7522 -1.0420
 8225TIP3   OH246165   1.474   2.704  12.206 -0.3636 -0.2630 -0.3344
 8225TIP3    H146166   1.518   2.783  12.175 -0.4175 -0.5823 -1.2577
 8225TIP3    H246167   1.513   2.633  12.155 -3.8168 -0.2952 -3.4054
 8226TIP3   OH246168   3.116   2.727  16.812  0.7453 -0.0821  0.2043
 8226TIP3    H146169   3.044   2.784  16.838 -0.0304 -0.2232 -1.5201
 8226TIP3    H246170   3.075   2.641  16.801  1.1433 -0.1429 -0.8850
 8227TIP3   OH246171   2.534   0.010   4.905  0.5482  0.5754  0.4176
 8227TIP3    H146172   2.456  -0.022   4.859 -0.3714  0.5023  1.9799
 8227TIP3    H246173   2.504   0.085   4.955  1.0767 -0.4642  2.3718
 8228TIP3   OH246174   3.607   3.438   6.605  0.6637  0.1745 -0.5538
 8228TIP3    H146175   3.689   3.421   6.558  0.6386  1.2617 -1.0252
 8228TIP3    H246176   3.582   3.353   6.641  1.5210 -0.3575 -1.1703
 8229TIP3   OH246177   0.042   3.165   0.622 -0.5173 -0.1255  0.2921
 8229TIP3    H146178   0.099   3.124   0.688 -1.1884  0.4511  1.2554
 8229TIP3    H246179   0.003   3.239   0.667 -0.7381  0.4892 -0.8760
 8230TIP3   OH246180   2.981   4.084   3.197 -0.0665 -0.3179  0.2864
 8230TIP3    H146181   2.912   4.124   3.249  1.0774  0.3631  1.3234
 8230TIP3    H246182   2.935   4.045   3.122 -1.5635  0.0459  0.9837
 8231TIP3   OH246183   6.520   0.843   5.892  0.0970  0.5599  0.3179
 8231TIP3    H146184   6.434   0.882   5.874 -0.6563 -0.8473  0.7418
 8231TIP3    H246185   6.576   0.918   5.910 -0.8394  1.5627 -0.7357
 8232TIP3   OH246186   5.397   2.412   3.384  0.1848 -0.2294 -0.1389
 8232TIP3    H146187   5.432   2.327   3.412 -0.3305 -0.9324 -1.5404
 8232TIP3    H246188   5.387   2.404   3.289  1.3066  1.8367 -0.4955
 8233TIP3   OH246189   6.656   1.372  16.018  0.6478  0.2179  0.3965
 8233TIP3    H146190   6.699   1.456  16.001 -0.1066  0.1446 -2.2850
 8233TIP3    H246191   6.584   1.393  16.078  2.5050  0.8261  2.5551
 8234TIP3   OH246192   6.730   4.681  11.137  0.3241 -0.5895 -0.4003
 8234TIP3    H146193   6.710   4.587  11.139 -1.4771 -0.2762 -1.8467
 8234TIP3    H246194   6.738   4.702  11.044 -3.0483  1.3608 -0.4176
 8235TIP3   OH246195   1.940   5.718   2.360 -0.1331  0.0567 -0.4236
 8235TIP3    H146196   1.998   5.648   2.330 -0.3194 -0.6696  0.8362
 8235TIP3    H246197   1.852   5.684   2.344 -0.2480  0.9893 -1.9544
 8236TIP3   OH246198   5.028   1.310  14.334  0.4153 -0.1941 -0.3949
 8236TIP3    H146199   5.068   1.268  14.409 -0.1035 -2.3652 -1.2710
 8236TIP3    H246200   4.933   1.305  14.351  0.3194  3.0304  0.6853
 8237TIP3   OH246201   1.338   6.782  14.653 -0.0622  0.1978  0.2185
 8237TIP3    H146202   1.331   6.827  14.736  0.2461 -0.3155  0.5282
 8237TIP3    H246203   1.431   6.757  14.647 -0.2507 -0.4822  0.1041
 8238TIP3   OH246204   5.553   2.140  15.247 -0.1328 -0.4955 -0.2170
 8238TIP3    H146205   5.604   2.067  15.212 -0.1538 -0.2378 -0.7966
 8238TIP3    H246206   5.479   2.099  15.291  0.5702 -0.8768  0.6391
 8239TIP3   OH246207   6.110   3.888   0.890 -0.0670  0.1723  0.1420
 8239TIP3    H146208   6.116   3.980   0.863 -0.0109  0.3210  0.6516
 8239TIP3    H246209   6.181   3.877   0.953 -2.1771  0.7705  2.8479
 8240TIP3   OH246210   6.505   4.746   6.130 -0.6858 -0.2600  0.0417
 8240TIP3    H146211   6.448   4.678   6.165  1.9913 -2.2076  0.9166
 8240TIP3    H246212   6.544   4.707   6.052 -0.6478  1.1088 -0.6613
 8241TIP3   OH246213   0.512   4.338   0.885  0.1087 -0.9392 -0.1850
 8241TIP3    H146214   0.511   4.433   0.878 -1.3004 -0.7624  1.5203
 8241TIP3    H246215   0.511   4.306   0.795  0.1338  0.6639 -0.7696
 8242TIP3   OH246216   3.758   6.736   1.020 -0.3669  0.3163 -0.6473
 8242TIP3    H146217   3.767   6.774   1.108 -1.4971  0.5391 -0.6215
 8242TIP3    H246218   3.836   6.767   0.974  0.1317  0.3810  0.1996
 8243TIP3   OH246219   4.767   2.061  13.308 -0.3961 -0.4364  0.0448
 8243TIP3    H146220   4.831   2.132  13.310  1.0928 -1.7247  0.3564
 8243TIP3    H246221   4.757   2.040  13.215 -1.2473  0.4865 -0.0943
 8244TIP3   OH246222   1.308   5.230   0.920 -0.0248  0.1830 -0.1832
 8244TIP3    H146223   1.398   5.199   0.912  0.4813  1.3206  0.7485
 8244TIP3    H246224   1.317   5.326   0.926 -1.3031  0.3115 -0.1703
 8245TIP3   OH246225   6.040   3.498   2.751  0.6830 -0.1336  0.4321
 8245TIP3    H146226   6.047   3.593   2.742  0.8922 -0.1520  0.3830
 8245TIP3    H246227   5.947   3.479   2.743  0.7255 -0.0131 -0.3587
 8246TIP3   OH246228   1.729   2.385   1.103  0.0176 -0.0024 -0.1669
 8246TIP3    H146229   1.760   2.475   1.106  1.6402 -0.5464  1.6170
 8246TIP3    H246230   1.699   2.367   1.192  0.9837 -1.6020 -0.1260
 8247TIP3   OH246231   0.993   6.197   4.872 -0.5327  0.0356 -0.0383
 8247TIP3    H146232   1.006   6.194   4.777  0.1456 -3.6757  0.0115
 8247TIP3    H246233   1.082   6.201   4.908 -0.8082  2.1078  0.5050
 8248TIP3   OH246234   5.546   6.206  17.031  0.3724  0.0950 -0.6103
 8248TIP3    H146235   5.477   6.270  17.012 -0.7295 -1.1520 -0.9888
 8248TIP3    H246236   5.572   6.226  17.121 -1.2702 -0.0614 -0.0652
 8249TIP3   OH246237   3.856   3.915   4.134  0.2487  0.2993  0.6391
 8249TIP3    H146238   3.868   4.010   4.133 -0.1848  0.3540  0.3004
 8249TIP3    H246239   3.933   3.881   4.181  1.1415  0.7127 -0.4857
 8250TIP3   OH246240   1.243   3.257  11.507 -0.2493  0.0122 -0.0340
 8250TIP3    H146241   1.179   3.186  11.513 -0.8131  0.4201 -0.9532
 8250TIP3    H246242   1.206   3.317  11.442 -0.5388  1.9312  1.8074
 8251TIP3   OH246243   6.502   4.089  12.857  0.0092  0.4099  0.0900
 8251TIP3    H146244   6.571   4.127  12.803 -0.3847 -1.5919 -1.9878
 8251TIP3    H246245   6.448   4.039  12.795 -0.3166 -2.2845  2.3328
 8252TIP3   OH246246   3.728   4.205   6.284 -0.0892 -0.4724 -0.2444
 8252TIP3    H146247   3.806   4.171   6.241 -0.6731 -0.0698 -1.7029
 8252TIP3    H246248   3.761   4.262   6.354  0.8949 -1.2753 -0.0472
 8253TIP3   OH246249   3.773   1.718   5.676  0.2721 -1.0787  0.0520
 8253TIP3    H146250   3.846   1.658   5.692  0.7883 -0.3896  0.3673
 8253TIP3    H246251   3.785   1.788   5.741 -0.2056 -0.5436 -0.4217
 8254TIP3   OH246252   3.881   3.417   3.338  0.0387 -0.1165 -0.2222
 8254TIP3    H146253   3.786   3.412   3.346  0.1013 -0.3097  0.4458
 8254TIP3    H246254   3.902   3.357   3.267 -0.1976 -1.2694  0.6582
 8255TIP3   OH246255   4.897   3.662  11.693  0.5129 -0.0644  0.0174
 8255TIP3    H146256   4.971   3.620  11.650  0.8543 -0.2534  0.7706
 8255TIP3    H246257   4.867   3.598  11.757  0.4621  0.4759  0.5439
 8256TIP3   OH246258   0.983   2.494  10.520  0.1717 -0.1530 -0.0393
 8256TIP3    H146259   0.931   2.522  10.595 -1.8976 -0.2654 -1.3717
 8256TIP3    H246260   1.038   2.424  10.554  0.4397  0.8333  1.7104
 8257TIP3   OH246261   1.923   1.272   4.135  0.1534  0.3219 -0.1420
 8257TIP3    H146262   1.894   1.244   4.222 -1.9077 -0.2071 -0.9347
 8257TIP3    H246263   1.971   1.353   4.151 -0.1461  0.2205  1.4967
 8258TIP3   OH246264   3.522   4.386  15.632  0.1615  0.2281 -0.2235
 8258TIP3    H146265   3.453   4.430  15.582  0.0404 -1.4641 -1.6686
 8258TIP3    H246266   3.544   4.447  15.702 -2.2016  1.1779 -0.2192
 8259TIP3   OH246267   0.796   6.640  12.518  0.0617  0.0888  0.2368
 8259TIP3    H146268   0.881   6.597  12.505  0.8362  1.3903  0.7795
 8259TIP3    H246269   0.736   6.594  12.460  1.0669 -1.0921  0.1123
 8260TIP3   OH246270   5.777   0.268  14.048 -0.2815  0.0478  0.9357
 8260TIP3    H146271   5.712   0.252  14.117  1.6695  0.1411  2.9254
 8260TIP3    H246272   5.847   0.206  14.067  0.4361  0.2433 -0.8820
 8261TIP3   OH246273   2.818   1.378   5.016  0.1584 -0.6088 -0.2528
 8261TIP3    H146274   2.835   1.473   5.022 -2.4134 -0.0594 -0.6125
 8261TIP3    H246275   2.855   1.352   4.932 -0.9407  0.5699 -1.1469
 8262TIP3   OH246276   4.571   6.553  12.405 -0.1076 -0.2608  0.1652
 8262TIP3    H146277   4.604   6.642  12.415  1.8371 -0.6751 -1.8136
 8262TIP3    H246278   4.511   6.557  12.330  0.7393 -0.7370 -0.5693
 8263TIP3   OH246279   1.649   2.802  12.542 -0.7732 -1.0462 -0.1999
 8263TIP3    H146280   1.664   2.820  12.450 -0.7090  0.4557  0.0825
 8263TIP3    H246281   1.682   2.713  12.555  1.8135 -0.2879 -1.0371
 8264TIP3   OH246282   2.986   3.572   7.363  0.3973 -0.3465  0.1012
 8264TIP3    H146283   2.980   3.534   7.275 -0.9448 -0.4268  0.1964
 8264TIP3    H246284   3.054   3.639   7.355  1.8178 -1.7920 -0.4196
 8265TIP3   OH246285   6.640   4.040  10.723  0.0263  0.2520  0.2052
 8265TIP3    H146286   6.584   3.968  10.695  0.3244  0.1777 -0.1999
 8265TIP3    H246287   6.661   4.019  10.814  0.1142 -0.1734  0.0872
 8266TIP3   OH246288   2.563   4.486   4.514 -0.5779  0.0639  0.2543
 8266TIP3    H146289   2.582   4.464   4.423 -0.4866 -0.1812  0.3306
 8266TIP3    H246290   2.612   4.421   4.565  0.1907  0.8348  0.5080
 8267TIP3   OH246291   2.520   3.001  16.896  0.3081 -0.2447 -0.2942
 8267TIP3    H146292   2.593   3.012  16.956  0.2117  0.3768 -0.2837
 8267TIP3    H246293   2.444   3.032  16.944 -0.2763 -2.4721  0.3188
 8268TIP3   OH246294   2.842   6.260  13.110  0.6656 -0.0387 -0.0629
 8268TIP3    H146295   2.892   6.232  13.186 -1.4380  0.9912  1.7901
 8268TIP3    H246296   2.816   6.179  13.066  1.8211 -0.6407  0.3295
 8269TIP3   OH246297   3.827   3.551  13.921  0.6595  0.1568 -0.6965
 8269TIP3    H146298   3.743   3.558  13.967  0.0044 -2.5517 -1.2617
 8269TIP3    H246299   3.863   3.639  13.923 -0.8973  0.8439  2.0017
 8270TIP3   OH246300   2.926   5.022  16.054  0.3056  0.0623 -0.6789
 8270TIP3    H146301   2.954   4.946  16.004  0.6821  0.6622 -1.4117
 8270TIP3    H246302   2.867   4.987  16.121 -2.0824 -0.5701 -2.9435
 8271TIP3   OH246303   2.694   5.769   4.834 -0.4958 -0.1071  0.0791
 8271TIP3    H146304   2.631   5.772   4.762 -0.3147 -0.3197 -0.0913
 8271TIP3    H246305   2.718   5.861   4.848 -0.7593 -0.0363  0.0709
 8272TIP3   OH246306   1.727   6.503   4.712 -0.9763  0.3118  0.5745
 8272TIP3    H146307   1.750   6.438   4.647  0.7920  1.9424 -0.5334
 8272TIP3    H246308   1.631   6.497   4.720 -0.9789 -1.4944 -0.4079
 8273TIP3   OH246309   2.572   5.319  12.674 -0.1479  0.1176 -0.1965
 8273TIP3    H146310   2.608   5.402  12.640  0.4131 -0.3639 -0.8132
 8273TIP3    H246311   2.646   5.278  12.719 -0.3824 -0.1145 -0.0212
 8274TIP3   OH246312   1.522   3.106  15.418  0.4530  0.0381  0.5823
 8274TIP3    H146313   1.478   3.039  15.364  0.4242 -0.5599  1.3251
 8274TIP3    H246314   1.568   3.055  15.485 -0.7418  0.8005  2.0446
 8275TIP3   OH246315   6.683   0.530   0.545  0.0378 -0.5045  0.7227
 8275TIP3    H146316   6.680   0.518   0.640 -0.4724 -1.8951  0.5505
 8275TIP3    H246317   6.670   0.442   0.509  0.7572 -0.0813 -0.6369
 8276TIP3   OH246318   5.745   3.467   1.761  0.5911  0.0751  0.3118
 8276TIP3    H146319   5.813   3.504   1.704 -1.5516  1.7603 -1.3061
 8276TIP3    H246320   5.723   3.538   1.822 -0.6068  0.0406 -0.0503
 8277TIP3   OH246321   5.522   3.865   0.709 -0.6147 -0.0425  0.3419
 8277TIP3    H146322   5.537   3.773   0.688 -0.4110  0.0053  0.2820
 8277TIP3    H246323   5.482   3.901   0.629  1.2826  0.4312 -0.4311
 8278TIP3   OH246324   1.532   2.059  14.340 -0.2418  0.1571 -0.1298
 8278TIP3    H146325   1.478   2.097  14.409  0.1471  0.1435  0.1883
 8278TIP3    H246326   1.501   1.969  14.331 -1.5626  0.6839 -1.2910
 8279TIP3   OH246327   3.860   2.559   1.615 -0.0678  0.2783 -1.1510
 8279TIP3    H146328   3.920   2.498   1.570 -0.7543 -0.0142 -1.6887
 8279TIP3    H246329   3.822   2.611   1.544 -1.2763 -0.2903 -0.9329
 8280TIP3   OH246330   2.364   1.854   5.111  0.4996 -0.2482 -0.4148
 8280TIP3    H146331   2.311   1.775   5.103  2.5469 -1.5494 -2.2123
 8280TIP3    H246332   2.455   1.823   5.107  1.4343  2.0057  1.1079
 8281TIP3   OH246333   6.849   4.053  12.855  0.1226 -0.0814  0.1813
 8281TIP3    H146334   6.879   4.138  12.822  1.3720 -0.9117 -0.9779
 8281TIP3    H246335   6.821   4.070  12.944 -0.9136  1.7954 -0.4453
 8282TIP3   OH246336   4.679   1.769   0.088  0.2491  0.1970  0.7748
 8282TIP3    H146337   4.667   1.765  -0.007  0.3155  0.9644  0.7303
 8282TIP3    H246338   4.707   1.680   0.112  1.5369  0.3457 -0.1014
 8283TIP3   OH246339   3.688   3.570  13.541 -0.2226 -0.1414 -0.2525
 8283TIP3    H146340   3.630   3.560  13.616 -0.6591 -0.9289 -0.6875
 8283TIP3    H246341   3.629   3.577  13.466  0.2442 -1.0388 -0.7114
 8284TIP3   OH246342   5.902   5.321   4.835  0.7200  0.0491 -0.0229
 8284TIP3    H146343   5.875   5.314   4.744  0.3512  1.6087 -0.0681
 8284TIP3    H246344   5.920   5.231   4.862 -1.0680 -0.6702 -1.0537
 8285TIP3   OH246345   0.364   0.154  12.094  0.1497  0.1268 -0.1641
 8285TIP3    H146346   0.444   0.194  12.061  1.2246 -0.4762  1.6225
 8285TIP3    H246347   0.392   0.072  12.133 -0.8931  1.0513  2.7861
 8286TIP3   OH246348   4.933   5.167  14.963 -0.3596  0.1687 -0.1071
 8286TIP3    H146349   5.008   5.125  14.921  0.3534  1.0157  0.3072
 8286TIP3    H246350   4.889   5.214  14.893 -1.1655 -1.2229 -0.5800
 8287TIP3   OH246351   1.642   1.669  14.383 -0.1716  0.4038 -0.0686
 8287TIP3    H146352   1.574   1.736  14.384  0.6895  1.2934  0.0005
 8287TIP3    H246353   1.610   1.601  14.443 -0.2305  1.5857  1.2727
 8288TIP3   OH246354   1.846   0.507   3.540  0.2781  0.0926 -0.6004
 8288TIP3    H146355   1.865   0.509   3.634  0.2594  0.7482 -0.6051
 8288TIP3    H246356   1.889   0.428   3.508 -0.1998 -0.4482  0.0601
 8289TIP3   OH246357   1.802   2.671  14.980  0.8440 -0.4982 -0.0995
 8289TIP3    H146358   1.790   2.758  14.943 -0.7998 -0.2209  0.9868
 8289TIP3    H246359   1.813   2.685  15.074 -0.7045 -1.5034  0.2747
 8290TIP3   OH246360   1.428   5.549   2.220 -0.2681  0.1065 -0.1217
 8290TIP3    H146361   1.387   5.633   2.242 -0.7533  0.1761 -1.2652
 8290TIP3    H246362   1.384   5.486   2.276  0.8367  0.7323  1.5419
 8291TIP3   OH246363   4.457   3.186  16.575  0.0623 -0.2492 -0.6635
 8291TIP3    H146364   4.384   3.136  16.540  0.7100 -1.8030  0.1321
 8291TIP3    H246365   4.416   3.256  16.626 -0.8611 -0.3205 -1.2872
 8292TIP3   OH246366   1.061   2.356   5.439  0.2854  0.3930 -0.2096
 8292TIP3    H146367   1.114   2.405   5.376  2.3760  0.4100  1.4450
 8292TIP3    H246368   1.023   2.423   5.496  0.3709  0.2585  0.0071
 8293TIP3   OH246369   5.370   4.431   5.516  0.5835  0.3317  0.2595
 8293TIP3    H146370   5.342   4.393   5.599 -1.0371  0.2829 -0.2860
 8293TIP3    H246371   5.332   4.375   5.449  0.0435  1.6022 -0.5369
 8294TIP3   OH246372   1.285   5.016  12.182 -0.0251  0.4187 -0.0131
 8294TIP3    H146373   1.193   4.991  12.176  0.0457  0.3815 -0.9918
 8294TIP3    H246374   1.332   4.946  12.137  0.3695  1.0954 -0.6700
 8295TIP3   OH246375   3.976   2.553  14.582  0.2151  0.0379  0.5570
 8295TIP3    H146376   3.917   2.628  14.570 -0.1674 -0.4077 -0.4560
 8295TIP3    H246377   4.022   2.572  14.664  0.0622  1.3348  0.3662
 8296TIP3   OH246378   4.771   4.195  12.071  0.0065  0.5990  0.2587
 8296TIP3    H146379   4.830   4.260  12.109  0.4849 -0.4408  1.3428
 8296TIP3    H246380   4.685   4.238  12.070  0.7526  2.1815 -1.4603
 8297TIP3   OH246381   6.553   1.513  11.782 -0.5606  0.5477 -0.5268
 8297TIP3    H146382   6.538   1.580  11.849 -0.2132 -0.6115  0.7544
 8297TIP3    H246383   6.469   1.466  11.776 -0.1981 -0.2012  0.0905
 8298TIP3   OH246384   6.174   5.409   3.990  0.2739 -0.1208 -0.0504
 8298TIP3    H146385   6.153   5.337   3.930  0.8188 -1.0153  0.8179
 8298TIP3    H246386   6.122   5.392   4.068  0.5032  0.3608  0.2145
 8299TIP3   OH246387   2.729   1.363  15.395 -0.6353 -0.1262 -0.4931
 8299TIP3    H146388   2.739   1.450  15.432 -0.7877  0.3205 -1.4855
 8299TIP3    H246389   2.781   1.306  15.453  0.6616  0.8357 -0.6721
 8300TIP3   OH246390   5.149   1.131   2.172 -0.0054  0.0490  0.4045
 8300TIP3    H146391   5.170   1.222   2.153  0.0128  0.0352  0.3579
 8300TIP3    H246392   5.116   1.096   2.089 -2.0847  0.5905  0.9328
 8301TIP3   OH246393   3.648   6.404   4.506  0.1894 -0.0057  0.1862
 8301TIP3    H146394   3.570   6.388   4.454  0.5726 -2.7953  0.3281
 8301TIP3    H246395   3.640   6.496   4.533 -2.0348  0.3449 -1.3658
 8302TIP3   OH246396   1.390   2.117   4.927 -0.5622 -0.3394 -0.3670
 8302TIP3    H146397   1.366   2.035   4.884  1.0648 -0.2784 -1.4475
 8302TIP3    H246398   1.306   2.162   4.942 -1.5521 -2.4025  0.7624
 8303TIP3   OH246399   3.411   2.542   2.646  0.4331  0.4974 -0.1145
 8303TIP3    H146400   3.395   2.467   2.704  0.1470  0.5984 -0.0583
 8303TIP3    H246401   3.393   2.619   2.701  1.4012  0.6302  0.0328
 8304TIP3   OH246402   0.061   4.913  12.752  0.1937 -0.2746 -0.1125
 8304TIP3    H146403   0.044   4.953  12.666  0.9638 -0.3571 -0.3077
 8304TIP3    H246404  -0.026   4.903  12.791 -0.0856  0.8011 -0.4174
 8305TIP3   OH246405   1.575   5.986  14.375 -0.5957  0.4060  0.3323
 8305TIP3    H146406   1.569   6.022  14.286 -1.0332 -0.6883 -0.1022
 8305TIP3    H246407   1.653   6.028  14.413 -0.8540  1.4813 -0.2763
 8306TIP3   OH246408   1.171   4.697  13.084 -0.4962  0.3970  0.3885
 8306TIP3    H146409   1.191   4.740  13.001 -0.6616  0.1899  0.2394
 8306TIP3    H246410   1.230   4.738  13.147  2.9900 -2.4550 -0.6304
 8307TIP3   OH246411   6.055   0.484   4.867 -0.7081 -0.2951 -0.1793
 8307TIP3    H146412   6.085   0.497   4.957 -1.5347  1.3892 -0.0994
 8307TIP3    H246413   6.110   0.414   4.833  1.3030  0.6759  0.8851
 8308TIP3   OH246414   4.186   6.806   5.742  0.5430 -0.0566 -0.3387
 8308TIP3    H146415   4.231   6.789   5.824  1.4369 -2.4838 -1.2528
 8308TIP3    H246416   4.099   6.767   5.753 -0.4848  2.2869  0.4660
 8309TIP3   OH246417   4.709   4.156   2.344  0.0034 -0.1456  0.3966
 8309TIP3    H146418   4.617   4.133   2.330  0.2864 -0.1391 -1.7941
 8309TIP3    H246419   4.718   4.244   2.308  1.1556 -0.6973 -0.7481
 8310TIP3   OH246420   2.443   3.199  14.668 -0.1744  0.5747 -0.0843
 8310TIP3    H146421   2.359   3.163  14.696 -0.1062  0.7710  0.3676
 8310TIP3    H246422   2.488   3.224  14.749  1.6226 -2.3809 -0.0058
 8311TIP3   OH246423   5.058   2.412   4.923 -0.1389 -0.1336  0.3722
 8311TIP3    H146424   4.992   2.430   4.857 -0.1652 -0.3660  0.3343
 8311TIP3    H246425   5.027   2.334   4.968 -0.5475  0.4936  1.2133
 8312TIP3   OH246426   0.968   1.680  10.986 -0.5233  0.3294 -0.1899
 8312TIP3    H146427   0.986   1.655  10.895 -0.5709 -0.1811 -0.0579
 8312TIP3    H246428   1.023   1.623  11.038 -0.5417  0.5840  0.1099
 8313TIP3   OH246429   6.168   2.148  13.099 -0.3010  0.1795  0.1307
 8313TIP3    H146430   6.237   2.100  13.145 -0.7669  0.3695  1.0562
 8313TIP3    H246431   6.148   2.095  13.022 -0.8747 -1.1902  1.1863
 8314TIP3   OH246432   4.665   5.957  16.927 -0.1313  0.0485 -0.4569
 8314TIP3    H146433   4.668   6.035  16.982 -0.8447  0.4029 -0.9109
 8314TIP3    H246434   4.584   5.913  16.953 -1.8600  1.5378 -2.9616
 8315TIP3   OH246435   2.626   3.110  15.449  0.1199  0.1400 -0.3309
 8315TIP3    H146436   2.704   3.058  15.429 -0.0995 -0.2951 -0.0834
 8315TIP3    H246437   2.581   3.059  15.517 -0.6253  0.1424 -0.8095
 8316TIP3   OH246438   2.105   5.161  10.537 -0.2548 -0.6265  0.1688
 8316TIP3    H146439   2.170   5.142  10.604  0.5390 -0.6256 -0.5911
 8316TIP3    H246440   2.057   5.237  10.570  0.3662 -0.4091  0.5671
 8317TIP3   OH246441   0.372   3.174  10.742  0.3822 -0.2951 -0.2884
 8317TIP3    H146442   0.450   3.119  10.743  2.4067  2.3299 -1.0759
 8317TIP3    H246443   0.334   3.161  10.655  1.3632  0.1948 -0.8001
 8318TIP3   OH246444   2.237   4.362   5.416 -0.2892  0.0452 -0.0433
 8318TIP3    H146445   2.246   4.444   5.465  1.2072  0.6302 -1.2127
 8318TIP3    H246446   2.246   4.293   5.482  1.6692  0.8077  0.5471
 8319TIP3   OH246447   2.181   0.074   4.458  0.2887 -0.1573  0.6121
 8319TIP3    H146448   2.210   0.005   4.397  0.4922  1.1356 -0.8041
 8319TIP3    H246449   2.086   0.074   4.449  0.3285  0.1588  0.1151
 8320TIP3   OH246450   6.769   1.796   3.686  0.3059  0.5973  0.1311
 8320TIP3    H146451   6.857   1.823   3.712  0.9448  0.3015 -1.6401
 8320TIP3    H246452   6.741   1.863   3.624 -0.5934  0.5004  0.4216
 8321TIP3   OH246453   2.090   5.139  13.167  0.1014 -0.0583 -0.3309
 8321TIP3    H146454   2.019   5.117  13.107  1.5278 -1.8345 -1.4607
 8321TIP3    H246455   2.048   5.145  13.252 -1.6519  0.5671 -1.1784
 8322TIP3   OH246456   6.029   5.353  13.963 -0.5631 -0.2136 -0.3409
 8322TIP3    H146457   5.944   5.379  13.997 -1.0298 -0.0529 -1.5892
 8322TIP3    H246458   6.009   5.297  13.888  0.4266 -0.4506 -0.4386
 8323TIP3   OH246459   5.695   0.975   2.148 -0.6594 -0.2801 -0.6534
 8323TIP3    H146460   5.619   1.032   2.139 -0.3617  0.0369 -1.2232
 8323TIP3    H246461   5.766   1.023   2.107  0.2596  0.1663  1.3666
 8324TIP3   OH246462   3.163   1.777  14.034  0.4711  0.1045  0.1705
 8324TIP3    H146463   3.082   1.827  14.039  1.1620  1.1766  1.0321
 8324TIP3    H246464   3.156   1.729  13.951 -0.2001  1.6432 -0.7076
 8325TIP3   OH246465   4.065   5.486   4.713 -0.2021 -0.2909  0.0479
 8325TIP3    H146466   4.049   5.429   4.638  2.5655  0.5717 -1.3666
 8325TIP3    H246467   4.079   5.573   4.674 -0.2855  0.5400  1.7485
 8326TIP3   OH246468   2.537   5.703  10.853 -0.4058  0.2687  0.2299
 8326TIP3    H146469   2.454   5.694  10.805 -1.3812  0.5170  1.8155
 8326TIP3    H246470   2.583   5.774  10.807 -0.8274 -0.2187 -0.9823
 8327TIP3   OH246471   2.139   0.571  16.409  0.0159  0.2298  0.2509
 8327TIP3    H146472   2.219   0.525  16.387 -0.1276  0.6098 -1.1559
 8327TIP3    H246473   2.105   0.524  16.485  2.6538  1.3824  2.2870
 8328TIP3   OH246474   1.528   4.685  11.392  0.0959 -0.4328  0.0348
 8328TIP3    H146475   1.588   4.674  11.318  2.2952  3.2606  1.0004
 8328TIP3    H246476   1.469   4.755  11.365 -1.8907 -1.9252  0.2851
 8329TIP3   OH246477   0.550   2.106  12.047  0.0090  0.5712  0.3177
 8329TIP3    H146478   0.559   2.132  11.955  0.0369 -0.0297  0.1476
 8329TIP3    H246479   0.459   2.128  12.069  0.0785  0.9646  0.2322
 8330TIP3   OH246480   6.409   1.456  12.077  0.0353  0.3642  0.1933
 8330TIP3    H146481   6.328   1.437  12.029  0.7203  0.7903 -1.2119
 8330TIP3    H246482   6.471   1.391  12.045  1.3934  2.5611 -1.9687
 8331TIP3   OH246483   3.684   3.373   1.313 -0.0495  0.2714 -0.1242
 8331TIP3    H146484   3.690   3.350   1.406 -1.5271 -1.2279 -0.3594
 8331TIP3    H246485   3.772   3.357   1.279  0.7600  1.7000  1.1558
 8332TIP3   OH246486   2.394   0.680   1.975  0.0472 -0.1428  0.3149
 8332TIP3    H146487   2.422   0.762   1.935  0.0377 -1.0127 -1.5755
 8332TIP3    H246488   2.387   0.700   2.068 -0.9460  2.2787 -0.2130
 8333TIP3   OH246489   5.032   2.274   6.189 -0.5062 -0.1754  0.2805
 8333TIP3    H146490   5.107   2.238   6.236  0.8832 -0.1848 -1.8236
 8333TIP3    H246491   5.054   2.366   6.176 -1.2651  0.0286  0.3972
 8334TIP3   OH246492   5.329   0.692   5.623  0.4218  0.8017 -0.6203
 8334TIP3    H146493   5.414   0.735   5.631  0.5480  0.6721 -1.2021
 8334TIP3    H246494   5.327   0.660   5.533  0.3563 -0.4646 -0.1918
 8335TIP3   OH246495   5.933   3.006   4.961  0.3552 -0.5032 -0.6570
 8335TIP3    H146496   5.984   2.960   5.027  1.3864  1.1802 -0.2118
 8335TIP3    H246497   5.885   3.073   5.011  1.5098  1.1069 -1.5940
 8336TIP3   OH246498   4.524   4.337  12.056  0.3393 -0.1861  0.2639
 8336TIP3    H146499   4.510   4.272  11.987  1.8206  0.0239 -0.2551
 8336TIP3    H246500   4.558   4.414  12.010  0.3189  0.3366  1.1012
 8337TIP3   OH246501   5.916   2.746  10.253  0.0804  0.4709  0.4392
 8337TIP3    H146502   6.006   2.772  10.233  1.3002 -1.6500  2.6973
 8337TIP3    H246503   5.924   2.688  10.329 -2.9088 -2.2117 -1.0747
 8338TIP3   OH246504   6.018   1.072  12.281  0.0427  0.2363  0.5445
 8338TIP3    H146505   6.007   1.110  12.194  0.7171  0.1923  0.4358
 8338TIP3    H246506   5.936   1.027  12.298 -0.0379  0.1176 -0.1339
 8339TIP3   OH246507   3.789   3.653   2.106 -0.0938  0.3494  0.2422
 8339TIP3    H146508   3.796   3.727   2.046 -0.9360  1.2737  1.2426
 8339TIP3    H246509   3.872   3.651   2.153 -0.0914  0.7018  0.2525
 8340TIP3   OH246510   5.095   2.901   4.047  0.5961  0.4638 -0.3976
 8340TIP3    H146511   5.054   2.974   4.001 -0.8620  0.4376  0.7833
 8340TIP3    H246512   5.023   2.857   4.092  1.8778  0.3938  1.7487
 8341TIP3   OH246513   5.551   0.471  14.656  0.4184 -0.0249  0.3718
 8341TIP3    H146514   5.512   0.554  14.685 -0.1543  0.0867 -0.6674
 8341TIP3    H246515   5.636   0.469  14.699  0.2085  0.8334  0.8666
 8342TIP3   OH246516   1.597   4.262  12.342 -0.4103  0.2883  0.0653
 8342TIP3    H146517   1.592   4.175  12.301 -0.8719  0.1885  0.3251
 8342TIP3    H246518   1.507   4.295  12.338  0.3803  2.4936 -3.7048
 8343TIP3   OH246519   2.312   0.876   4.791 -0.1631  0.5812  0.0536
 8343TIP3    H146520   2.266   0.951   4.827 -0.7092 -0.3077  1.2976
 8343TIP3    H246521   2.386   0.913   4.742 -0.0981  1.8874  1.1096
 8344TIP3   OH246522   2.212   1.113   2.795 -0.3031 -0.7140 -0.1809
 8344TIP3    H146523   2.214   1.177   2.724  1.5215 -1.4451 -0.8379
 8344TIP3    H246524   2.256   1.036   2.759 -1.3864 -1.9242  0.9928
 8345TIP3   OH246525   1.978   4.961   2.602  0.5309 -0.3114 -0.4199
 8345TIP3    H146526   1.999   4.876   2.565 -3.2094 -1.6851  0.1329
 8345TIP3    H246527   1.925   5.004   2.534 -1.7108 -0.5806  1.0326
 8346TIP3   OH246528   5.726   0.508  16.251 -0.1263  0.3005  0.5223
 8346TIP3    H146529   5.801   0.547  16.205 -0.8575  0.8971 -0.1932
 8346TIP3    H246530   5.757   0.423  16.281  1.3637  1.1893  1.6660
 8347TIP3   OH246531   6.479   6.360   5.991  0.8383 -0.3160 -0.2273
 8347TIP3    H146532   6.412   6.304   6.030  1.4620 -0.4728  0.6437
 8347TIP3    H246533   6.524   6.399   6.066  0.6297  1.1151 -0.8130
 8348TIP3   OH246534   6.660   6.372   4.993  0.0722 -0.8698  0.1778
 8348TIP3    H146535   6.627   6.285   5.015 -1.3808 -0.3431  0.2056
 8348TIP3    H246536   6.673   6.414   5.078  0.0929 -0.8283  0.1539
 8349TIP3   OH246537   3.671   3.978  14.364  0.4920  0.0035  0.2089
 8349TIP3    H146538   3.742   4.042  14.370  0.6312 -0.1952  0.6394
 8349TIP3    H246539   3.712   3.893  14.378  0.5211 -0.3164 -1.5813
 8350TIP3   OH246540   3.187   2.804  12.442 -0.1570 -0.1444  0.2639
 8350TIP3    H146541   3.269   2.795  12.490 -0.2890 -0.8449  0.3819
 8350TIP3    H246542   3.127   2.744  12.487 -0.7863  0.4909  0.2933
 8351TIP3   OH246543   1.317   4.665   4.167  0.2730  0.1348 -0.3486
 8351TIP3    H146544   1.325   4.659   4.072  2.2422 -2.4398 -0.1266
 8351TIP3    H246545   1.404   4.646   4.200 -0.5522  0.1251  2.0016
 8352TIP3   OH246546   6.477   5.558   5.828  0.1804  1.1962 -0.3730
 8352TIP3    H146547   6.466   5.471   5.867  2.9423  0.1156 -1.6816
 8352TIP3    H246548   6.520   5.609   5.896 -1.6728  1.6649  0.4883
 8353TIP3   OH246549   0.828   4.378  14.314  0.2268  0.2576  0.2528
 8353TIP3    H146550   0.851   4.332  14.233 -0.9502  3.1327 -1.9260
 8353TIP3    H246551   0.764   4.321  14.357  1.1506 -1.5150 -0.6181
 8354TIP3   OH246552   6.277   5.693  14.587  0.1528  0.0087  0.7074
 8354TIP3    H146553   6.241   5.639  14.656 -0.8725  1.4536  1.3530
 8354TIP3    H246554   6.348   5.641  14.550 -0.9031 -1.8324  1.1546
 8355TIP3   OH246555   4.849   2.588   5.402 -0.7280 -0.2368  0.0984
 8355TIP3    H146556   4.897   2.663   5.438 -0.1978 -1.2383  1.5895
 8355TIP3    H246557   4.903   2.558   5.329 -0.8642  0.7105 -0.4113
 8356TIP3   OH246558   6.760   5.445  15.989 -0.4618  0.2384 -0.7126
 8356TIP3    H146559   6.736   5.452  16.081 -0.6918 -2.7069 -0.4549
 8356TIP3    H246560   6.694   5.387  15.951 -0.9583  2.1457 -3.0247
 8357TIP3   OH246561   4.937   4.544   2.321 -0.2318 -0.3035  0.5521
 8357TIP3    H146562   4.969   4.625   2.360  0.0971 -0.5369  0.7702
 8357TIP3    H246563   5.015   4.489   2.313 -0.4580 -0.6093  0.4317
 8358TIP3   OH246564   3.041   6.574  11.926 -0.7609 -0.3909 -0.0516
 8358TIP3    H146565   3.020   6.656  11.971  0.6303  0.7832 -1.4213
 8358TIP3    H246566   2.964   6.518  11.940 -1.8971  1.2640  0.6074
 8359TIP3   OH246567   2.317   5.163  13.473  0.4602 -0.1436  0.0381
 8359TIP3    H146568   2.232   5.143  13.434 -0.4472  1.4142  1.1155
 8359TIP3    H246569   2.296   5.203  13.557  2.2931 -0.6765  0.7974
 8360TIP3   OH246570   4.768   5.942   5.981  0.4556  0.0694 -0.0128
 8360TIP3    H146571   4.744   5.974   6.068 -2.5833 -0.2754 -0.6084
 8360TIP3    H246572   4.694   5.966   5.925  2.4172  0.5220 -2.6076
 8361TIP3   OH246573   0.539   2.573  14.102 -0.4649  0.0277 -0.1752
 8361TIP3    H146574   0.573   2.588  14.191  1.5572 -1.4769 -0.6313
 8361TIP3    H246575   0.446   2.557  14.115  0.4109 -4.8944  2.4036
 8362TIP3   OH246576   1.075   4.276   3.105 -0.6434  0.0316 -0.3459
 8362TIP3    H146577   1.076   4.236   3.019  1.2459 -1.6752  0.3753
 8362TIP3    H246578   1.162   4.257   3.141 -1.0307  1.5276  1.5608
 8363TIP3   OH246579   5.663   5.195  12.252 -0.3145 -0.1519  0.2388
 8363TIP3    H146580   5.695   5.216  12.164 -0.2417  0.1658  0.3417
 8363TIP3    H246581   5.634   5.278  12.288 -1.7011 -0.5065 -0.0170
 8364TIP3   OH246582   6.351   2.159  14.371 -0.1500 -0.6297  0.3612
 8364TIP3    H146583   6.319   2.112  14.448 -0.6318  0.2971  0.7502
 8364TIP3    H246584   6.441   2.184  14.393 -0.2300 -0.5146  0.5679
 8365TIP3   OH246585   6.596   3.485   2.244  0.1554  0.5253  0.1348
 8365TIP3    H146586   6.584   3.459   2.153  2.3583 -1.3693  0.2916
 8365TIP3    H246587   6.664   3.553   2.241  0.9779 -0.2693  0.4111
 8366TIP3   OH246588   5.553   5.773  11.204  0.2578 -0.4499  0.1389
 8366TIP3    H146589   5.593   5.840  11.260  1.0007 -0.6323 -0.1632
 8366TIP3    H246590   5.626   5.717  11.178 -0.5265 -2.2082  1.4826
 8367TIP3   OH246591   2.195   0.702  11.698  0.1003 -0.7270 -0.2202
 8367TIP3    H146592   2.151   0.643  11.636  1.6123  0.5572 -2.7147
 8367TIP3    H246593   2.131   0.771  11.715  0.5428  0.4605 -2.8106
 8368TIP3   OH246594   5.808   5.672  11.183  0.4637  0.1025  0.0542
 8368TIP3    H146595   5.855   5.626  11.252  0.8824  1.4615  0.6980
 8368TIP3    H246596   5.859   5.655  11.104  1.1501  0.2718  0.4610
 8369TIP3   OH246597   4.583   4.459  13.548 -0.7904  0.6094 -0.1190
 8369TIP3    H146598   4.497   4.467  13.507 -0.3639 -0.5045 -1.3058
 8369TIP3    H246599   4.598   4.364  13.552  0.1337  0.7725  0.6321
 8370TIP3   OH246600   2.450   5.982  10.457  0.0980 -0.1861 -0.0085
 8370TIP3    H146601   2.384   6.025  10.403  1.2120 -0.2153 -1.4538
 8370TIP3    H246602   2.404   5.959  10.537 -1.2091  1.3075 -0.2780
 8371TIP3   OH246603   1.858   0.852  14.350  0.0741 -0.0078 -0.0341
 8371TIP3    H146604   1.842   0.845  14.256 -1.1664 -0.8439  0.2130
 8371TIP3    H246605   1.921   0.782  14.369 -0.0577 -0.1634 -0.1653
 8372TIP3   OH246606   0.395   5.995   4.303 -0.3235 -0.3012  0.4657
 8372TIP3    H146607   0.357   6.030   4.384 -0.5404 -0.0882  0.2770
 8372TIP3    H246608   0.361   5.906   4.297 -0.8302 -0.0992  0.2806
 8373TIP3   OH246609   4.595   4.437  16.742 -0.2544  0.2963 -0.2293
 8373TIP3    H146610   4.535   4.510  16.759 -0.2920  0.5415 -1.3834
 8373TIP3    H246611   4.538   4.365  16.716 -0.0732  0.4450 -1.0483
 8374TIP3   OH246612   5.134   1.089   2.999  0.1289 -0.4899 -0.6893
 8374TIP3    H146613   5.052   1.077   2.951 -0.3291  0.5085 -0.1684
 8374TIP3    H246614   5.108   1.090   3.091  1.0145 -2.5034 -0.3586
 8375TIP3   OH246615   1.839   0.237   5.582  0.2311 -0.5580 -0.0262
 8375TIP3    H146616   1.856   0.317   5.632 -1.2264  0.9598 -1.8416
 8375TIP3    H246617   1.775   0.189   5.635 -1.2192  0.9802 -0.3145
 8376TIP3   OH246618   6.555   4.248  17.068  0.1794  0.3793  0.3053
 8376TIP3    H146619   6.542   4.312  16.998 -1.0064 -1.2629 -1.0878
 8376TIP3    H246620   6.650   4.237  17.074  0.4723  2.8367  1.1970
 8377TIP3   OH246621   6.189   2.963  14.594  0.6900 -0.4347  0.0280
 8377TIP3    H146622   6.241   2.979  14.673  0.6616 -0.3152  0.0220
 8377TIP3    H246623   6.098   2.966  14.624  0.7001 -1.6027  0.2202
 8378TIP3   OH246624   2.757   4.767   1.817 -0.2639 -0.5448 -0.1210
 8378TIP3    H146625   2.669   4.778   1.852  0.2339 -0.7690  1.2731
 8378TIP3    H246626   2.775   4.673   1.827 -0.4064 -0.7764 -1.7862
 8379TIP3   OH246627   4.378   3.213  12.194 -0.2785 -0.3330  0.1574
 8379TIP3    H146628   4.387   3.276  12.123 -1.4846  0.3673  0.5857
 8379TIP3    H246629   4.355   3.131  12.151 -0.9257  0.0690 -0.2815
 8380TIP3   OH246630   1.228   0.090  13.007 -0.0120 -0.3842 -0.2599
 8380TIP3    H146631   1.178   0.081  12.926  0.6697 -0.8717 -0.6352
 8380TIP3    H246632   1.204   0.013  13.059 -1.3471  0.5196  0.5195
 8381TIP3   OH246633   2.408   0.847  15.842  0.1018  0.1421 -0.0237
 8381TIP3    H146634   2.375   0.781  15.903  0.1600 -1.2694 -1.4431
 8381TIP3    H246635   2.343   0.917  15.844 -0.5286 -0.4530  0.7227
 8382TIP3   OH246636   3.780   2.677   3.876  0.0883  0.2755  0.3196
 8382TIP3    H146637   3.807   2.720   3.957 -2.0177  1.9973  0.2177
 8382TIP3    H246638   3.712   2.615   3.903 -0.6613  0.8970 -0.0955
 8383TIP3   OH246639   5.341   1.228   3.272 -0.0488  0.2864 -0.2052
 8383TIP3    H146640   5.249   1.202   3.260  0.1134 -0.4681  0.0965
 8383TIP3    H246641   5.378   1.159   3.327  0.4919  1.0270  0.3714
 8384TIP3   OH246642   1.870   6.081  13.994  0.0587  0.2028 -0.3591
 8384TIP3    H146643   1.831   6.167  14.009  1.7162  0.7367  1.3012
 8384TIP3    H246644   1.900   6.084  13.903  0.6700  1.6566 -0.1417
 8385TIP3   OH246645   2.109   6.202   0.236 -0.1206 -0.1005  0.3867
 8385TIP3    H146646   2.016   6.223   0.236 -0.3032 -0.8287 -0.7925
 8385TIP3    H246647   2.113   6.108   0.217  0.8563 -0.0723  0.3921
 8386TIP3   OH246648   4.392   5.152  13.164  0.0584 -0.3709  0.2750
 8386TIP3    H146649   4.366   5.202  13.087  1.4942 -0.5356 -0.3359
 8386TIP3    H246650   4.392   5.060  13.135  1.3726 -0.3735  0.2066
 8387TIP3   OH246651   2.003   4.291   2.275 -0.2450  0.1166 -0.7521
 8387TIP3    H146652   2.040   4.245   2.350  2.1672 -2.0871 -3.0729
 8387TIP3    H246653   1.908   4.275   2.282  0.1020 -1.6284  0.8384
 8388TIP3   OH246654   6.620   2.895  11.882  0.4731 -0.4796  0.1968
 8388TIP3    H146655   6.699   2.862  11.840  0.8939  0.8075 -0.0968
 8388TIP3    H246656   6.583   2.955  11.817  0.2184  0.2482  0.9983
 8389TIP3   OH246657   5.657   3.790  16.863 -0.1767 -0.1136  0.0871
 8389TIP3    H146658   5.669   3.707  16.817  0.4962  0.5681 -1.0088
 8389TIP3    H246659   5.652   3.856  16.794  0.9980  0.9636  0.9681
 8390TIP3   OH246660   3.225   5.479   2.083 -0.5195  0.3202 -0.4787
 8390TIP3    H146661   3.258   5.564   2.056  0.5673  0.2849  0.6640
 8390TIP3    H246662   3.150   5.463   2.025  2.5336 -0.5042 -4.7287
 8391TIP3   OH246663   4.837   2.268   1.498 -0.0751  0.1672 -1.0990
 8391TIP3    H146664   4.917   2.244   1.452 -0.9424 -1.2298 -1.9520
 8391TIP3    H246665   4.806   2.347   1.453  0.2261  0.0711 -1.4795
 8392TIP3   OH246666   1.842   2.550   6.235  0.4074  0.4736  0.3411
 8392TIP3    H146667   1.862   2.562   6.328 -0.3304 -1.4980  0.7950
 8392TIP3    H246668   1.750   2.575   6.227  0.1572 -0.3981  0.3849
 8393TIP3   OH246669   5.611   5.898   5.192  0.1117 -0.0063 -0.5599
 8393TIP3    H146670   5.707   5.900   5.186  0.0374  0.1169 -2.6426
 8393TIP3    H246671   5.586   5.821   5.140 -0.9636  0.7636 -1.2196
 8394TIP3   OH246672   2.854   0.295  14.951  0.1520 -0.2098 -0.6056
 8394TIP3    H146673   2.938   0.332  14.922 -0.3466  1.9870  0.5903
 8394TIP3    H246674   2.802   0.371  14.977 -1.2956 -1.7087  1.0820
 8395TIP3   OH246675   5.912   4.786  14.640 -0.1109 -0.1402  0.2024
 8395TIP3    H146676   5.835   4.829  14.602 -0.0536 -0.1653  0.0574
 8395TIP3    H246677   5.976   4.855  14.652 -0.2194 -0.0879  0.4885
 8396TIP3   OH246678   5.422   2.471  13.619 -0.1902  0.1255 -0.0652
 8396TIP3    H146679   5.437   2.507  13.531 -1.6517 -0.7865 -0.7136
 8396TIP3    H246680   5.381   2.543  13.667 -0.7659  0.1505 -0.5866
 8397TIP3   OH246681   1.351   4.820   2.787 -0.4223  0.2533 -0.0028
 8397TIP3    H146682   1.349   4.901   2.839  1.7246  0.6797 -0.4945
 8397TIP3    H246683   1.293   4.838   2.713  0.6622  1.6766 -0.5437
 8398TIP3   OH246684   6.200   0.476   2.253 -0.1228 -0.4674  0.1991
 8398TIP3    H146685   6.168   0.562   2.226  0.1430 -0.5484 -0.4053
 8398TIP3    H246686   6.134   0.415   2.221  0.4604 -0.6095 -0.7864
 8399TIP3   OH246687   4.487   2.038   2.338  0.4371  0.1632  0.2908
 8399TIP3    H146688   4.454   1.954   2.368  1.9562 -0.3283  0.6525
 8399TIP3    H246689   4.543   2.017   2.264 -0.0644  0.9783 -0.3349
 8400TIP3   OH246690   1.499   1.888   4.127  0.3517  0.9866 -0.2500
 8400TIP3    H146691   1.471   1.892   4.036  0.3519  3.2095 -0.2035
 8400TIP3    H246692   1.574   1.828   4.126 -0.5825 -0.2275 -1.4094
 8401TIP3   OH246693   1.919   2.328  14.858  0.0271 -1.1509 -0.2405
 8401TIP3    H146694   1.961   2.414  14.863  0.3064 -1.0765 -2.6664
 8401TIP3    H246695   1.981   2.268  14.898  0.4992 -0.4252  0.1229
 8402TIP3   OH246696   3.668   4.742   2.868 -0.3726 -0.2818 -0.1688
 8402TIP3    H146697   3.628   4.693   2.940 -0.1047 -1.7861 -0.9969
 8402TIP3    H246698   3.705   4.674   2.811 -3.5501  0.5166 -3.5821
 8403TIP3   OH246699   4.286   3.397   0.680  0.3009  0.0889  0.0415
 8403TIP3    H146700   4.208   3.377   0.733  0.4974 -0.4475  0.1420
 8403TIP3    H246701   4.263   3.476   0.632 -0.1761  0.1360  0.3387
 8404TIP3   OH246702   0.310   2.013   3.167 -0.1586  0.3003 -0.1490
 8404TIP3    H146703   0.371   2.055   3.228 -1.3595  0.9600  0.6553
 8404TIP3    H246704   0.317   1.919   3.187  1.1674  0.2730 -0.6504
 8405TIP3   OH246705   4.149   3.793   1.405  0.2790 -0.1395  0.5001
 8405TIP3    H146706   4.113   3.879   1.380 -2.3792 -0.9405  1.2267
 8405TIP3    H246707   4.195   3.809   1.487 -1.3442  0.4057  1.3405
 8406TIP3   OH246708   6.800   2.760  16.168 -0.1377 -0.5286 -0.1990
 8406TIP3    H146709   6.847   2.677  16.160  2.3510  0.7183  0.6342
 8406TIP3    H246710   6.856   2.824  16.123 -0.3244  1.2622  1.9646
 8407TIP3   OH246711   3.741   6.700  10.763 -0.1529  0.0848  0.5122
 8407TIP3    H146712   3.799   6.696  10.686  0.0252  1.6187  0.5302
 8407TIP3    H246713   3.774   6.774  10.814 -2.2446  1.1569  0.4167
 8408TIP3   OH246714   4.003   6.806   5.060  0.4146  0.0242 -0.1572
 8408TIP3    H146715   3.923   6.777   5.104 -1.4936  2.9127 -1.4189
 8408TIP3    H246716   4.006   6.756   4.979 -0.7466  0.6346 -0.5962
 8409TIP3   OH246717   0.662   1.479   1.228 -0.3655 -0.7790 -0.2065
 8409TIP3    H146718   0.585   1.423   1.234  0.2817 -1.9172 -1.8306
 8409TIP3    H246719   0.735   1.421   1.250  0.3565 -0.7471 -2.3143
 8410TIP3   OH246720   6.113   6.462  12.734  0.4108 -0.4428  0.0444
 8410TIP3    H146721   6.030   6.450  12.781 -0.9504  0.2429 -2.0687
 8410TIP3    H246722   6.175   6.487  12.802 -1.6882  1.4858  1.4054
 8411TIP3   OH246723   6.685   0.715  12.174 -0.3005 -0.6518 -0.0585
 8411TIP3    H146724   6.626   0.790  12.186 -0.3752 -0.9382  1.6449
 8411TIP3    H246725   6.626   0.640  12.160 -0.3727 -0.8903  1.3638
 8412TIP3   OH246726   4.441   3.992  10.660  0.5354  0.4935 -0.1653
 8412TIP3    H146727   4.492   4.071  10.677 -0.4059  1.2603 -0.8050
 8412TIP3    H246728   4.484   3.950  10.585 -0.7649  2.1021 -1.9042
 8413TIP3   OH246729   6.654   2.318   1.841  0.4678 -0.2089 -0.2772
 8413TIP3    H146730   6.691   2.271   1.916  1.1099 -0.2184 -0.5990
 8413TIP3    H246731   6.668   2.260   1.766 -0.0824 -0.1571 -0.4239
 8414TIP3   OH246732   0.983   4.985  13.954  0.5902 -0.0183  0.3498
 8414TIP3    H146733   0.934   5.035  14.020  0.9125 -1.1548  1.4765
 8414TIP3    H246734   0.999   4.900  13.995  2.5088 -0.0750 -0.4346
 8415TIP3   OH246735   5.737   1.698   2.930 -0.0333  0.3738 -0.0385
 8415TIP3    H146736   5.664   1.759   2.942  0.2539  1.0859 -1.7181
 8415TIP3    H246737   5.697   1.619   2.893  0.0080  0.6762 -0.7345
 8416TIP3   OH246738   5.133   5.913   5.425  0.2161  0.0483 -0.0248
 8416TIP3    H146739   5.221   5.889   5.396  0.2600 -0.2069  0.3140
 8416TIP3    H246740   5.147   5.977   5.494  0.0915  1.3955 -1.1984
 8417TIP3   OH246741   5.817   6.655  13.594 -0.8616 -0.0480  0.0656
 8417TIP3    H146742   5.809   6.586  13.529 -0.4497 -0.2709  0.2516
 8417TIP3    H246743   5.871   6.618  13.664 -0.4268  0.5416  0.0531
 8418TIP3   OH246744   6.690   1.973   0.568 -0.1287 -0.1918  0.4367
 8418TIP3    H146745   6.659   1.897   0.518  0.9355 -0.0746 -0.4312
 8418TIP3    H246746   6.643   1.968   0.651 -3.3769  0.5991 -1.1690
 8419TIP3   OH246747   4.393   6.046   0.036 -0.5011 -0.6893  0.5564
 8419TIP3    H146748   4.378   5.987  -0.038  0.6946  1.6407 -1.6938
 8419TIP3    H246749   4.309   6.089   0.049  0.2446  2.1622 -2.6444
 8420TIP3   OH246750   6.430   5.217   4.113 -0.0767  0.6829 -0.4726
 8420TIP3    H146751   6.493   5.168   4.060 -0.2188 -0.6853  0.5479
 8420TIP3    H246752   6.367   5.251   4.050  1.3977  1.6686 -1.4604
 8421TIP3   OH246753   3.576   2.459   5.008  0.7627  0.0272  0.0994
 8421TIP3    H146754   3.655   2.414   5.037  0.7604  0.0422  0.1288
 8421TIP3    H246755   3.551   2.415   4.927  0.6860 -0.1116  0.1980
 8422TIP3   OH246756   6.150   0.717   0.596  0.0321 -0.3543 -0.4824
 8422TIP3    H146757   6.161   0.715   0.501 -0.0539 -1.7270 -0.4697
 8422TIP3    H246758   6.057   0.731   0.609  0.0939  0.1857 -0.5895
 8423TIP3   OH246759   2.961   6.037   2.997 -0.3963  0.4142 -0.5800
 8423TIP3    H146760   3.010   5.996   2.925 -0.0219 -1.7732  0.8084
 8423TIP3    H246761   2.870   6.038   2.966 -0.2358 -0.4163 -1.1410
 8424TIP3   OH246762   4.786   4.664  15.342  0.5986  0.5893 -0.2864
 8424TIP3    H146763   4.768   4.674  15.435 -1.3940  0.5996 -0.6139
 8424TIP3    H246764   4.777   4.570  15.326 -3.0092  0.8947 -1.0556
 8425TIP3   OH246765   3.294   0.668   3.721 -0.1565 -0.2797  0.6798
 8425TIP3    H146766   3.326   0.640   3.636 -2.6041 -0.0049 -0.4266
 8425TIP3    H246767   3.348   0.621   3.784  0.8510 -1.5133 -1.0300
 8426TIP3   OH246768   0.762   2.443   2.701  0.1449 -0.8405 -0.4975
 8426TIP3    H146769   0.726   2.372   2.754  1.8447 -1.9923 -0.8102
 8426TIP3    H246770   0.855   2.445   2.723  0.2429  0.9757 -0.8755
 8427TIP3   OH246771   3.524   6.772   0.885  0.0215 -0.1806 -0.4398
 8427TIP3    H146772   3.533   6.866   0.868 -0.9838 -0.0322 -0.2519
 8427TIP3    H246773   3.603   6.748   0.934  0.4636  0.4859 -0.8194
 8428TIP3   OH246774   4.866   0.022   5.693 -0.1283  0.3359 -0.0033
 8428TIP3    H146775   4.822   0.034   5.777  0.3410 -0.1227  0.3170
 8428TIP3    H246776   4.957   0.046   5.710  0.5055 -2.0371  0.2641
 8429TIP3   OH246777   6.386   1.374   2.506  0.8333  0.3339 -0.2661
 8429TIP3    H146778   6.456   1.426   2.466  1.5696 -0.1069  0.4253
 8429TIP3    H246779   6.431   1.315   2.566  0.0180 -1.1199 -1.0254
 8430TIP3   OH246780   5.482   4.961  12.398  0.0621  0.1578 -0.0726
 8430TIP3    H146781   5.490   4.866  12.387 -0.5706 -0.0178  0.9365
 8430TIP3    H246782   5.503   4.977  12.490 -1.4061  0.8040  0.1780
 8431TIP3   OH246783   5.936   6.131   2.044  0.3754 -0.9072  0.2738
 8431TIP3    H146784   5.868   6.195   2.023 -0.8063 -2.5912 -1.2985
 8431TIP3    H246785   5.935   6.125   2.140 -1.8266 -1.0025  0.2918
 8432TIP3   OH246786   1.916   3.685   3.235  0.1707 -0.5363 -0.8872
 8432TIP3    H146787   2.012   3.686   3.241  0.1696 -1.4333 -0.4158
 8432TIP3    H246788   1.890   3.611   3.290 -0.8992  0.6356  0.2443
 8433TIP3   OH246789   4.913   3.945  16.770 -0.3923  0.3938  0.1748
 8433TIP3    H146790   4.979   4.010  16.794  0.7417 -0.5067 -0.4056
 8433TIP3    H246791   4.917   3.941  16.674 -0.0335 -0.9290  0.2273
 8434TIP3   OH246792   3.616   0.950  11.014 -0.3422 -0.5606 -0.0499
 8434TIP3    H146793   3.566   0.909  11.085  0.0169  0.1565  0.6216
 8434TIP3    H246794   3.646   1.033  11.050 -1.5371  0.5933 -1.5812
 8435TIP3   OH246795   5.956   4.260  17.115 -0.0315 -0.3846  0.2863
 8435TIP3    H146796   6.040   4.260  17.161  1.7948 -0.1646 -2.7032
 8435TIP3    H246797   5.942   4.169  17.089  0.5197 -0.0978 -1.1301
 8436TIP3   OH246798   3.163   0.223  13.844  0.1752 -1.0816  0.1175
 8436TIP3    H146799   3.152   0.155  13.911 -0.9306 -1.4077 -0.3694
 8436TIP3    H246800   3.159   0.306  13.893 -3.1338 -1.1856  0.2840
 8437TIP3   OH246801   4.035   1.882  11.011  0.4649 -0.0675  0.6866
 8437TIP3    H146802   4.120   1.921  11.029  0.5870  0.2608 -0.5354
 8437TIP3    H246803   4.047   1.833  10.931 -0.5034 -0.0060  0.4853
 8438TIP3   OH246804   2.839   0.863  12.943 -0.1038  0.0641  0.1798
 8438TIP3    H146805   2.755   0.909  12.950 -0.2931 -0.0791 -0.9568
 8438TIP3    H246806   2.840   0.829  12.853  1.2869  0.2783  0.1003
 8439TIP3   OH246807   1.540   3.668  15.435  0.5799  0.3461 -0.0252
 8439TIP3    H146808   1.487   3.744  15.409 -0.2577  0.2825  1.3884
 8439TIP3    H246809   1.496   3.593  15.393  0.6554  0.4993 -0.3795
 8440TIP3   OH246810   1.237   0.351   1.373  0.0917  0.0621 -0.4023
 8440TIP3    H146811   1.257   0.257   1.366 -0.7036 -0.2728  1.3012
 8440TIP3    H246812   1.143   0.356   1.359  0.4159  0.9145 -2.6314
 8441TIP3   OH246813   1.046   4.532  15.470  0.2808 -0.1131  0.1179
 8441TIP3    H146814   1.096   4.471  15.416 -3.0221 -1.7555 -1.3872
 8441TIP3    H246815   1.112   4.590  15.509  3.1929 -1.4719 -2.3770
 8442TIP3   OH246816   2.367   2.998   0.012 -0.1370 -0.3403  0.4110
 8442TIP3    H146817   2.379   2.931   0.079  0.9403 -0.2623  0.3187
 8442TIP3    H246818   2.407   3.077   0.049 -1.5576  0.3239  0.5965
 8443TIP3   OH246819   2.897   2.770  15.871  0.1599 -0.2249 -0.1578
 8443TIP3    H146820   2.836   2.704  15.902 -0.3222  0.6058  0.6774
 8443TIP3    H246821   2.844   2.848  15.855  0.9641  0.4928  0.5197
 8444TIP3   OH246822   4.124   0.379   5.289  0.0056  0.0949  0.5043
 8444TIP3    H146823   4.115   0.429   5.208 -2.4069  1.3968  1.4553
 8444TIP3    H246824   4.102   0.289   5.264 -1.5210  0.6208 -0.2106
 8445TIP3   OH246825   6.824   2.942   3.963  0.3040 -0.1169  0.1077
 8445TIP3    H146826   6.786   2.856   3.943  0.3306 -0.2345  0.5659
 8445TIP3    H246827   6.908   2.942   3.917  0.0989 -0.1534 -0.2769
 8446TIP3   OH246828   6.301   6.191   6.117  0.3718 -0.1824 -0.1789
 8446TIP3    H146829   6.332   6.102   6.132  0.1543 -0.4155 -1.1066
 8446TIP3    H246830   6.210   6.190   6.146  0.2756 -0.3437 -0.4889
 8447TIP3   OH246831   4.735   5.807   4.785  0.2350 -0.1198 -0.1525
 8447TIP3    H146832   4.715   5.888   4.832 -0.5424 -0.8178  0.7685
 8447TIP3    H246833   4.652   5.779   4.747  0.6144 -0.1952 -0.9310
 8448TIP3   OH246834   1.404   0.629   1.802  0.0993  0.3805 -0.2561
 8448TIP3    H146835   1.384   0.639   1.895  1.1119  0.1074 -0.0022
 8448TIP3    H246836   1.344   0.561   1.772 -0.1947  0.4320  0.2096
 8449TIP3   OH246837   4.333   1.026  15.395 -0.2172 -0.1047 -0.1816
 8449TIP3    H146838   4.381   0.955  15.437  1.5005 -0.6209 -2.7949
 8449TIP3    H246839   4.269   1.054  15.461  0.9599 -2.1254  1.9627
 8450TIP3   OH246840   3.485   0.150   0.256  0.1593  0.3959  0.1557
 8450TIP3    H146841   3.549   0.088   0.222 -0.6869  0.8575 -2.4351
 8450TIP3    H246842   3.520   0.236   0.233  0.3568  0.8693  1.9916
 8451TIP3   OH246843   0.144   4.226   4.516 -0.4285  0.4044 -0.0498
 8451TIP3    H146844   0.200   4.214   4.440 -0.1137  0.6112  0.1477
 8451TIP3    H246845   0.127   4.137   4.548  2.1737  0.4055  1.6135
 8452TIP3   OH246846   2.808   4.134  13.887 -0.0680  0.5665 -0.0324
 8452TIP3    H146847   2.828   4.075  13.815 -0.6015  1.4981 -0.9595
 8452TIP3    H246848   2.719   4.112  13.912 -0.0317  0.5367  0.0748
 8453TIP3   OH246849   0.176   0.573  13.842  0.5829  0.4370  0.1548
 8453TIP3    H146850   0.190   0.511  13.771  1.0353 -0.5860  1.1053
 8453TIP3    H246851   0.201   0.658  13.806  0.8007 -0.0597 -0.8969
 8454TIP3   OH246852   4.677   5.535   3.442  0.4037 -0.9684 -0.0950
 8454TIP3    H146853   4.583   5.543   3.457  0.4476 -0.8405  0.1178
 8454TIP3    H246854   4.685   5.521   3.348  0.3604  3.1937 -0.9028
 8455TIP3   OH246855   5.859   6.469  12.520  0.2757  0.1507  0.3818
 8455TIP3    H146856   5.871   6.374  12.527 -1.5665 -0.1324  0.2085
 8455TIP3    H246857   5.780   6.486  12.570 -0.7591  1.2498 -1.5233
 8456TIP3   OH246858   6.458   0.369  12.233  0.4843  0.2310  0.1530
 8456TIP3    H146859   6.421   0.453  12.207  0.5452  0.0912 -0.3960
 8456TIP3    H246860   6.441   0.363  12.327  0.1739  0.6991  0.1279
 8457TIP3   OH246861   1.834   5.289   0.830 -0.0293 -0.2313 -0.3064
 8457TIP3    H146862   1.770   5.269   0.761 -0.9072 -0.3265  0.5187
 8457TIP3    H246863   1.835   5.385   0.834 -2.9624 -0.1702  2.1870
 8458TIP3   OH246864   6.715   3.102  12.104  0.4733 -0.2097 -0.5909
 8458TIP3    H146865   6.726   3.195  12.127  2.5471 -0.4407 -0.3925
 8458TIP3    H246866   6.669   3.103  12.021 -1.9483  0.8732  0.6711
 8459TIP3   OH246867   2.640   0.463   3.218  0.4446  0.1897 -0.1388
 8459TIP3    H146868   2.607   0.532   3.160 -0.4527  0.3954  0.5949
 8459TIP3    H246869   2.566   0.404   3.229 -0.1531  1.2995  2.5308
 8460TIP3   OH246870   4.774   2.547  10.975 -0.6145  0.2069  0.3305
 8460TIP3    H146871   4.832   2.471  10.963  0.7628  1.3062 -0.3069
 8460TIP3    H246872   4.718   2.523  11.048 -1.6916 -2.2834 -1.1883
 8461TIP3   OH246873   2.220   6.754   0.698  0.2847  0.2879 -0.4244
 8461TIP3    H146874   2.238   6.759   0.792  1.3293 -0.6015 -0.5519
 8461TIP3    H246875   2.288   6.696   0.663 -0.5316 -0.0108 -1.6177
 8462TIP3   OH246876   0.677   2.200  11.567  0.1633  0.2080  0.2907
 8462TIP3    H146877   0.750   2.142  11.543  0.8828 -0.1095  2.9239
 8462TIP3    H246878   0.693   2.280  11.517  0.9094 -0.7329 -1.0602
 8463TIP3   OH246879   0.693   2.419  13.901 -0.2196 -0.1707 -0.3058
 8463TIP3    H146880   0.765   2.385  13.954 -1.7826 -0.5344  1.7084
 8463TIP3    H246881   0.636   2.463  13.964 -1.5715  0.4224 -1.8927
 8464TIP3   OH246882   5.406   3.750  12.895 -0.2964  0.2870  0.4565
 8464TIP3    H146883   5.350   3.674  12.907  0.0634 -0.0326  0.1673
 8464TIP3    H246884   5.348   3.825  12.906 -1.2109 -0.0271 -1.6348
 8465TIP3   OH246885   1.735   0.103  13.972  0.2133 -0.3064  0.0508
 8465TIP3    H146886   1.732   0.043  13.897 -1.0186 -1.6020  1.0866
 8465TIP3    H246887   1.826   0.097  14.002  0.6916  0.1157 -1.2078
 8466TIP3   OH246888   6.456   2.964   1.886  0.5804 -0.1078  0.6379
 8466TIP3    H146889   6.413   3.019   1.821  1.3754  1.8626  1.6545
 8466TIP3    H246890   6.535   2.932   1.843  0.4982  0.2007  0.2543
 8467TIP3   OH246891   4.125   5.096   3.795 -0.3159 -0.0028  0.5119
 8467TIP3    H146892   4.165   5.018   3.834  0.3745  0.4890  0.8145
 8467TIP3    H246893   4.187   5.167   3.815 -0.7880  0.5672 -0.0145
 8468TIP3   OH246894   3.996   2.411   1.432 -0.0033  0.6116 -0.3251
 8468TIP3    H146895   3.911   2.365   1.433  0.7723 -0.9028 -0.9821
 8468TIP3    H246896   4.017   2.419   1.339  0.4797  1.1956 -0.1680
 8469TIP3   OH246897   1.021   0.454   3.156 -0.4166  0.2766 -0.1103
 8469TIP3    H146898   1.048   0.545   3.169 -0.7955  0.1835  1.6896
 8469TIP3    H246899   0.962   0.457   3.081 -0.3175  1.4989 -0.1605
 8470TIP3   OH246900   4.952   3.395  16.733 -0.4225  0.4958 -0.3502
 8470TIP3    H146901   4.885   3.359  16.675 -0.9426  1.7913 -0.5961
 8470TIP3    H246902   4.999   3.319  16.766  0.2514 -0.2798 -2.8676
 8471TIP3   OH246903   0.277   4.765  15.851  0.0442  0.2930  0.3499
 8471TIP3    H146904   0.328   4.688  15.879 -0.3389 -0.1012 -0.0231
 8471TIP3    H246905   0.263   4.814  15.931 -0.8686 -0.7240  0.8360
 8472TIP3   OH246906   4.761   3.036   3.282 -0.0258 -0.2780  0.0594
 8472TIP3    H146907   4.804   2.953   3.305  0.2490 -0.0914  0.2302
 8472TIP3    H246908   4.748   3.080   3.367 -0.4019 -0.2567 -0.0060
 8473TIP3   OH246909   4.662   5.033   6.750  0.1366 -0.5571  0.8975
 8473TIP3    H146910   4.745   5.062   6.788  0.0942  0.2725  0.3958
 8473TIP3    H246911   4.683   4.949   6.709  1.0500  0.1764 -0.2405
 8474TIP3   OH246912   4.903   3.491  11.906  0.2793 -0.6132 -0.0868
 8474TIP3    H146913   4.956   3.534  11.973  0.9771 -1.9100  0.2318
 8474TIP3    H246914   4.817   3.481  11.946  0.1465  0.3011 -0.1095
 8475TIP3   OH246915   6.480   1.590   3.122 -0.5499  0.2425  0.2200
 8475TIP3    H146916   6.523   1.619   3.202  2.6993 -1.3481 -0.7662
 8475TIP3    H246917   6.513   1.650   3.055 -0.2750 -0.6578 -0.4761
 8476TIP3   OH246918   5.017   3.913  11.256  0.1761 -0.0052 -0.3234
 8476TIP3    H146919   5.011   3.945  11.166 -0.4145 -1.0399 -0.6790
 8476TIP3    H246920   4.926   3.915  11.288  0.2499 -0.4924 -0.0686
 8477TIP3   OH246921   0.908   6.295  15.333 -0.1737  0.0840  0.3695
 8477TIP3    H146922   0.964   6.229  15.291 -0.4995  0.5466 -0.8398
 8477TIP3    H246923   0.923   6.375  15.282  0.7718  1.1769  2.2618
 8478TIP3   OH246924   1.870   2.532  13.857  0.0480 -0.4130  0.3689
 8478TIP3    H146925   1.901   2.582  13.781  1.0573 -0.0103  1.0238
 8478TIP3    H246926   1.786   2.574  13.881  1.5640  2.0617  1.8308
 8479TIP3   OH246927   4.599   6.492   2.069 -0.6066  0.1621  0.7205
 8479TIP3    H146928   4.509   6.472   2.095 -1.2558  1.7191 -0.2266
 8479TIP3    H246929   4.593   6.574   2.021  1.0604 -0.6785 -1.0592
 8480TIP3   OH246930   4.077   0.930  11.973  0.2269  0.3938  0.1892
 8480TIP3    H146931   4.087   0.873  12.050  0.9817  1.5891  1.0141
 8480TIP3    H246932   3.982   0.945  11.967  0.2215  0.9451  1.3999
 8481TIP3   OH246933   0.344   3.663  14.322  0.2759 -0.1092  0.0408
 8481TIP3    H146934   0.323   3.587  14.376  0.3925 -0.2189 -0.0689
 8481TIP3    H246935   0.332   3.738  14.381 -1.8126 -0.0382 -0.3727
 8482TIP3   OH246936   2.085   5.849   5.463 -0.0459  0.5239 -0.4229
 8482TIP3    H146937   2.111   5.924   5.410 -0.3304  1.4751  0.7523
 8482TIP3    H246938   2.122   5.774   5.417 -0.2385  1.3081 -1.9389
 8483TIP3   OH246939   0.037   6.193   4.648  0.1266  0.4864 -0.3261
 8483TIP3    H146940   0.078   6.183   4.562 -0.8142  2.4730 -1.0843
 8483TIP3    H246941   0.110   6.191   4.710  1.0912  1.3061 -1.3982
 8484TIP3   OH246942   3.373   5.813  11.314 -0.3126 -0.3713 -0.2593
 8484TIP3    H146943   3.419   5.897  11.309 -0.7286 -0.1713 -0.6570
 8484TIP3    H246944   3.420   5.765  11.383 -0.0922  0.1927 -0.0149
 8485TIP3   OH246945   0.726   6.634   2.907 -0.3251  0.2222 -0.2068
 8485TIP3    H146946   0.776   6.714   2.893  0.1719 -0.1943 -0.8807
 8485TIP3    H246947   0.647   6.645   2.855  0.8659 -0.7231 -2.3403
 8486TIP3   OH246948   1.488   5.233  16.126  0.2265  0.4542  0.0014
 8486TIP3    H146949   1.568   5.278  16.098  0.3374  0.1830 -0.1198
 8486TIP3    H246950   1.432   5.236  16.049  1.4761 -2.4946 -1.1411
 8487TIP3   OH246951   0.552   4.729   3.757  0.1669 -0.5401 -0.3567
 8487TIP3    H146952   0.500   4.808   3.738  1.8978  0.2139 -2.4015
 8487TIP3    H246953   0.497   4.677   3.815 -0.8089  2.4386  1.6139
 8488TIP3   OH246954   5.986   0.732   4.756  0.0055 -0.1757 -0.3349
 8488TIP3    H146955   5.900   0.763   4.784  0.4933  0.1399  0.8649
 8488TIP3    H246956   6.013   0.671   4.825  0.9792  0.1578 -0.4134
 8489TIP3   OH246957   1.280   4.497  12.785 -0.1814 -0.3897 -0.1390
 8489TIP3    H146958   1.353   4.555  12.765  0.1968 -0.4676  0.9478
 8489TIP3    H246959   1.210   4.525  12.726  1.0114 -0.9525 -1.8829
 8490TIP3   OH246960   4.221   0.542  12.625  0.1741 -0.3794  0.2144
 8490TIP3    H146961   4.149   0.568  12.567 -0.4224 -0.7702  0.7633
 8490TIP3    H246962   4.300   0.563  12.576 -0.3037  0.6806 -0.1243
 8491TIP3   OH246963   3.994   0.802  11.722  0.5787  0.0147 -0.3288
 8491TIP3    H146964   4.051   0.761  11.657  0.0716 -2.4942  0.7161
 8491TIP3    H246965   4.025   0.768  11.806  0.0437  1.7613  0.6353
 8492TIP3   OH246966   6.270   6.658  10.500  0.2515  0.1239 -0.8283
 8492TIP3    H146967   6.352   6.706  10.508 -0.0980  0.6406 -0.2174
 8492TIP3    H246968   6.202   6.724  10.513 -0.2799 -0.2227 -1.7190
 8493TIP3   OH246969   3.168   6.142   0.669  0.1588 -0.8581 -0.2055
 8493TIP3    H146970   3.157   6.236   0.681  0.8305 -0.6673 -1.0191
 8493TIP3    H246971   3.144   6.127   0.577 -0.4590 -1.5712  0.0586
 8494TIP3   OH246972   4.042   3.819  16.192 -0.0200  0.3027 -0.0901
 8494TIP3    H146973   4.015   3.901  16.234  1.7280  0.6773  0.3748
 8494TIP3    H246974   4.095   3.847  16.118  0.8619 -0.4009  0.2626
 8495TIP3   OH246975   3.279   0.679  11.816 -0.1669 -0.4523  0.1464
 8495TIP3    H146976   3.371   0.699  11.802 -0.4821  0.2349 -1.0698
 8495TIP3    H246977   3.246   0.656  11.729 -1.5348  1.0065  0.2433
 8496TIP3   OH246978   6.458   6.555   4.885  0.3066  0.1020  0.1771
 8496TIP3    H146979   6.519   6.481   4.890 -0.3481 -0.4375  0.1989
 8496TIP3    H246980   6.452   6.575   4.792 -1.0905 -1.1975 -0.0328
 8497TIP3   OH246981   2.976   2.087   3.429  0.1704 -0.0578  0.3974
 8497TIP3    H146982   2.959   2.072   3.522  0.6010 -1.9575  0.2044
 8497TIP3    H246983   3.034   2.015   3.403 -0.6853 -0.1104 -1.5542
 8498TIP3   OH246984   4.541   2.147   0.726 -0.0768  0.0392 -0.2806
 8498TIP3    H146985   4.632   2.128   0.745 -0.4608 -2.0109 -0.3422
 8498TIP3    H246986   4.510   2.072   0.675 -1.9661  0.3798  0.2808
 8499TIP3   OH246987   0.078   5.727  11.680 -0.8628  0.0678 -0.1973
 8499TIP3    H146988   0.021   5.650  11.670 -0.2359 -0.5289  0.7395
 8499TIP3    H246989   0.095   5.732  11.774  0.9395  0.0044 -0.5004
 8500TIP3   OH246990   2.079   6.425  11.003  0.1337  0.0601  0.0911
 8500TIP3    H146991   2.138   6.492  10.968  0.9869 -0.6921  0.0583
 8500TIP3    H246992   2.001   6.474  11.028 -0.2038  0.7499 -2.0973
 8501TIP3   OH246993   0.520   2.832  15.008  0.7348 -0.9429 -0.5890
 8501TIP3    H146994   0.494   2.839  14.916 -4.3776  0.4411  0.6286
 8501TIP3    H246995   0.534   2.738  15.022 -1.3181 -1.5875 -2.2545
 8502TIP3   OH246996   5.435   6.127  12.318 -0.6626 -0.4819  0.6177
 8502TIP3    H146997   5.421   6.135  12.224 -0.5765  0.1844  0.6579
 8502TIP3    H246998   5.446   6.217  12.349 -0.2513 -0.7251  1.1991
 8503TIP3   OH246999   1.409   1.853   3.857 -0.0675 -0.3313  0.6763
 8503TIP3    H147000   1.498   1.819   3.849  0.6192  1.3353  0.9214
 8503TIP3    H247001   1.359   1.802   3.794  1.0153 -1.3870  0.6170
 8504TIP3   OH247002   5.180   6.106  16.217 -0.8479  0.2292  0.2874
 8504TIP3    H147003   5.103   6.054  16.240 -1.3063  0.7297 -0.0904
 8504TIP3    H247004   5.244   6.085  16.284 -1.7208  0.7189  1.3009
 8505TIP3   OH247005   5.979   4.101  10.417  0.5926  0.5284  0.4521
 8505TIP3    H147006   5.997   4.016  10.376 -0.8253  1.3586 -2.0841
 8505TIP3    H247007   5.937   4.078  10.501 -2.4427 -1.4033 -1.4030
 8506TIP3   OH247008   5.197   3.688   3.448  0.0799 -0.0122 -0.2507
 8506TIP3    H147009   5.220   3.727   3.364  1.9677  1.3005  0.8047
 8506TIP3    H247010   5.137   3.750   3.489 -1.3691 -0.9658 -0.8518
 8507TIP3   OH247011   2.607   6.087   2.310  0.1234 -0.1208  0.4248
 8507TIP3    H147012   2.659   6.037   2.373  0.0214  2.0846  2.3824
 8507TIP3    H247013   2.669   6.144   2.266 -0.0473 -0.5529 -0.4102
 8508TIP3   OH247014   6.279   3.703  14.635 -0.1864  0.1298 -0.2282
 8508TIP3    H147015   6.187   3.698  14.608  0.0950 -0.8564 -1.0681
 8508TIP3    H247016   6.325   3.735  14.558  0.5694 -2.3044 -0.8811
 8509TIP3   OH247017   0.542   3.968   1.860 -0.4207 -0.4006  0.5358
 8509TIP3    H147018   0.528   3.885   1.816 -2.2311  0.3348 -0.3728
 8509TIP3    H247019   0.637   3.971   1.876  0.1988 -1.2120 -2.3326
 8510TIP3   OH247020   0.255   2.623   0.871  0.7107 -0.6711  0.0403
 8510TIP3    H147021   0.188   2.554   0.874 -0.8886  0.6112 -2.3739
 8510TIP3    H247022   0.322   2.588   0.812  0.2093 -0.4589 -0.6743
 8511TIP3   OH247023   4.402   2.573  13.717  0.0862 -0.4152  0.0132
 8511TIP3    H147024   4.383   2.628  13.793 -0.6042  0.6688 -0.9079
 8511TIP3    H247025   4.334   2.505  13.720 -0.0162 -0.3045  0.2985
 8512TIP3   OH247026   0.310   1.723  16.276  0.1084 -0.6520  0.0773
 8512TIP3    H147027   0.245   1.782  16.314 -0.2342  0.0967 -1.5791
 8512TIP3    H247028   0.316   1.650  16.338 -0.7307  0.2953  1.3070
 8513TIP3   OH247029   1.899   5.181   1.091  0.1704 -0.3266 -0.2555
 8513TIP3    H147030   1.935   5.268   1.076  1.8169 -1.1473 -1.3560
 8513TIP3    H247031   1.968   5.121   1.063 -1.7682 -2.0115 -1.7217
 8514TIP3   OH247032   1.474   1.791  17.110 -0.1861 -0.3309 -0.9102
 8514TIP3    H147033   1.527   1.711  17.106 -0.2555 -0.4565  0.4583
 8514TIP3    H247034   1.385   1.761  17.127 -0.4840 -0.0286 -1.8287
 8515TIP3   OH247035   6.026   4.098  14.127  0.2265  0.3055 -0.3038
 8515TIP3    H147036   6.011   4.186  14.093 -1.2761  0.3275  0.3124
 8515TIP3    H247037   5.953   4.083  14.188  0.5250 -1.3088 -0.2914
 8516TIP3   OH247038   5.317   1.166  16.291  0.5604 -0.8767  0.4135
 8516TIP3    H147039   5.243   1.225  16.287  1.7533  0.6173 -0.5087
 8516TIP3    H247040   5.323   1.142  16.384 -1.8433 -2.1513  0.3282
 8517TIP3   OH247041   0.076   3.491  15.770  0.9155 -0.2294 -0.5866
 8517TIP3    H147042  -0.017   3.486  15.794  1.4432 -0.6504  1.5354
 8517TIP3    H247043   0.092   3.411  15.721  0.3849 -0.6637 -0.0685
 8518TIP3   OH247044   1.391   1.911  15.908 -0.4978 -0.3094  0.7413
 8518TIP3    H147045   1.359   1.822  15.914  0.0132 -0.6356 -0.8735
 8518TIP3    H247046   1.486   1.903  15.917 -0.3287 -0.1086 -0.5759
 8519TIP3   OH247047   6.469   0.148  12.016  0.3818  0.2660  0.5469
 8519TIP3    H147048   6.442   0.233  11.983  1.6709  0.3475 -0.3889
 8519TIP3    H247049   6.556   0.162  12.053 -0.1694 -0.2710  2.1311
 8520TIP3   OH247050   5.856   0.508   0.227  0.4674  0.3893 -0.2774
 8520TIP3    H147051   5.895   0.578   0.279  1.3969  1.2892 -2.0746
 8520TIP3    H247052   5.855   0.432   0.285  2.0253  1.1770  0.8475
 8521TIP3   OH247053   5.264   5.212   0.245  0.7010  0.2495 -0.1118
 8521TIP3    H147054   5.312   5.265   0.182  0.8325  1.3885  0.9114
 8521TIP3    H247055   5.285   5.250   0.331 -0.6184 -0.3211  0.5078
 8522TIP3   OH247056   3.367   6.770   2.671  0.0535 -0.5778  0.2009
 8522TIP3    H147057   3.334   6.840   2.728 -2.2381  0.5135 -2.2142
 8522TIP3    H247058   3.461   6.783   2.668 -0.2426  2.1972  0.2091
 8523TIP3   OH247059   5.499   4.656  12.677  0.0350 -0.4528 -0.3292
 8523TIP3    H147060   5.584   4.643  12.720  0.2753 -1.5250 -1.0868
 8523TIP3    H247061   5.454   4.572  12.686 -0.1790 -0.4936 -1.5435
 8524TIP3   OH247062   1.197   0.554   5.145 -1.4708 -0.4691 -0.0028
 8524TIP3    H147063   1.165   0.561   5.235 -0.3406 -1.8740  0.5382
 8524TIP3    H247064   1.139   0.491   5.103  0.8608 -3.7043  1.2255
 8525TIP3   OH247065   2.302   1.600   6.745  0.0920  0.5597 -0.8615
 8525TIP3    H147066   2.247   1.607   6.666  0.6470 -2.4506 -1.6738
 8525TIP3    H247067   2.389   1.576   6.711  0.0866 -1.8895  0.6000
 8526TIP3   OH247068   1.483   6.192  13.326  0.6394 -0.3069 -0.1299
 8526TIP3    H147069   1.522   6.107  13.345 -0.3887 -0.6021  0.7332
 8526TIP3    H247070   1.413   6.174  13.264 -1.0767 -0.4705  1.7415
 8527TIP3   OH247071   5.048   4.604  13.296 -0.3272 -0.2928 -0.3267
 8527TIP3    H147072   4.973   4.600  13.356  1.0711  1.3908  1.7015
 8527TIP3    H247073   5.032   4.682  13.243 -1.2282 -1.4045 -1.7741
 8528TIP3   OH247074   4.270   0.008  14.789 -0.2193 -0.4171  0.2997
 8528TIP3    H147075   4.278   0.103  14.782 -1.4967 -0.3585 -0.8983
 8528TIP3    H247076   4.358  -0.026  14.772 -0.0103  0.5032 -0.4909
 8529TIP3   OH247077   2.625   3.078  16.575 -0.2315 -0.0043 -0.3831
 8529TIP3    H147078   2.539   3.037  16.588  0.7884 -2.2362 -0.2827
 8529TIP3    H247079   2.651   3.109  16.661 -0.1129 -1.0701 -0.0255
 8530TIP3   OH247080   6.424   2.866  10.489  0.1469 -0.3029  0.5128
 8530TIP3    H147081   6.425   2.890  10.396  3.3433 -2.3319 -0.1262
 8530TIP3    H247082   6.338   2.825  10.501  0.3895 -1.8686 -2.1513
 8531TIP3   OH247083   4.269   5.509  14.509 -0.3204  0.4896  0.6521
 8531TIP3    H147084   4.226   5.469  14.433  2.4783  1.2016 -1.4910
 8531TIP3    H247085   4.352   5.541  14.474  1.2189  0.6549  4.1224
 8532TIP3   OH247086   3.201   2.605  11.152 -0.1418  0.0212 -0.0864
 8532TIP3    H147087   3.269   2.600  11.219  0.7316 -0.3010 -0.9560
 8532TIP3    H247088   3.169   2.695  11.156 -0.6668 -0.2154  1.2825
 8533TIP3   OH247089   5.462   0.089   0.263 -0.2910 -0.3315  0.0464
 8533TIP3    H147090   5.395   0.079   0.332 -0.7828  0.7785 -0.2383
 8533TIP3    H247091   5.474   0.184   0.256  0.3017 -0.4683 -0.8899
 8534TIP3   OH247092   5.019   5.559  11.566 -0.5544  0.0313 -0.2413
 8534TIP3    H147093   5.032   5.611  11.646  1.9251  1.2602 -1.3299
 8534TIP3    H247094   4.952   5.495  11.590 -1.5807  1.8187  2.0907
 8535TIP3   OH247095   5.116   3.518  11.558 -0.1892 -0.3975  0.0471
 8535TIP3    H147096   5.197   3.559  11.526 -1.1494  0.6183 -1.1780
 8535TIP3    H247097   5.144   3.466  11.633  1.6422 -0.2495 -0.4745
 8536TIP3   OH247098   0.860   0.900  14.411  0.4227 -0.7975 -0.3997
 8536TIP3    H147099   0.938   0.846  14.411  1.6711  0.9245 -0.1541
 8536TIP3    H247100   0.824   0.891  14.500  0.0050 -1.9944 -0.6650
 8537TIP3   OH247101   4.057   4.135  16.870 -0.7073 -0.6438  0.1988
 8537TIP3    H147102   4.065   4.146  16.775 -2.8822  0.6561  0.0979
 8537TIP3    H247103   4.022   4.046  16.881 -0.0238 -0.9652 -0.1764
 8538TIP3   OH247104   4.661   4.802  12.418 -0.1984 -0.3276  0.2448
 8538TIP3    H147105   4.569   4.786  12.439  0.3089 -1.7793  1.5925
 8538TIP3    H247106   4.662   4.889  12.380 -1.8589  0.7032  2.3057
 8539TIP3   OH247107   0.064   2.420   0.579 -0.1699 -0.6309 -0.2221
 8539TIP3    H147108   0.080   2.370   0.659  1.4817 -0.3817 -0.3570
 8539TIP3    H247109   0.077   2.511   0.604 -2.5004 -0.2585 -0.1363
 8540TIP3   OH247110   1.983   3.537   0.947  0.1535  0.9369 -0.3169
 8540TIP3    H147111   2.027   3.465   0.993 -1.5360 -1.4027 -2.1146
 8540TIP3    H247112   2.045   3.562   0.878  0.6405  1.0438  0.1501
 8541TIP3   OH247113   6.461   1.826   4.147  0.2588 -0.7446 -0.2049
 8541TIP3    H147114   6.552   1.835   4.173  0.7438 -0.0561 -1.9872
 8541TIP3    H247115   6.463   1.825   4.051 -1.6363 -0.1884 -0.3045
 8542TIP3   OH247116   5.604   6.689  12.779 -0.3077 -0.7715  0.1454
 8542TIP3    H147117   5.583   6.621  12.843 -0.2522 -1.0804 -0.1614
 8542TIP3    H247118   5.608   6.643  12.695 -1.2113 -0.2336 -0.2114
 8543TIP3   OH247119   5.299   0.627   2.023  0.2360 -0.4924  0.3357
 8543TIP3    H147120   5.334   0.700   1.972  1.8875 -0.6938  1.1228
 8543TIP3    H247121   5.230   0.666   2.077  0.4103  0.2877  0.0041
 8544TIP3   OH247122   0.174   2.375  16.234  0.4790 -0.3456 -0.1743
 8544TIP3    H147123   0.128   2.442  16.286  1.7831  0.0700  0.4829
 8544TIP3    H247124   0.180   2.413  16.146  1.9216  0.7966  0.3821
 8545TIP3   OH247125   4.289   3.584   5.956 -0.3265  0.1108 -0.4949
 8545TIP3    H147126   4.231   3.514   5.987  0.8170 -0.3499  0.6692
 8545TIP3    H247127   4.248   3.613   5.874 -1.2398 -1.4003 -0.6265
 8546TIP3   OH247128   3.650   2.123  16.834  1.0997 -0.2789 -0.0947
 8546TIP3    H147129   3.737   2.090  16.854  0.9814  0.2743  1.4170
 8546TIP3    H247130   3.613   2.148  16.918 -0.1039  0.5395 -0.8270
 8547TIP3   OH247131   5.177   3.639   3.754 -0.1622 -0.3586 -0.3549
 8547TIP3    H147132   5.087   3.673   3.748 -0.8829 -2.0975 -0.0001
 8547TIP3    H247133   5.203   3.624   3.664 -0.7238 -1.0531 -0.4063
 8548TIP3   OH247134   5.972   3.903  13.891 -0.3579 -0.0786  0.3885
 8548TIP3    H147135   5.998   3.988  13.927 -0.2784  0.2197 -0.3705
 8548TIP3    H247136   5.912   3.924  13.820 -0.8667 -0.6852  0.6378
 8549TIP3   OH247137   1.644   1.789  15.683 -0.0012  0.1171  0.5716
 8549TIP3    H147138   1.660   1.790  15.778  0.9866  1.0268  0.4143
 8549TIP3    H247139   1.720   1.834  15.646 -0.8662  0.6557 -0.5806
 8550TIP3   OH247140   3.618   1.792  10.822 -0.0549  0.0243  1.1677
 8550TIP3    H147141   3.677   1.718  10.838  1.4481  1.0156  0.5095
 8550TIP3    H247142   3.532   1.752  10.807  0.7575 -1.6097  0.5843
 8551TIP3   OH247143   0.147   5.853   3.731  0.1822  0.1197 -0.2112
 8551TIP3    H147144   0.109   5.888   3.651 -0.1630  2.1942  0.8011
 8551TIP3    H247145   0.236   5.829   3.707 -0.2624 -0.3473 -1.4585
 8552TIP3   OH247146   2.124   0.914  11.122  0.2468  0.0648  0.0894
 8552TIP3    H147147   2.055   0.917  11.189  1.2335  0.2546  1.1209
 8552TIP3    H247148   2.084   0.955  11.045 -1.7585 -2.3510 -0.2727
 8553TIP3   OH247149   4.115   5.512  10.939 -0.2123  0.1347 -0.4455
 8553TIP3    H147150   4.020   5.507  10.937 -0.3921  2.0637  0.8665
 8553TIP3    H247151   4.134   5.593  10.987  2.0811 -0.8183  0.4054
 8554TIP3   OH247152   4.950   5.827  13.726  0.0089 -0.2484  0.6034
 8554TIP3    H147153   4.892   5.754  13.705 -0.9344  0.0317  2.0810
 8554TIP3    H247154   4.891   5.900  13.742  0.9668  1.2586 -2.1035
 8555TIP3   OH247155   0.764   6.694  12.161 -0.4533  0.2715 -0.4024
 8555TIP3    H147156   0.856   6.690  12.186 -0.1878 -0.4922 -1.4596
 8555TIP3    H247157   0.748   6.612  12.115 -1.1675  1.2114 -1.8941
 8556TIP3   OH247158   2.692   1.337  16.304  0.2348  0.0579  0.4777
 8556TIP3    H147159   2.616   1.388  16.275  0.3996 -0.8798 -1.8191
 8556TIP3    H247160   2.656   1.273  16.365 -0.7358  0.0049 -0.1248
 8557TIP3   OH247161   3.140   3.280  12.757  0.0257  0.1188 -0.0394
 8557TIP3    H147162   3.117   3.218  12.687  0.2142 -0.2867  0.2489
 8557TIP3    H247163   3.088   3.250  12.832 -0.3806  0.7153 -0.0820
 8558TIP3   OH247164   3.162   6.452  13.116 -0.2296 -0.0858  0.6307
 8558TIP3    H147165   3.125   6.485  13.034 -1.3407 -2.2256  0.2227
 8558TIP3    H247166   3.118   6.502  13.184 -0.7034  0.3721  0.0014
 8559TIP3   OH247167   5.206   4.084   5.821  0.4332  0.2610  0.6708
 8559TIP3    H147168   5.126   4.126   5.790  1.1864  1.0256 -0.3032
 8559TIP3    H247169   5.212   4.003   5.770  1.4838  1.3441 -1.0433
 8560TIP3   OH247170   3.514   1.610  12.633  0.3948  0.4687 -0.5390
 8560TIP3    H147171   3.571   1.535  12.645 -0.1256  0.0519 -0.6329
 8560TIP3    H247172   3.573   1.683  12.613  0.8326 -0.1321 -1.5006
 8561TIP3   OH247173   5.637   4.119   3.077 -0.1327  0.2723 -0.1494
 8561TIP3    H147174   5.687   4.148   3.153  1.1830 -1.0375 -0.4543
 8561TIP3    H247175   5.660   4.027   3.067 -1.8867 -0.1150 -0.9166
 8562TIP3   OH247176   5.594   1.080   2.700 -0.3973  0.3705  0.4032
 8562TIP3    H147177   5.621   1.138   2.629 -0.5799 -0.2010 -0.1451
 8562TIP3    H247178   5.658   1.095   2.769  2.3317 -1.9800 -1.3817
 8563TIP3   OH247179   2.879   4.137   3.454  0.4099  0.0201  0.4064
 8563TIP3    H147180   2.801   4.082   3.440  1.5573 -1.2628 -1.3524
 8563TIP3    H247181   2.924   4.096   3.528  0.2159 -0.1742  0.4193
 8564TIP3   OH247182   1.002   4.796   5.803  0.3869 -0.7244  0.1422
 8564TIP3    H147183   0.992   4.891   5.808 -0.9371 -0.8511  0.1572
 8564TIP3    H247184   1.029   4.779   5.713 -1.8661 -0.4980 -0.6354
 8565TIP3   OH247185   0.650   0.155  15.229  0.5772 -0.2069  0.0194
 8565TIP3    H147186   0.600   0.135  15.308  0.8471  0.6408  0.4208
 8565TIP3    H247187   0.739   0.123  15.248  0.5959 -0.1749 -0.0139
 8566TIP3   OH247188   3.680   6.572  12.538 -0.0647  0.2981  0.3692
 8566TIP3    H147189   3.704   6.584  12.630  0.6018  1.7367  0.0403
 8566TIP3    H247190   3.609   6.636  12.524 -0.5336 -0.2908  0.0133
 8567TIP3   OH247191   4.567   2.801   0.894 -0.4141  0.0879 -0.1193
 8567TIP3    H147192   4.499   2.787   0.960  0.2867 -0.0258  0.5948
 8567TIP3    H247193   4.566   2.896   0.879 -0.3882  0.1495  0.2582
 8568TIP3   OH247194   2.621   5.029  11.869 -0.3783  0.2346 -0.2138
 8568TIP3    H147195   2.602   5.085  11.944  1.8066 -1.3013  1.6552
 8568TIP3    H247196   2.651   5.089  11.801 -3.2870  1.7650 -0.3074
 8569TIP3   OH247197   1.658   0.255  12.350 -0.2906 -0.0657 -0.3195
 8569TIP3    H147198   1.626   0.191  12.287 -0.8251  0.7432 -0.8939
 8569TIP3    H247199   1.587   0.319  12.357 -0.0873  0.0440  0.8432
 8570TIP3   OH247200   0.076   3.821   2.953  0.3363 -0.2610  0.3483
 8570TIP3    H147201   0.102   3.739   2.911 -0.6753  0.5355 -1.9637
 8570TIP3    H247202   0.158   3.869   2.965  0.8611 -1.3052  1.1408
 8571TIP3   OH247203   2.724   0.177  15.686 -0.3252 -0.2029  0.2084
 8571TIP3    H147204   2.712   0.083  15.698  0.0977 -0.3267 -0.3170
 8571TIP3    H247205   2.648   0.216  15.729 -0.8073 -0.8098 -0.0781
 8572TIP3   OH247206   4.177   3.945   5.112 -0.6686  0.0639  0.5567
 8572TIP3    H147207   4.209   3.880   5.174 -0.1640  0.5343  0.8027
 8572TIP3    H247208   4.143   3.895   5.038  0.8608 -0.4484  0.1801
 8573TIP3   OH247209   4.234   4.066   3.136 -0.2923 -0.2616 -0.0892
 8573TIP3    H147210   4.315   4.064   3.187 -1.5362  0.2650  2.0391
 8573TIP3    H247211   4.237   4.150   3.089  0.3903 -0.2463 -0.0248
 8574TIP3   OH247212   4.038   2.172  11.717  0.2772  0.1315 -0.3064
 8574TIP3    H147213   4.021   2.202  11.628 -0.0338  0.5866 -0.0959
 8574TIP3    H247214   3.961   2.199  11.767  1.0837  1.1835  0.4126
 8575TIP3   OH247215   1.126   6.646   3.492  0.0459  0.1324 -0.1681
 8575TIP3    H147216   1.153   6.627   3.581 -1.1054 -0.4450  0.0768
 8575TIP3    H247217   1.088   6.564   3.460  0.5710  0.2820 -1.2506
 8576TIP3   OH247218   4.163   4.957   0.152  0.3094 -0.0431  0.6481
 8576TIP3    H147219   4.106   4.920   0.219 -1.2469 -0.3645 -0.7679
 8576TIP3    H247220   4.221   5.016   0.199 -0.6768 -0.3157  2.2764
 8577TIP3   OH247221   5.200   6.460  12.089  0.0202  0.4064 -0.6650
 8577TIP3    H147222   5.120   6.416  12.120 -0.3030  0.3569 -1.5485
 8577TIP3    H247223   5.206   6.435  11.997  0.6391  1.0396 -0.7940
 8578TIP3   OH247224   2.640   0.740   4.823 -0.7247 -0.0052  0.4891
 8578TIP3    H147225   2.571   0.676   4.807  1.0698 -1.8011 -0.6564
 8578TIP3    H247226   2.713   0.687   4.856 -0.4248  2.0506  3.4464
 8579TIP3   OH247227   5.399   1.301   0.036 -0.2056  0.8739 -0.8890
 8579TIP3    H147228   5.343   1.240   0.085  0.1587 -1.8558 -3.5544
 8579TIP3    H247229   5.350   1.383   0.036 -1.4141  0.2725  1.6767
 8580TIP3   OH247230   5.187   1.223   3.581  0.6652  0.3832  0.2397
 8580TIP3    H147231   5.220   1.156   3.641 -0.7467  0.2435  0.8847
 8580TIP3    H247232   5.207   1.306   3.624  2.1545  0.4108 -0.4274
 8581TIP3   OH247233   4.196   0.792  15.725  0.2224 -0.2906 -1.0751
 8581TIP3    H147234   4.217   0.771  15.634  3.4940  0.3697 -0.5939
 8581TIP3    H247235   4.275   0.770  15.773 -0.3127  2.1874  1.1548
 8582TIP3   OH247236   1.370   3.044  12.016 -0.4327 -0.3945  0.2922
 8582TIP3    H147237   1.361   3.103  12.091 -1.1376  1.3806 -1.1020
 8582TIP3    H247238   1.305   2.975  12.031 -1.5334  0.6859  0.6673
 8583TIP3   OH247239   4.081   3.360   5.771 -0.1018 -0.1669  0.3710
 8583TIP3    H147240   4.066   3.295   5.702 -0.6342  0.0562  0.2637
 8583TIP3    H247241   4.100   3.309   5.849 -1.4098 -0.5027  0.5042
 8584TIP3   OH247242   4.654   2.335  12.204 -0.2952 -0.2829 -0.2584
 8584TIP3    H147243   4.596   2.365  12.134 -0.6828  0.6364  0.4508
 8584TIP3    H247244   4.742   2.354  12.171 -0.4183 -0.7606 -0.9039
 8585TIP3   OH247245   0.831   5.971  15.359  0.5638 -0.0935  0.7175
 8585TIP3    H147246   0.884   6.050  15.365  1.5888 -0.6724 -0.3744
 8585TIP3    H247247   0.880   5.914  15.300 -1.5935 -0.4032 -0.8866
 8586TIP3   OH247248   1.245   5.098  16.871  0.6604 -0.1384  0.1556
 8586TIP3    H147249   1.169   5.156  16.865  0.6647 -0.2874 -2.4398
 8586TIP3    H247250   1.258   5.086  16.965 -1.9875  0.5769  0.7145
 8587TIP3   OH247251   6.569   0.684  16.523 -0.2840  0.6126 -0.8615
 8587TIP3    H147252   6.572   0.765  16.472 -0.7285  0.4766 -1.1137
 8587TIP3    H247253   6.487   0.690  16.573 -0.2851  0.3498 -0.8318
 8588TIP3   OH247254   6.550   5.927   3.256 -0.0872 -0.5090 -0.3805
 8588TIP3    H147255   6.579   5.999   3.312 -0.7048  0.5354 -1.3571
 8588TIP3    H247256   6.575   5.848   3.304  0.9828  0.3449  0.5246
 8589TIP3   OH247257   1.110   1.635  12.761  0.7289  0.1725  0.5523
 8589TIP3    H147258   1.126   1.647  12.667  0.3720 -0.2351  0.4327
 8589TIP3    H247259   1.050   1.706  12.785 -0.5347 -0.7008  0.0889
 8590TIP3   OH247260   2.614   2.458   4.539 -0.6371  0.0809 -0.1416
 8590TIP3    H147261   2.579   2.543   4.513 -0.3035  0.6931  1.3755
 8590TIP3    H247262   2.600   2.403   4.461  1.3672  2.1031 -2.0829
 8591TIP3   OH247263   0.885   4.854  12.716 -0.5424 -0.1047  0.0507
 8591TIP3    H147264   0.823   4.782  12.724 -0.7439  0.1479  0.8939
 8591TIP3    H247265   0.874   4.887  12.627 -2.0289  0.3068  0.3674
 8592TIP3   OH247266   0.684   5.553   5.594  0.0606  0.1713 -0.2065
 8592TIP3    H147267   0.731   5.628   5.629 -1.7765  0.2034  2.5240
 8592TIP3    H247268   0.744   5.479   5.604  0.4358  0.6107  0.9048
 8593TIP3   OH247269   1.772   1.995  11.132  0.3888  0.4681  0.0038
 8593TIP3    H147270   1.759   1.919  11.189 -2.1244  1.9718  1.6536
 8593TIP3    H247271   1.717   1.978  11.056 -0.6088  0.8261  0.6264
 8594TIP3   OH247272   1.538   0.554  11.223 -0.2982 -0.0779 -0.3528
 8594TIP3    H147273   1.507   0.528  11.136 -0.7548  1.4355 -0.6605
 8594TIP3    H247274   1.591   0.480  11.251 -1.1527 -1.1379 -1.3891
 8595TIP3   OH247275   6.299   0.721  11.310  0.5679 -0.1731 -0.5027
 8595TIP3    H147276   6.376   0.698  11.258 -0.1399  0.4924 -1.8974
 8595TIP3    H247277   6.225   0.682  11.263  0.0183 -0.7956  0.8055
 8596TIP3   OH247278   1.351   1.953  12.625  0.1713 -0.2548  0.1609
 8596TIP3    H147279   1.415   2.005  12.577  0.3956 -0.0443  0.6770
 8596TIP3    H247280   1.289   2.017  12.660 -0.1080 -0.4239 -0.0273
 8597TIP3   OH247281   3.427   6.033  12.926  0.3207  0.0427 -0.1425
 8597TIP3    H147282   3.425   6.065  12.836  1.8005  0.9367  0.1086
 8597TIP3    H247283   3.397   6.108  12.978  2.8799  0.8103  0.3682
 8598TIP3   OH247284   5.671   5.989   4.928  0.2519  0.3306 -0.1969
 8598TIP3    H147285   5.695   6.056   4.992 -2.0240  0.5078  0.5792
 8598TIP3    H247286   5.696   5.906   4.969 -0.5058  0.4911  0.6235
 8599TIP3   OH247287   0.244   2.209  13.210  0.2436  0.3275 -0.4790
 8599TIP3    H147288   0.321   2.248  13.250  0.9349  0.2484 -1.6735
 8599TIP3    H247289   0.181   2.281  13.203  1.1626  1.0493 -1.8051
 8600TIP3   OH247290   2.863   0.371   0.063  0.3417  0.2103 -0.8922
 8600TIP3    H147291   2.864   0.465   0.080  0.0798  0.2386 -1.0344
 8600TIP3    H247292   2.918   0.361  -0.015  1.7531  0.0504  0.0906
 8601TIP3   OH247293   2.658   4.664  11.175 -0.8468  0.0654  0.3781
 8601TIP3    H147294   2.637   4.582  11.219 -1.2996 -1.1641 -1.9313
 8601TIP3    H247295   2.591   4.725  11.203 -2.4082 -1.3049 -0.2166
 8602TIP3   OH247296   3.866   1.838  11.641 -0.2050  0.2704  0.3709
 8602TIP3    H147297   3.788   1.792  11.671 -1.9734  1.6480 -1.7516
 8602TIP3    H247298   3.881   1.804  11.552  1.0988  0.6529  0.4189
 8603TIP3   OH247299   3.856   2.607   0.783 -0.4807  1.1029 -0.2451
 8603TIP3    H147300   3.779   2.574   0.828  0.7629 -0.1956  1.0220
 8603TIP3    H247301   3.900   2.662   0.848  1.1508 -0.5048  0.0816
 8604TIP3   OH247302   4.617   5.239   3.921 -0.4154 -0.1492  0.0333
 8604TIP3    H147303   4.603   5.291   3.842  0.8194  1.0635  0.5679
 8604TIP3    H247304   4.710   5.249   3.940 -0.8849  0.5005  2.2465
 8605TIP3   OH247305   5.735   6.323   3.953  0.2311 -0.5061 -0.2536
 8605TIP3    H147306   5.705   6.386   4.019  1.4251  0.8602 -0.9551
 8605TIP3    H247307   5.826   6.304   3.979  0.8820  0.4289 -1.7481
 8606TIP3   OH247308   3.865   5.551  16.748  0.2684  0.3325  0.5294
 8606TIP3    H147309   3.930   5.582  16.811  1.0549  2.1545 -1.0803
 8606TIP3    H247310   3.809   5.627  16.732 -1.7147 -0.9228  1.1451
 8607TIP3   OH247311   2.784   0.339   0.843 -0.4642  1.1422 -0.7222
 8607TIP3    H147312   2.850   0.403   0.814 -0.3785  1.7063  0.6449
 8607TIP3    H247313   2.707   0.392   0.861 -0.6827  0.7281 -0.4526
 8608TIP3   OH247314   4.943   0.348   5.122  0.1937 -0.2036 -0.5000
 8608TIP3    H147315   4.959   0.397   5.203 -1.6323  1.9731 -1.3555
 8608TIP3    H247316   5.027   0.306   5.103  0.7153 -0.7504  2.4260
 8609TIP3   OH247317   4.784   5.612   0.647 -0.1218  0.1677  0.7542
 8609TIP3    H147318   4.697   5.653   0.646 -0.7509 -1.1145  0.3147
 8609TIP3    H247319   4.816   5.627   0.736  0.0787  2.3498  0.3800
 8610TIP3   OH247320   1.067   5.224   0.685  0.3614 -0.3591 -0.7900
 8610TIP3    H147321   1.146   5.198   0.731  0.3173  0.3185 -0.3326
 8610TIP3    H247322   0.998   5.222   0.751 -0.1293 -1.4752 -1.2962
 8611TIP3   OH247323   3.459   1.593   1.609 -0.4668  0.5684  0.7436
 8611TIP3    H147324   3.550   1.620   1.596 -1.1015  1.9793 -1.2188
 8611TIP3    H247325   3.429   1.644   1.685 -0.0720  1.2870  0.4208
 8612TIP3   OH247326   3.133   5.841   4.903  0.2853 -0.0160 -0.3559
 8612TIP3    H147327   3.129   5.746   4.888 -0.9474 -0.2659  1.2776
 8612TIP3    H247328   3.092   5.879   4.825 -0.1636 -0.8883 -0.5624
 8613TIP3   OH247329   1.512   0.232   5.129  0.0016 -0.1514 -0.7868
 8613TIP3    H147330   1.427   0.202   5.162 -1.1931  2.0820 -1.6292
 8613TIP3    H247331   1.575   0.202   5.194 -1.3351 -2.2930 -0.3782
 8614TIP3   OH247332   5.010   5.389  14.588 -0.1918 -0.3331  0.4581
 8614TIP3    H147333   5.035   5.473  14.551 -2.7844  0.7992  1.0222
 8614TIP3    H247334   5.034   5.395  14.681 -0.5574 -0.1039  0.5422
 8615TIP3   OH247335   4.117   4.094  15.830 -0.2999 -0.1910 -0.4170
 8615TIP3    H147336   4.095   4.153  15.758 -2.7315 -0.3538  0.1053
 8615TIP3    H247337   4.146   4.152  15.900  0.2289  0.1258 -0.8946
 8616TIP3   OH247338   5.155   2.244   1.523 -0.2272  0.3870 -0.0503
 8616TIP3    H147339   5.200   2.317   1.566 -0.5043  0.3700  0.2640
 8616TIP3    H247340   5.099   2.206   1.590  1.8978 -1.8435  0.6161
 8617TIP3   OH247341   1.784   6.346   0.976 -1.0185  0.5015 -0.4211
 8617TIP3    H147342   1.766   6.432   0.938 -1.5248  0.2297 -0.8020
 8617TIP3    H247343   1.766   6.284   0.906  0.7050  0.1479 -0.5958
 8618TIP3   OH247344   6.131   6.309   5.493 -0.4925 -0.1947 -0.1352
 8618TIP3    H147345   6.066   6.244   5.465  0.0777 -0.7193 -0.2607
 8618TIP3    H247346   6.117   6.317   5.587 -2.2332  1.3693 -0.4627
 8619TIP3   OH247347   2.605   1.992  13.817 -0.1706  0.3000  0.7884
 8619TIP3    H147348   2.531   1.978  13.757  1.5664 -2.8970 -0.9056
 8619TIP3    H247349   2.578   1.952  13.899 -1.4641  2.0784  1.2836
 8620TIP3   OH247350   3.765   5.252   3.638  0.2600  0.0921 -0.4508
 8620TIP3    H147351   3.831   5.220   3.577 -0.4501 -3.1753  0.3036
 8620TIP3    H247352   3.686   5.204   3.616 -0.3965 -0.1637  2.0974
 8621TIP3   OH247353   6.079   3.978   3.013  0.0616 -0.2222  0.1886
 8621TIP3    H147354   6.165   4.021   3.009  0.1450 -0.4661 -0.7129
 8621TIP3    H247355   6.032   4.011   2.937 -0.1879 -1.0640 -0.0306
 8622TIP3   OH247356   4.660   4.070  14.352 -0.3800  0.4030  0.1943
 8622TIP3    H147357   4.704   4.088  14.436 -1.5211  1.1609  0.6519
 8622TIP3    H247358   4.729   4.035  14.296  0.8978  1.8360  0.7921
 8623TIP3   OH247359   0.123   2.865  14.118  0.2901  0.0281 -0.1818
 8623TIP3    H147360   0.151   2.785  14.163  0.4387 -0.4120 -1.0406
 8623TIP3    H247361   0.164   2.859  14.032 -0.4416  0.5953 -0.5732
 8624TIP3   OH247362   3.931   6.666   1.509 -0.4176 -0.0778 -0.1286
 8624TIP3    H147363   3.972   6.588   1.471  0.3834  0.3525 -0.1490
 8624TIP3    H247364   3.866   6.631   1.571  1.9227 -0.7955  2.0776
 8625TIP3   OH247365   6.073   1.759   1.820  0.4699 -0.3566  0.1223
 8625TIP3    H147366   6.119   1.796   1.895  0.4207 -0.0066 -0.0176
 8625TIP3    H247367   6.073   1.829   1.755 -0.1845 -0.3782  0.0928
 8626TIP3   OH247368   4.273   1.415   5.058  0.0135 -0.3160 -0.6147
 8626TIP3    H147369   4.241   1.357   4.989 -1.4391  0.0060 -0.2572
 8626TIP3    H247370   4.195   1.462   5.088  0.6773 -0.1339  0.9482
 8627TIP3   OH247371   0.524   5.296   2.884  0.9498 -0.3552  0.4920
 8627TIP3    H147372   0.542   5.298   2.978 -1.4941 -1.3983  1.0434
 8627TIP3    H247373   0.511   5.204   2.863 -0.4620  0.0191 -0.4425
 8628TIP3   OH247374   5.469   6.194   4.317  0.3544  0.0020 -0.3420
 8628TIP3    H147375   5.478   6.169   4.409 -1.3081 -0.6644 -0.3328
 8628TIP3    H247376   5.429   6.118   4.275 -1.0443  1.1185 -1.1268
 8629TIP3   OH247377   3.846   1.245  11.354 -0.1315 -0.0026 -0.1663
 8629TIP3    H147378   3.854   1.265  11.447  0.1559  1.4146 -0.4798
 8629TIP3    H247379   3.914   1.297  11.311 -0.1935 -0.7040 -1.1637
 8630TIP3   OH247380   3.107   0.969  15.397  0.4156 -0.3434 -0.1783
 8630TIP3    H147381   3.167   1.015  15.338 -0.4690 -0.1612 -0.9556
 8630TIP3    H247382   3.091   0.885  15.354  1.7823 -1.2842  1.0850
 8631TIP3   OH247383   6.012   2.005  11.550  0.3356 -0.3465 -0.1848
 8631TIP3    H147384   5.950   2.052  11.606 -0.0374 -0.4695 -0.4871
 8631TIP3    H247385   6.075   1.966  11.610 -0.1208 -0.5610  0.1580
 8632TIP3   OH247386   4.747   1.593   0.675  0.1760  0.0379  0.0275
 8632TIP3    H147387   4.721   1.553   0.758  1.6518 -2.2137 -0.5265
 8632TIP3    H247388   4.721   1.530   0.608  1.5277  0.5167 -0.9881
 8633TIP3   OH247389   2.655   1.424  13.759 -0.2323  0.1288  0.4096
 8633TIP3    H147390   2.661   1.467  13.844  0.9923 -0.3513  0.5932
 8633TIP3    H247391   2.566   1.442  13.729 -0.4697  0.8631  1.4883
 8634TIP3   OH247392   5.442   4.283   3.178  0.1427  0.0563 -0.2036
 8634TIP3    H147393   5.491   4.362   3.200  0.0960  0.1944 -0.5824
 8634TIP3    H247394   5.495   4.239   3.112  0.9377 -1.0347  1.1112
 8635TIP3   OH247395   5.761   0.638  12.178  0.5821  0.1792  0.3430
 8635TIP3    H147396   5.728   0.603  12.095 -0.2602  1.6338  0.0243
 8635TIP3    H247397   5.699   0.606  12.244  1.2944 -1.0390  0.4353
 8636TIP3   OH247398   4.048   0.943   2.740 -0.0188 -0.4817 -0.0225
 8636TIP3    H147399   3.967   0.972   2.698 -0.3875 -0.2143  0.8481
 8636TIP3    H247400   4.116   0.960   2.676 -0.2744  1.9425  0.2748
 8637TIP3   OH247401   1.928   3.847  11.514  0.3528 -0.2973 -0.1060
 8637TIP3    H147402   1.988   3.784  11.473  0.4530 -0.6738  0.5891
 8637TIP3    H247403   1.841   3.813  11.496  0.4070 -0.6466  0.2636
 8638TIP3   OH247404   3.367   6.003   0.831 -0.2349 -0.5425 -0.5165
 8638TIP3    H147405   3.407   6.049   0.905  1.5659 -0.4879 -1.4708
 8638TIP3    H247406   3.312   6.069   0.790  0.4119  0.0638 -0.4389
 8639TIP3   OH247407   4.224   6.501  15.948  0.5988 -0.3064  0.2578
 8639TIP3    H147408   4.217   6.522  15.855  0.0657  1.8945  0.7303
 8639TIP3    H247409   4.198   6.409  15.954 -0.3672 -0.2115 -1.6387
 8640TIP3   OH247410   5.081   3.687  13.179  0.3653  0.6629 -0.0612
 8640TIP3    H147411   5.139   3.653  13.111 -0.3231  0.8216 -0.7523
 8640TIP3    H247412   5.027   3.752  13.134 -0.9335 -0.0930  0.3285
 8641TIP3   OH247413   6.489   2.863   4.415 -0.2526  0.0038  0.3535
 8641TIP3    H147414   6.497   2.811   4.495  0.9579 -1.7423 -0.8256
 8641TIP3    H247415   6.553   2.934   4.426 -0.5765  0.1721  1.2015
 8642TIP3   OH247416   1.125   5.345   5.442  0.5220 -0.3013  0.3205
 8642TIP3    H147417   1.114   5.376   5.532 -0.9258 -0.7272  0.3244
 8642TIP3    H247418   1.181   5.409   5.400  1.0064  0.0377  1.4651
 8643TIP3   OH247419   6.796   5.142   1.407 -0.5628 -0.1392 -0.5279
 8643TIP3    H147420   6.793   5.054   1.444 -1.2483 -0.0053 -0.2546
 8643TIP3    H247421   6.704   5.165   1.391 -0.3305  0.0466 -1.7413
 8644TIP3   OH247422   4.267   5.087   1.257  0.0286 -0.4089 -0.5044
 8644TIP3    H147423   4.236   5.172   1.228 -0.9758 -0.9654 -1.1383
 8644TIP3    H247424   4.333   5.106   1.323 -1.8653  0.8529  1.1371
 8645TIP3   OH247425   1.049   5.783   4.171 -0.1999 -0.2187  0.2885
 8645TIP3    H147426   0.985   5.720   4.204 -0.8229  0.7341  0.9478
 8645TIP3    H247427   0.996   5.856   4.138  0.5129  1.1896  2.0644
 8646TIP3   OH247428   5.989   3.026   5.761  0.5144 -0.8466  0.3151
 8646TIP3    H147429   5.928   3.092   5.794 -0.8415 -1.2208 -1.2909
 8646TIP3    H247430   5.970   2.947   5.812 -0.7249 -1.0886 -0.4698
 8647TIP3   OH247431   3.785   3.621   4.748 -0.3961  0.1414 -0.2897
 8647TIP3    H147432   3.756   3.548   4.802 -1.6880  1.6345  1.1704
 8647TIP3    H247433   3.816   3.686   4.812 -0.8347  1.4985 -1.4153
 8648TIP3   OH247434   0.007   1.970   2.420  0.0117 -0.0428  0.1654
 8648TIP3    H147435  -0.085   1.979   2.448 -0.0856  1.0324 -0.4227
 8648TIP3    H247436   0.057   2.014   2.489  0.0059  0.0815  0.0922
 8649TIP3   OH247437   4.158   1.216  11.513 -0.5655  0.4962  0.1647
 8649TIP3    H147438   4.142   1.308  11.533  1.0139  0.5920  1.1495
 8649TIP3    H247439   4.250   1.202  11.536 -0.6077 -1.1861 -0.5400
 8650TIP3   OH247440   4.974   2.537  12.606  0.3512 -0.5145  0.0121
 8650TIP3    H147441   4.980   2.605  12.539  0.3035 -0.7031 -0.1840
 8650TIP3    H247442   4.881   2.535  12.630  0.5191  0.2400  0.8039
 8651TIP3   OH247443   6.821   3.586  14.433 -0.4383 -0.2287  0.0819
 8651TIP3    H147444   6.762   3.517  14.403 -0.2880 -0.4492  0.2877
 8651TIP3    H247445   6.863   3.549  14.511 -2.0302  0.9319  1.5663
 8652TIP3   OH247446   1.234   2.237  15.204 -0.4415  0.6003 -0.4858
 8652TIP3    H147447   1.286   2.200  15.275  0.4450  0.3105 -1.2600
 8652TIP3    H247448   1.278   2.208  15.124 -1.1419  1.3030 -1.1525
 8653TIP3   OH247449   3.744   0.722   4.578  0.0675 -0.3684 -0.2803
 8653TIP3    H147450   3.654   0.690   4.589  0.8961 -2.9458 -0.4055
 8653TIP3    H247451   3.783   0.712   4.664  0.1550  1.1951 -0.1090
 8654TIP3   OH247452   6.331   4.261   4.227 -0.4959  0.0248  0.1904
 8654TIP3    H147453   6.356   4.351   4.247 -0.9295  0.4558 -1.1105
 8654TIP3    H247454   6.235   4.264   4.219 -0.9868 -1.3270  3.7589
 8655TIP3   OH247455   3.171   5.794   3.833 -0.4409 -0.3898  0.5850
 8655TIP3    H147456   3.152   5.780   3.740  0.9925  1.1486  0.0191
 8655TIP3    H247457   3.163   5.707   3.872 -2.3553 -0.8506 -0.7116
 8656TIP3   OH247458   6.574   3.235  16.740  0.4917 -0.7923 -0.3113
 8656TIP3    H147459   6.660   3.202  16.713  0.0005  0.0901 -3.3546
 8656TIP3    H247460   6.513   3.198  16.675 -0.9227  1.1299 -0.1562
 8657TIP3   OH247461   3.293   5.283  15.275 -0.1084 -0.4146  0.0452
 8657TIP3    H147462   3.259   5.337  15.203  1.0814  1.1256  0.5675
 8657TIP3    H247463   3.215   5.250  15.319 -0.9920  2.2393  0.6724
 8658TIP3   OH247464   5.171   2.821   3.175  0.0026  0.2996  0.6027
 8658TIP3    H147465   5.205   2.898   3.220  1.0181 -0.5313  1.2981
 8658TIP3    H247466   5.177   2.751   3.240  0.6790 -0.7429 -0.5437
 8659TIP3   OH247467   2.742   1.679  14.226 -0.4874  0.4603 -0.1059
 8659TIP3    H147468   2.783   1.676  14.140 -0.5911 -0.4145 -0.1257
 8659TIP3    H247469   2.663   1.731  14.212 -0.2446  0.7512 -0.4238
 8660TIP3   OH247470   2.553   3.463   3.373 -0.4348  0.3767  0.0921
 8660TIP3    H147471   2.631   3.507   3.338 -0.2582  0.7951  0.9693
 8660TIP3    H247472   2.588   3.396   3.431 -0.7243  0.3997  0.2954
 8661TIP3   OH247473   0.171   1.869   4.982 -0.2391  0.0934  0.1850
 8661TIP3    H147474   0.184   1.895   4.890  1.1920  1.1908  0.6718
 8661TIP3    H247475   0.178   1.950   5.031 -0.3927 -0.5720  1.3323
 8662TIP3   OH247476   5.582   5.921   0.984 -0.6555 -0.1455 -0.1227
 8662TIP3    H147477   5.555   5.833   0.958 -1.5144  1.1923 -4.4748
 8662TIP3    H247478   5.676   5.913   1.003 -0.7446 -2.0121 -0.2873
 8663TIP3   OH247479   0.679   1.372  16.033  0.2067  0.1314  0.5357
 8663TIP3    H147480   0.755   1.393  15.978  0.1211  1.1202  0.7761
 8663TIP3    H247481   0.662   1.280  16.015 -1.5213  0.9969 -3.2009
 8664TIP3   OH247482   2.510   5.559   4.220  0.3394 -0.3513  0.1541
 8664TIP3    H147483   2.468   5.481   4.256  1.6420 -1.0484  0.2132
 8664TIP3    H247484   2.437   5.615   4.192 -0.6120 -1.5728  0.1248
 8665TIP3   OH247485   3.668   4.955   3.908  0.1281  0.3910  0.7440
 8665TIP3    H147486   3.576   4.930   3.901  0.1157  0.4668  0.6393
 8665TIP3    H247487   3.716   4.876   3.884  0.1420 -0.6715  3.7791
 8666TIP3   OH247488   3.523   4.249  13.516 -0.3858 -0.0755 -0.4821
 8666TIP3    H147489   3.551   4.161  13.538  0.6240  0.3191 -0.1291
 8666TIP3    H247490   3.512   4.248  13.421  0.3820 -0.3763 -0.5729
 8667TIP3   OH247491   3.656   3.733   3.406  0.0763 -0.0281  0.5820
 8667TIP3    H147492   3.641   3.709   3.498  0.1012 -0.0460  0.5811
 8667TIP3    H247493   3.747   3.760   3.403  0.4770 -1.3378  0.2785
 8668TIP3   OH247494   6.429   6.720   6.200  0.0026  0.4652  0.5413
 8668TIP3    H147495   6.364   6.781   6.166 -0.2771 -0.1062  0.0295
 8668TIP3    H247496   6.385   6.635   6.199  0.4416  0.2274  1.0832
 8669TIP3   OH247497   3.684   4.028  16.843 -0.2098  0.4060 -0.4771
 8669TIP3    H147498   3.601   3.999  16.806 -0.6556  2.0728 -0.9019
 8669TIP3    H247499   3.719   4.090  16.778  1.9942 -1.1505 -0.8902
 8670TIP3   OH247500   0.517   3.092  13.902 -0.5970 -0.6387  0.3075
 8670TIP3    H147501   0.472   3.158  13.955  0.9190  0.6438  0.0670
 8670TIP3    H247502   0.605   3.086  13.940  0.4599  0.1566 -1.8553
 8671TIP3   OH247503   6.526   1.085   3.823 -0.1013  0.7308 -0.3506
 8671TIP3    H147504   6.536   1.030   3.745 -0.0730 -1.9465  1.3951
 8671TIP3    H247505   6.458   1.041   3.875 -1.7268  3.6250  0.2399
 8672TIP3   OH247506   1.829   1.794  15.107 -0.0547  0.3211 -0.3588
 8672TIP3    H147507   1.888   1.722  15.126 -0.5904 -0.3522 -1.1854
 8672TIP3    H247508   1.785   1.769  15.026  0.0140  1.7442 -0.8730
 8673TIP3   OH247509   3.855   5.124   2.027 -0.1680  0.1620  0.2799
 8673TIP3    H147510   3.908   5.186   2.075  1.0043 -1.2297  0.8474
 8673TIP3    H247511   3.784   5.101   2.086 -0.7732  1.1427 -0.0415
 8674TIP3   OH247512   3.429   6.351   5.274  0.0238  0.2611  0.6306
 8674TIP3    H147513   3.415   6.444   5.293  0.6733  0.0354  2.4642
 8674TIP3    H247514   3.475   6.350   5.190 -0.3280  1.5667  0.3991
 8675TIP3   OH247515   5.499   1.498   0.379 -0.2949 -0.0841  0.4994
 8675TIP3    H147516   5.428   1.486   0.441 -0.2207 -0.4803  0.5089
 8675TIP3    H247517   5.475   1.444   0.304  0.4870 -1.0506  0.9177
 8676TIP3   OH247518   1.328   3.229  16.789  0.5239 -0.2169  0.1492
 8676TIP3    H147519   1.379   3.153  16.762  1.4179 -0.1472  1.5468
 8676TIP3    H247520   1.264   3.193  16.851  0.3977  0.0522  0.1763
 8677TIP3   OH247521   4.507   3.887   0.835  0.1070 -0.4184  0.1329
 8677TIP3    H147522   4.538   3.953   0.773  2.4858 -1.2318  0.3614
 8677TIP3    H247523   4.414   3.905   0.844  0.2266  1.4217 -1.5917
 8678TIP3   OH247524   1.628   2.141  11.581 -0.0128 -0.0176 -0.0915
 8678TIP3    H147525   1.695   2.193  11.625  0.3189 -0.5545  0.0469
 8678TIP3    H247526   1.663   2.052  11.582 -1.6536 -0.7200  1.8907
 8679TIP3   OH247527   0.824   4.137   5.116 -0.2614 -0.3407 -0.4375
 8679TIP3    H147528   0.741   4.179   5.095 -0.9120 -0.9490  0.8128
 8679TIP3    H247529   0.831   4.064   5.054  0.0406  0.5624 -1.4769
 8680TIP3   OH247530   3.102   4.204  13.981  0.3542  0.1202  0.6654
 8680TIP3    H147531   3.092   4.256  14.061 -0.9220 -0.7273  1.0794
 8680TIP3    H247532   3.013   4.189  13.950  0.8010 -0.1042 -0.5785
 8681TIP3   OH247533   1.044   0.376   5.020  0.4482 -0.0868  0.1637
 8681TIP3    H147534   1.057   0.282   5.025  1.0794 -0.0228 -0.2402
 8681TIP3    H247535   0.953   0.389   5.049  0.9934 -0.6119  2.2982
 8682TIP3   OH247536   0.857   2.940   4.710  0.2268  1.1386 -0.4456
 8682TIP3    H147537   0.906   2.892   4.777  0.2026  1.6140 -0.0793
 8682TIP3    H247538   0.801   2.999   4.760  0.9061  2.1896 -0.9093
 8683TIP3   OH247539   0.341   5.522   0.703  0.6569 -0.2461  0.8682
 8683TIP3    H147540   0.249   5.529   0.729  0.5178  0.8367  0.1372
 8683TIP3    H247541   0.354   5.429   0.685 -0.0473 -0.5499  1.8333
 8684TIP3   OH247542   6.191   0.731  16.931 -0.2115 -0.0866  0.2280
 8684TIP3    H147543   6.172   0.638  16.939 -0.8229 -0.0108 -0.2663
 8684TIP3    H247544   6.117   0.767  16.881 -0.0786  0.6927  0.5675
 8685TIP3   OH247545   5.290   6.393   0.810 -0.3244 -0.8196  0.2905
 8685TIP3    H147546   5.346   6.351   0.875  1.6064 -0.5617 -1.1344
 8685TIP3    H247547   5.322   6.483   0.806 -1.6218 -0.3353  0.2374
 8686TIP3   OH247548   0.237   3.353  10.438 -0.6533 -0.1635 -0.7573
 8686TIP3    H147549   0.234   3.258  10.430 -1.1625 -0.2418  0.2010
 8686TIP3    H247550   0.308   3.370  10.500 -1.8345 -0.0494  0.6101
 8687TIP3   OH247551   3.480   6.339   0.935  0.1333  0.1128 -0.3031
 8687TIP3    H147552   3.530   6.416   0.964  1.4291 -0.1192 -1.7926
 8687TIP3    H247553   3.505   6.327   0.844 -0.6713 -1.6042 -0.3377
 8688TIP3   OH247554   6.250   6.805   4.559 -0.0157 -0.3636  0.1830
 8688TIP3    H147555   6.176   6.803   4.620 -1.1606 -1.0586 -1.1648
 8688TIP3    H247556   6.235   6.730   4.502  2.2755 -1.0883  0.4640
 8689TIP3   OH247557   2.788   3.905  14.228 -0.8343  0.2512  0.2923
 8689TIP3    H147558   2.723   3.884  14.295 -0.0254 -0.9634  0.7265
 8689TIP3    H247559   2.748   3.977  14.178 -3.0457 -1.2195 -0.1968
 8690TIP3   OH247560   3.882   3.645  15.476  0.0982  0.6029  0.0892
 8690TIP3    H147561   3.924   3.643  15.389 -1.9139  1.2071 -0.9676
 8690TIP3    H247562   3.853   3.735  15.486 -2.5239 -0.1546 -0.0903
 8691TIP3   OH247563   1.180   0.256   5.604 -0.2057 -0.0776 -0.2557
 8691TIP3    H147564   1.232   0.182   5.636  1.3131  0.0272 -2.2826
 8691TIP3    H247565   1.203   0.328   5.663  1.6434 -0.1635 -0.8002
 8692TIP3   OH247566   5.475   1.025   3.461 -0.3193  0.3538 -0.0153
 8692TIP3    H147567   5.390   1.008   3.501 -0.3085 -0.9755 -0.4992
 8692TIP3    H247568   5.532   1.046   3.534 -1.1083  1.5116  0.2954
 8693TIP3   OH247569   3.038   5.581   1.465 -0.0571 -1.6974 -0.1360
 8693TIP3    H147570   2.989   5.613   1.389 -1.0577 -1.1176  0.7330
 8693TIP3    H247571   3.129   5.605   1.446 -0.4961 -0.1669 -0.4526
 8694TIP3   OH247572   4.201   2.849  15.720  0.2489 -0.2749  0.0036
 8694TIP3    H147573   4.259   2.911  15.675 -0.4739  0.1046 -0.4116
 8694TIP3    H247574   4.134   2.903  15.761 -0.0996 -0.7470  0.0598
 8695TIP3   OH247575   5.068   6.200  15.577  0.4834 -0.5422 -0.2023
 8695TIP3    H147576   5.045   6.213  15.669  1.0033  0.3056 -0.1725
 8695TIP3    H247577   5.050   6.108  15.560 -1.0484 -0.3829  0.3324
 8696TIP3   OH247578   5.231   2.963  15.972 -0.3881 -0.3174  0.4843
 8696TIP3    H147579   5.278   2.953  16.055  0.1141  0.6377  0.3332
 8696TIP3    H247580   5.299   2.989  15.909 -0.8487 -0.5178 -0.1053
 8697TIP3   OH247581   0.631   2.821   1.598  0.3091 -0.2074 -0.2820
 8697TIP3    H147582   0.568   2.827   1.527 -0.0827  1.1349  0.1450
 8697TIP3    H247583   0.707   2.777   1.560 -0.3949 -0.7064 -1.1403
 8698TIP3   OH247584   5.810   0.887  10.943  0.3784  0.5741 -0.3416
 8698TIP3    H147585   5.847   0.851  11.024  0.0956  0.5587 -0.2195
 8698TIP3    H247586   5.754   0.817  10.910 -0.0943  0.8631 -0.1563
 8699TIP3   OH247587   5.900   4.654   0.685  0.6400 -0.5874 -0.2809
 8699TIP3    H147588   5.914   4.560   0.697 -2.0711 -1.1556 -0.8305
 8699TIP3    H247589   5.855   4.661   0.601  0.3424  1.1416 -0.0175
 8700TIP3   OH247590   1.718   3.711  14.850  0.3379  0.0340  0.1637
 8700TIP3    H147591   1.668   3.736  14.772  0.7717  0.5169  0.0315
 8700TIP3    H247592   1.806   3.744  14.833  0.2569  0.8670  1.2006
 8701TIP3   OH247593   5.403   5.908  10.906  0.1317  0.9440 -0.0419
 8701TIP3    H147594   5.315   5.935  10.878 -0.2697  0.6898  0.9258
 8701TIP3    H247595   5.462   5.947  10.841 -0.6159  1.9965 -0.1182
 8702TIP3   OH247596   4.155   3.970  10.718  0.3937  0.1646  0.8088
 8702TIP3    H147597   4.103   4.050  10.720 -0.4312 -0.3614  0.8507
 8702TIP3    H247598   4.244   3.999  10.735 -0.0152  0.9859  1.6386
 8703TIP3   OH247599   4.455   3.530  13.121 -0.4733 -0.0154  0.4469
 8703TIP3    H147600   4.479   3.444  13.157 -3.2475 -0.1828  2.1790
 8703TIP3    H247601   4.537   3.578  13.119  1.3717 -2.9105 -1.3815
 8704TIP3   OH247602   5.275   0.902  14.035 -0.0060  0.0189 -0.1573
 8704TIP3    H147603   5.197   0.872  14.081 -0.1924 -0.0451 -0.5090
 8704TIP3    H247604   5.334   0.827  14.035 -0.0300 -0.0002 -0.0807
 8705TIP3   OH247605   5.172   2.699  16.662  0.6046  0.1237 -0.5909
 8705TIP3    H147606   5.212   2.640  16.727 -1.7139 -0.6227  0.2551
 8705TIP3    H247607   5.090   2.727  16.702  0.3982  1.8865 -2.0988
 8706TIP3   OH247608   1.657   2.445   6.521 -0.1822 -0.5515  0.7850
 8706TIP3    H147609   1.563   2.455   6.509 -0.4644 -2.6401  0.9499
 8706TIP3    H247610   1.679   2.364   6.476  1.3647 -0.6523  1.6472
 8707TIP3   OH247611   5.933   1.285   1.797 -0.9219 -0.1075 -0.2675
 8707TIP3    H147612   5.899   1.251   1.880 -1.0536 -0.3664 -0.4248
 8707TIP3    H247613   6.015   1.237   1.784  0.0660  1.2756  0.6387
 8708TIP3   OH247614   1.520   3.031   0.909  0.2053  0.0187 -0.7649
 8708TIP3    H147615   1.449   3.090   0.885  0.9959  0.5982 -1.7520
 8708TIP3    H247616   1.520   2.965   0.840 -1.1083 -1.5851  0.6776
 8709TIP3   OH247617   6.767   2.222   1.292  0.2091 -0.0720  0.0037
 8709TIP3    H147618   6.857   2.203   1.268  0.0502 -2.8462  1.2484
 8709TIP3    H247619   6.753   2.175   1.374 -1.7290  2.1495  1.0753
 8710TIP3   OH247620   0.453   4.168  14.006  0.0453  0.0364 -1.2005
 8710TIP3    H147621   0.509   4.170  13.929 -1.7628 -1.6503 -2.6554
 8710TIP3    H247622   0.494   4.103  14.063  1.5266  1.4690 -0.5371
 8711TIP3   OH247623   4.193   5.695   2.477  0.0689  0.1195 -0.2787
 8711TIP3    H147624   4.128   5.726   2.540  0.2869 -2.3461  1.3097
 8711TIP3    H247625   4.146   5.628   2.426  0.9315 -0.6728 -0.0628
 8712TIP3   OH247626   1.269   5.523  15.058  0.3372  0.2878 -0.0278
 8712TIP3    H147627   1.199   5.514  14.993  1.4410  0.0154 -1.2370
 8712TIP3    H247628   1.328   5.589  15.020 -0.3008  2.1082  1.9586
 8713TIP3   OH247629   2.440   2.286  13.721  0.0675 -0.0352 -0.0900
 8713TIP3    H147630   2.426   2.192  13.732  0.4954 -0.1613 -0.5903
 8713TIP3    H247631   2.423   2.323  13.807  1.0365 -0.7134  0.4091
 8714TIP3   OH247632   6.328   3.886  13.671 -1.1269 -0.0999  0.8095
 8714TIP3    H147633   6.422   3.869  13.670 -1.2952 -1.0396  0.7803
 8714TIP3    H247634   6.321   3.982  13.664 -0.2346 -0.1463 -1.2108
 8715TIP3   OH247635   2.489   6.294  12.349 -0.8855  0.2963  0.4299
 8715TIP3    H147636   2.427   6.336  12.289  1.4743  2.1454 -0.9146
 8715TIP3    H247637   2.524   6.220  12.299 -0.8605  0.2248  0.5525
 8716TIP3   OH247638   2.613   0.962   5.917  0.0552 -0.3608  0.2519
 8716TIP3    H147639   2.541   1.019   5.944 -0.6840 -1.1443 -0.0460
 8716TIP3    H247640   2.675   0.966   5.989 -0.0043  0.7812  0.2599
 8717TIP3   OH247641   2.921   1.307  14.924  0.2813  0.3029  0.3881
 8717TIP3    H147642   2.846   1.281  14.978  0.3442  2.2988  1.4866
 8717TIP3    H247643   2.980   1.232  14.928 -1.2963 -1.0326  0.0823
 8718TIP3   OH247644   4.932   3.801  14.976 -0.0380  0.1434 -0.4663
 8718TIP3    H147645   4.844   3.778  14.947 -0.0504  0.1252 -0.4133
 8718TIP3    H247646   4.922   3.825  15.068  0.3104 -1.6456  0.0840
 8719TIP3   OH247647   0.550   6.172  16.023 -0.1763  0.5541  0.1737
 8719TIP3    H147648   0.633   6.128  16.002 -0.4774 -0.1128  0.3761
 8719TIP3    H247649   0.576   6.263  16.040  0.6790  0.1091  1.3788
 8720TIP3   OH247650   6.101   3.081  14.878 -0.1856  0.5617  0.5205
 8720TIP3    H147651   6.076   3.079  14.970  0.3159  1.2242  0.6692
 8720TIP3    H247652   6.019   3.098  14.831 -0.8671 -1.9092  0.6634
 8721TIP3   OH247653   5.268   2.733  12.271 -0.9155 -0.6851 -0.3206
 8721TIP3    H147654   5.280   2.783  12.353  0.8246 -2.3619  0.5199
 8721TIP3    H247655   5.191   2.679  12.287 -2.1285  0.8226 -0.8110
 8722TIP3   OH247656   4.108   6.206   5.006  0.1154  0.2252  0.3368
 8722TIP3    H147657   4.079   6.116   5.020  1.1873 -0.3843 -1.2076
 8722TIP3    H247658   4.080   6.252   5.086  1.1237 -1.8351  1.9689
 8723TIP3   OH247659   5.334   5.004  16.189  0.0379 -0.3983  0.5344
 8723TIP3    H147660   5.271   4.932  16.183  0.0166 -0.3247 -0.1854
 8723TIP3    H247661   5.280   5.081  16.209  0.0429 -0.5457  1.1406
 8724TIP3   OH247662   0.402   4.740   5.123  0.1274  0.1153 -0.4116
 8724TIP3    H147663   0.413   4.679   5.050  0.0336  0.9159 -1.1010
 8724TIP3    H247664   0.456   4.815   5.101  0.4310  0.2001  0.5503
 8725TIP3   OH247665   1.504   0.913   4.538  0.0841 -0.6424  0.1736
 8725TIP3    H147666   1.495   0.879   4.627  1.1296 -1.3477  0.0181
 8725TIP3    H247667   1.517   0.835   4.484 -1.6277 -0.3156 -0.7677
 8726TIP3   OH247668   2.397   5.899   2.340  0.1832  0.3901 -0.1297
 8726TIP3    H147669   2.337   5.931   2.273 -0.1803 -1.3634 -0.7076
 8726TIP3    H247670   2.483   5.927   2.310 -0.0638  0.3561 -0.9029
 8727TIP3   OH247671   0.677   6.572  10.383 -0.1967  0.8849  0.4022
 8727TIP3    H147672   0.583   6.569  10.399  0.1056  0.3504  2.3823
 8727TIP3    H247673   0.686   6.565  10.288 -2.0853 -1.2225  0.3107
 8728TIP3   OH247674   0.986   2.200  16.066 -0.2829  0.5414  0.6225
 8728TIP3    H147675   1.017   2.275  16.015  1.2759  1.2020  2.4345
 8728TIP3    H247676   1.048   2.130  16.044 -2.6908 -0.8860 -2.3671
 8729TIP3   OH247677   1.794   3.307   1.100  0.6031  0.0429 -0.1324
 8729TIP3    H147678   1.886   3.323   1.119  0.8490  1.6922 -2.2203
 8729TIP3    H247679   1.788   3.311   1.004 -1.8825  1.7703 -0.0174
 8730TIP3   OH247680   0.512   5.527   1.465  0.0647  0.2140  0.2200
 8730TIP3    H147681   0.490   5.500   1.554 -0.2328  1.7286  0.6229
 8730TIP3    H247682   0.483   5.453   1.411  2.5594 -1.8750  1.5316
 8731TIP3   OH247683   4.678   0.447   1.799  0.1005  0.2573  0.0817
 8731TIP3    H147684   4.598   0.454   1.746  0.2230 -1.0076 -0.3041
 8731TIP3    H247685   4.693   0.536   1.832 -1.7276  0.4403  0.5403
 8732TIP3   OH247686   6.242   5.905  11.164 -0.8739 -0.4734  0.1172
 8732TIP3    H147687   6.286   5.867  11.088 -1.1823 -1.4752  0.4279
 8732TIP3    H247688   6.153   5.921  11.134 -0.9461 -0.6941  0.2166
 8733TIP3   OH247689   0.641   3.638   0.642 -0.5882  0.6333 -0.7370
 8733TIP3    H147690   0.699   3.705   0.678 -1.0554  0.3434  0.6439
 8733TIP3    H247691   0.553   3.673   0.655 -1.2059 -1.7488  3.8378
 8734TIP3   OH247692   4.930   0.580   2.242 -0.3004  0.0983 -0.1343
 8734TIP3    H147693   4.923   0.493   2.202  0.5849 -0.0334 -0.0277
 8734TIP3    H247694   5.022   0.603   2.231 -1.0057  2.1807 -2.5476
 8735TIP3   OH247695   2.849   5.329  12.710 -0.2062 -0.0063 -0.4146
 8735TIP3    H147696   2.896   5.406  12.744  0.4768 -0.4622 -0.3079
 8735TIP3    H247697   2.852   5.340  12.615 -1.9433  1.1651 -0.3903
 8736TIP3   OH247698   0.314   4.721  16.187  0.5622  0.7301 -0.6367
 8736TIP3    H147699   0.379   4.687  16.126  0.0541  1.8283 -1.8431
 8736TIP3    H247700   0.236   4.667  16.170  0.5680  0.7142 -0.6122
 8737TIP3   OH247701   4.185   2.710   0.017 -0.7873  0.2891 -0.2770
 8737TIP3    H147702   4.123   2.749  -0.045  0.2746  0.9231 -0.9821
 8737TIP3    H247703   4.271   2.743  -0.012 -0.1170 -0.6197  0.6227
 8738TIP3   OH247704   0.199   3.159  13.316 -0.9268 -0.5184 -0.1981
 8738TIP3    H147705   0.271   3.195  13.263 -1.8545  0.1604 -1.0413
 8738TIP3    H247706   0.120   3.184  13.268 -1.7635 -0.6371  1.0777
 8739TIP3   OH247707   1.337   2.168  14.491  0.0169  0.4751  0.1408
 8739TIP3    H147708   1.249   2.204  14.482 -0.5636 -0.7244  0.7731
 8739TIP3    H247709   1.354   2.171  14.585  1.1741  1.8605 -0.0867
 8740TIP3   OH247710   0.810   6.677  14.054  0.4515 -0.1705 -0.0610
 8740TIP3    H147711   0.878   6.616  14.081 -0.7216 -1.3975  0.2118
 8740TIP3    H247712   0.732   6.649  14.101 -1.0720 -0.8350 -2.7807
 8741TIP3   OH247713   2.885   4.289  14.457 -0.1204 -0.1340  0.4554
 8741TIP3    H147714   2.829   4.331  14.522  1.0795  2.2699  0.0491
 8741TIP3    H247715   2.973   4.294  14.494  0.4706  0.5579 -0.9363
 8742TIP3   OH247716   5.128   5.922  11.703  0.2573 -0.2970 -0.1988
 8742TIP3    H147717   5.077   6.003  11.713 -0.2148 -0.7833  1.6800
 8742TIP3    H247718   5.104   5.889  11.616  0.0757  1.3049 -0.7909
 8743TIP3   OH247719   1.050   3.960   5.020  0.5659 -0.3382  0.3974
 8743TIP3    H147720   1.064   4.026   5.088 -1.0980 -0.9203  1.3981
 8743TIP3    H247721   1.075   3.877   5.062 -1.0392 -0.7798  0.5888
 8744TIP3   OH247722   6.798   1.098  13.083  0.1641  1.1085 -0.9824
 8744TIP3    H147723   6.710   1.102  13.046 -0.0078  0.8177 -0.6199
 8744TIP3    H247724   6.844   1.033  13.030 -0.5538 -0.4616  0.2419
 8745TIP3   OH247725   3.702   5.109   1.145  0.0184 -0.6399 -0.0097
 8745TIP3    H147726   3.793   5.110   1.116 -0.1971  2.4318 -0.9559
 8745TIP3    H247727   3.706   5.131   1.238  0.2674 -1.5029  0.1914
 8746TIP3   OH247728   3.091   2.489   2.932 -0.0800 -0.1141 -0.2693
 8746TIP3    H147729   3.008   2.443   2.923  1.0138 -2.4547  0.6732
 8746TIP3    H247730   3.107   2.490   3.027  1.1078  0.0107 -0.4566
 8747TIP3   OH247731   5.774   6.104  15.904  0.0567  0.2366  0.5851
 8747TIP3    H147732   5.789   6.009  15.900  0.0898  0.2899 -1.1424
 8747TIP3    H247733   5.678   6.113  15.908 -0.1941  0.1188 -2.4868
 8748TIP3   OH247734   6.384   1.960  14.152  0.1549  0.1264  0.1885
 8748TIP3    H147735   6.462   1.998  14.110 -1.1633  0.1261 -2.4809
 8748TIP3    H247736   6.367   2.017  14.227  2.4086  0.3995  0.5840
 8749TIP3   OH247737   0.980   3.003   0.113  0.3158  0.2027  0.2397
 8749TIP3    H147738   0.933   2.922   0.130 -0.7617  1.1233  1.9552
 8749TIP3    H247739   1.072   2.979   0.120  0.0489 -1.1160 -0.5715
 8750TIP3   OH247740   3.126   5.567   3.343 -0.2036  0.0283 -0.4397
 8750TIP3    H147741   3.106   5.482   3.302 -0.6719  0.2803 -0.7466
 8750TIP3    H247742   3.214   5.556   3.379  0.2775 -0.1578 -1.6372
 8751TIP3   OH247743   6.707   4.570   5.366 -0.0212  0.2217  0.0216
 8751TIP3    H147744   6.685   4.622   5.289 -0.4162  1.9643  1.2190
 8751TIP3    H247745   6.687   4.480   5.342 -1.3072  0.8578 -1.4929
 8752TIP3   OH247746   4.052   0.951  13.160  0.3730 -0.3410 -0.2538
 8752TIP3    H147747   4.110   1.009  13.111  0.3408 -2.1482 -2.5867
 8752TIP3    H247748   4.097   0.867  13.161 -0.9061 -1.0463  0.4297
 8753TIP3   OH247749   0.170   5.397  11.757 -0.2666  0.3460 -0.3866
 8753TIP3    H147750   0.078   5.423  11.763 -1.7956 -4.0537 -0.8456
 8753TIP3    H247751   0.186   5.348  11.838  1.8370  1.2822 -0.1829
 8754TIP3   OH247752   0.069   3.732  17.033  0.1105  0.3991 -0.1060
 8754TIP3    H147753  -0.003   3.673  17.055  1.3361 -0.5026  1.8101
 8754TIP3    H247754   0.068   3.798  17.103  1.1286  0.3517 -0.0294
 8755TIP3   OH247755   6.348   1.934   5.148  0.4711  0.4296  0.1086
 8755TIP3    H147756   6.346   1.991   5.071  1.5597 -0.2665 -0.4758
 8755TIP3    H247757   6.258   1.933   5.180  0.3421  2.1555 -0.0765
 8756TIP3   OH247758   4.265   6.549  15.004 -0.2189 -0.0065 -0.0215
 8756TIP3    H147759   4.345   6.498  15.020 -0.4535 -1.0819 -1.9709
 8756TIP3    H247760   4.294   6.623  14.951 -0.3242  0.3842  0.4548
 8757TIP3   OH247761   1.996   0.513   1.842 -0.0717 -0.7051  0.0111
 8757TIP3    H147762   2.053   0.576   1.798 -2.2083  0.3217 -1.4455
 8757TIP3    H247763   2.056   0.448   1.877  2.0860  0.9981 -0.2612
 8758TIP3   OH247764   6.472   4.864  13.493 -0.5348  0.2155 -0.1406
 8758TIP3    H147765   6.454   4.938  13.435 -0.5402  0.7908  0.5820
 8758TIP3    H247766   6.454   4.898  13.581  1.8287  0.1024  0.4309
 8759TIP3   OH247767   2.827   4.465   3.313 -0.0405 -0.2251  0.5225
 8759TIP3    H147768   2.849   4.429   3.227 -1.3697  0.4442 -0.1371
 8759TIP3    H247769   2.824   4.560   3.299 -0.5540 -0.1277  1.2279
 8760TIP3   OH247770   0.487   5.653   3.209  0.1257 -0.1986 -0.9464
 8760TIP3    H147771   0.542   5.680   3.136  2.1249 -3.1332 -0.6798
 8760TIP3    H247772   0.443   5.574   3.179  0.5186 -1.1159  0.7409
 8761TIP3   OH247773   1.352   4.554   1.844  0.6425  0.6123  0.3271
 8761TIP3    H147774   1.379   4.507   1.766  1.4771 -0.4361  1.2109
 8761TIP3    H247775   1.434   4.580   1.887  0.4503 -2.5520  3.0145
 8762TIP3   OH247776   2.984   4.050   6.030 -0.2779 -0.4614 -0.3111
 8762TIP3    H147777   2.920   4.054   5.959  2.6105  0.2984 -3.1080
 8762TIP3    H247778   2.998   4.141   6.055  0.5141 -0.5208 -0.5245
 8763TIP3   OH247779   0.771   4.324   5.675  0.2268  0.3691  0.5871
 8763TIP3    H147780   0.742   4.375   5.750 -1.7841 -0.0576  0.1392
 8763TIP3    H247781   0.857   4.290   5.701 -0.4529  0.1781  2.7025
 8764TIP3   OH247782   1.303   3.497   0.092  0.0203  0.0334  0.0762
 8764TIP3    H147783   1.394   3.475   0.068 -0.0895 -0.0036 -0.3080
 8764TIP3    H247784   1.287   3.582   0.052  0.5867  1.0702  1.9219
 8765TIP3   OH247785   3.720   4.654  13.032 -0.3014  0.1710 -0.0111
 8765TIP3    H147786   3.637   4.697  13.050 -0.7430 -0.9768  0.8215
 8765TIP3    H247787   3.697   4.565  13.006  0.6587 -0.1466  0.1567
 8766TIP3   OH247788   3.254   1.673   2.082  0.1645 -0.4408  0.1122
 8766TIP3    H147789   3.170   1.653   2.125  0.5152  0.1148  1.0933
 8766TIP3    H247790   3.302   1.590   2.084 -0.2555 -0.6976 -0.2262
 8767TIP3   OH247791   4.567   2.288  15.460 -0.0149  0.1167 -0.2289
 8767TIP3    H147792   4.515   2.208  15.459 -1.2613  0.9032 -1.1849
 8767TIP3    H247793   4.579   2.311  15.368  2.1361 -0.0743 -0.0484
 8768TIP3   OH247794   5.602   0.938  16.082 -0.2350 -0.1965  0.3168
 8768TIP3    H147795   5.620   0.925  15.989  0.0106  0.5821  0.2485
 8768TIP3    H247796   5.508   0.955  16.086 -0.0537  0.9311  0.0674
 8769TIP3   OH247797   3.471   0.616  12.883 -0.2567 -0.4584  0.0238
 8769TIP3    H147798   3.401   0.645  12.941 -1.4709 -0.7125 -1.2602
 8769TIP3    H247799   3.449   0.655  12.798  2.7394  1.9130  0.1613
 8770TIP3   OH247800   2.411   3.088  15.242  0.2308 -0.0579  0.7978
 8770TIP3    H147801   2.469   3.075  15.317  0.1132 -1.4291  0.6898
 8770TIP3    H247802   2.325   3.105  15.282  0.2865 -0.1891  0.9792
 8771TIP3   OH247803   1.139   0.927   5.122 -0.3301  0.3537 -0.3987
 8771TIP3    H147804   1.117   0.963   5.036  0.0951  0.6093 -0.4012
 8771TIP3    H247805   1.070   0.862   5.138 -0.0841 -0.1333 -1.2053
 8772TIP3   OH247806   6.268   0.532   1.197  0.0882  0.6340  0.2029
 8772TIP3    H147807   6.184   0.486   1.198 -0.3564  1.4263  1.6071
 8772TIP3    H247808   6.290   0.539   1.104 -0.6161 -0.9634 -0.1122
 8773TIP3   OH247809   1.408   3.004   5.867 -0.0365  0.5728 -0.5117
 8773TIP3    H147810   1.368   2.933   5.918  0.5326  0.0445 -0.7829
 8773TIP3    H247811   1.392   2.980   5.776  1.3437  0.0575 -0.6460
 8774TIP3   OH247812   1.970   0.189   0.843  0.1744  0.6767 -0.3511
 8774TIP3    H147813   1.930   0.149   0.766 -0.2879  1.2415 -0.4072
 8774TIP3    H247814   2.036   0.249   0.808  1.1625 -0.3128 -0.2573
 8775TIP3   OH247815   6.407   4.423  12.558  0.4729 -0.0679 -0.0628
 8775TIP3    H147816   6.424   4.516  12.572 -0.0987  0.0181  0.0924
 8775TIP3    H247817   6.397   4.414  12.463  0.3833  0.0582 -0.0657
 8776TIP3   OH247818   5.840   1.617  16.461 -0.1425  0.2478 -0.5107
 8776TIP3    H147819   5.762   1.566  16.480 -0.1563  0.1973 -0.7094
 8776TIP3    H247820   5.905   1.584  16.523  0.0993 -0.6072 -1.2026
 8777TIP3   OH247821   3.367   3.794   3.375  0.4608  0.1971  0.2820
 8777TIP3    H147822   3.407   3.770   3.291  0.2072  0.9792 -0.0668
 8777TIP3    H247823   3.307   3.865   3.354  0.4717  0.4720  1.1449
 8778TIP3   OH247824   4.817   5.136  15.867 -0.5921 -0.1291  0.1380
 8778TIP3    H147825   4.781   5.204  15.810  0.2537  0.9373  0.8229
 8778TIP3    H247826   4.905   5.122  15.835 -0.7234 -0.8431  0.0732
 8779TIP3   OH247827   0.241   6.192  15.287 -0.4073  0.2545 -0.1472
 8779TIP3    H147828   0.191   6.142  15.351  0.8520 -1.5192 -0.4783
 8779TIP3    H247829   0.218   6.283  15.304 -0.9839 -0.2521  2.0278
 8780TIP3   OH247830   3.717   0.236  12.202  0.1539 -0.8640  0.1740
 8780TIP3    H147831   3.728   0.178  12.277  0.1013 -0.7525  0.2695
 8780TIP3    H247832   3.760   0.318  12.229 -0.8484 -0.4391  0.5332
 8781TIP3   OH247833   2.302   6.550  10.882 -0.3239 -0.4253  0.1658
 8781TIP3    H147834   2.344   6.615  10.938  0.4628 -0.0700 -0.7970
 8781TIP3    H247835   2.271   6.601  10.807 -0.6078 -1.0135 -0.1178
 8782TIP3   OH247836   6.445   0.754   0.183 -0.0265 -0.2714  0.0945
 8782TIP3    H147837   6.380   0.712   0.240  1.5514 -2.4264  0.4287
 8782TIP3    H247838   6.529   0.724   0.216  1.0273 -0.2894 -2.3751
 8783TIP3   OH247839   3.442   0.264  13.991  0.2351  0.4568 -1.0895
 8783TIP3    H147840   3.349   0.241  13.990  0.4679 -0.5563 -1.0392
 8783TIP3    H247841   3.487   0.179  13.983  1.1933  0.7010  1.1848
 8784TIP3   OH247842   6.639   4.239   0.907 -0.1438  0.1991 -0.3366
 8784TIP3    H147843   6.595   4.163   0.946 -0.3437  1.1595  1.4236
 8784TIP3    H247844   6.724   4.206   0.878  0.0188 -0.5849  0.9514
 8785TIP3   OH247845   5.761   3.040  14.225 -0.6012  0.7240 -0.2164
 8785TIP3    H147846   5.807   2.983  14.287 -2.1870 -0.1341  0.2328
 8785TIP3    H247847   5.697   2.983  14.183 -1.9949  2.0708 -0.0109
 8786TIP3   OH247848   5.988   0.498   5.557  0.2682 -0.2754  0.1597
 8786TIP3    H147849   5.914   0.458   5.603 -0.0056 -0.8749 -0.7689
 8786TIP3    H247850   6.065   0.457   5.597  0.0879 -0.0582  0.7504
 8787TIP3   OH247851   6.279   1.624  13.594 -0.7019  0.1653  0.4728
 8787TIP3    H147852   6.350   1.675  13.556 -0.0958 -0.4820  0.7057
 8787TIP3    H247853   6.216   1.613  13.523  0.8612 -1.8758 -0.7221
 8788TIP3   OH247854   4.258   6.227  13.680 -0.4339  0.3826 -0.1095
 8788TIP3    H147855   4.323   6.294  13.658  0.0472 -0.9974 -3.6501
 8788TIP3    H247856   4.307   6.158  13.722  0.1083  0.1286 -1.1199
 8789TIP3   OH247857   2.526   6.264  14.180  0.5769  0.6311  0.0304
 8789TIP3    H147858   2.547   6.172  14.160 -0.2105 -0.0257  1.9959
 8789TIP3    H247859   2.481   6.295  14.102  1.8235 -0.2885 -1.1246
 8790TIP3   OH247860   2.323   0.388  13.163  0.3318  0.6789  0.7262
 8790TIP3    H147861   2.261   0.331  13.210  1.2314 -0.1136  0.9732
 8790TIP3    H247862   2.309   0.474  13.202  0.8492  0.1031  2.2957
 8791TIP3   OH247863   6.454   6.156   4.664  0.2015  0.1408  0.1631
 8791TIP3    H147864   6.415   6.071   4.643 -2.6158  1.8955 -2.6580
 8791TIP3    H247865   6.522   6.168   4.598  1.6338 -0.4246  1.4633
 8792TIP3   OH247866   1.198   3.775  11.840 -0.2818 -0.6393 -0.1381
 8792TIP3    H147867   1.139   3.772  11.765  0.8840 -0.3682 -1.0898
 8792TIP3    H247868   1.282   3.802  11.804  0.3961 -0.8442  1.2129
 8793TIP3   OH247869   2.986   6.821  14.209  0.3597 -0.5641 -0.6941
 8793TIP3    H147870   2.966   6.815  14.302  0.7456 -0.7287 -0.6163
 8793TIP3    H247871   2.901   6.821  14.165  0.0948  1.3314 -0.2479
 8794TIP3   OH247872   0.718   5.921   5.828 -1.1213  0.5838  0.3423
 8794TIP3    H147873   0.691   5.940   5.738 -1.3714 -0.1405  0.2522
 8794TIP3    H247874   0.670   5.984   5.882 -1.9140  0.2300  0.0593
 8795TIP3   OH247875   3.056   1.765  15.423  0.5006  0.4056 -0.4667
 8795TIP3    H147876   2.968   1.794  15.402  0.2115  0.0173  0.1784
 8795TIP3    H247877   3.053   1.744  15.517  0.2322 -3.1995 -1.1478
 8796TIP3   OH247878   4.692   5.429   3.150 -0.2701  0.3590 -0.1559
 8796TIP3    H147879   4.765   5.381   3.190 -0.1161  0.6561 -0.0837
 8796TIP3    H247880   4.617   5.369   3.159 -0.2027  0.3550  0.4311
 8797TIP3   OH247881   1.754   5.382   1.579 -0.1335  0.3049 -1.0426
 8797TIP3    H147882   1.844   5.404   1.602 -0.1536 -0.1317 -0.5322
 8797TIP3    H247883   1.762   5.325   1.503  0.1435 -1.3496  0.1698
 8798TIP3   OH247884   2.304   2.602   3.336  0.2322 -0.1754 -0.0007
 8798TIP3    H147885   2.379   2.614   3.394 -0.3912  0.0594  0.7811
 8798TIP3    H247886   2.235   2.567   3.393 -0.3547 -0.0600 -0.6241
 8799TIP3   OH247887   3.202   6.406  16.008 -0.2599 -0.0098  0.0313
 8799TIP3    H147888   3.296   6.402  16.028  0.1680 -3.4769 -1.9267
 8799TIP3    H247889   3.197   6.446  15.922 -0.9302  2.7166  1.2483
 8800TIP3   OH247890   1.218   0.152  16.417  0.4905 -0.1780  0.9149
 8800TIP3    H147891   1.302   0.155  16.371 -0.4197  1.8704 -0.7945
 8800TIP3    H247892   1.237   0.187  16.504  1.2397  1.3766  0.1727
 8801TIP3   OH247893   3.092   0.473  15.536  0.9031  0.5872 -0.0995
 8801TIP3    H147894   3.145   0.396  15.555 -0.7186 -0.0026  2.4357
 8801TIP3    H247895   3.004   0.440  15.523  0.0676  1.9967  1.5431
 8802TIP3   OH247896   3.472   0.684   0.002 -0.3735 -0.5187  0.4802
 8802TIP3    H147897   3.538   0.723   0.059  0.9392 -0.9791 -0.6871
 8802TIP3    H247898   3.481   0.731  -0.081 -0.5352 -1.5426 -0.1340
 8803TIP3   OH247899   2.719   2.941   0.767 -0.6047 -1.1267  0.1077
 8803TIP3    H147900   2.791   2.919   0.826  0.1544  1.6190  0.3358
 8803TIP3    H247901   2.641   2.936   0.823 -0.2528 -1.3603  0.5911
 8804TIP3   OH247902   5.093   4.976   6.042 -0.6439 -0.0264 -0.1608
 8804TIP3    H147903   5.030   4.932   5.985 -2.6999  0.2717  1.6868
 8804TIP3    H247904   5.075   4.939   6.129 -0.7318  2.5821  1.0235
 8805TIP3   OH247905   4.721   0.118  12.776  0.0763  0.2903  0.5333
 8805TIP3    H147906   4.692   0.089  12.862  0.9790  3.1399  1.9366
 8805TIP3    H247907   4.640   0.129  12.726 -0.3902 -2.7029  0.4308
 8806TIP3   OH247908   0.213   0.225  11.882 -0.2465  0.0028 -0.4321
 8806TIP3    H147909   0.247   0.215  11.971 -2.4878 -0.4907  0.4440
 8806TIP3    H247910   0.215   0.137  11.845 -0.6632 -0.0589 -0.3182
 8807TIP3   OH247911   0.779   1.088  11.165  0.3514 -0.0944  0.6480
 8807TIP3    H147912   0.767   1.089  11.070  1.9735 -0.0639  0.4176
 8807TIP3    H247913   0.779   0.996  11.188  0.9771 -0.1413  0.4683
 8808TIP3   OH247914   3.586   6.345   6.190  0.3107  0.4246 -0.0029
 8808TIP3    H147915   3.582   6.275   6.255  3.9894 -0.6017 -0.6441
 8808TIP3    H247916   3.674   6.381   6.200  0.5413  1.1353 -3.5271
 8809TIP3   OH247917   1.315   4.929   5.518 -0.3843 -0.1998 -0.0214
 8809TIP3    H147918   1.232   4.883   5.503  1.6182 -4.3666 -0.0137
 8809TIP3    H247919   1.324   4.932   5.613  0.1043 -1.2793 -0.0099
 8810TIP3   OH247920   2.957   4.441   1.167 -0.1182  0.1525 -0.1268
 8810TIP3    H147921   2.975   4.349   1.150 -2.2951  0.0762 -2.9277
 8810TIP3    H247922   3.013   4.488   1.104  0.6962  0.7691  1.0194
 8811TIP3   OH247923   6.650   0.409  16.897  0.2731 -0.3342 -0.5601
 8811TIP3    H147924   6.692   0.491  16.870 -1.0127  0.5351 -0.0324
 8811TIP3    H247925   6.663   0.350  16.823  0.4126  0.6471 -1.3446
 8812TIP3   OH247926   6.536   0.094  16.525  0.4450 -0.6167  0.0868
 8812TIP3    H147927   6.608   0.143  16.563  0.6254 -1.9040  1.5303
 8812TIP3    H247928   6.568   0.064  16.440  1.2752 -0.4075  0.3228
 8813TIP3   OH247929   1.300   4.044   6.272  0.1041  0.1368 -0.0904
 8813TIP3    H147930   1.281   3.950   6.269 -0.1197  0.2024 -0.7406
 8813TIP3    H247931   1.389   4.052   6.239  0.5950  0.0342  1.1416
 8814TIP3   OH247932   5.548   6.521  12.544 -0.0220 -0.7911 -0.1556
 8814TIP3    H147933   5.557   6.457  12.615 -1.8038  0.7085  1.5322
 8814TIP3    H247934   5.474   6.489  12.492 -1.8846  0.5455  1.5448
 8815TIP3   OH247935   3.235   3.861   1.556  0.1786  0.1643 -0.0602
 8815TIP3    H147936   3.225   3.770   1.583  1.2675  0.0165 -0.0895
 8815TIP3    H247937   3.326   3.868   1.528 -0.2739  0.8975 -1.4710
 8816TIP3   OH247938   0.864   2.819  16.897 -0.1575  0.1178  0.3972
 8816TIP3    H147939   0.958   2.831  16.914 -0.0897 -0.9186  0.8018
 8816TIP3    H247940   0.828   2.790  16.980 -0.8125  0.3291  0.1930
 8817TIP3   OH247941   1.011   3.142  11.003  0.2309 -0.0580 -0.0728
 8817TIP3    H147942   0.932   3.195  10.998 -1.0325 -1.9103 -0.8775
 8817TIP3    H247943   1.078   3.194  10.960 -0.2716  1.9353  1.3961
 8818TIP3   OH247944   0.079   6.246  14.368  0.3832  0.1883  0.2609
 8818TIP3    H147945   0.020   6.221  14.297  1.0765  1.0772 -0.6714
 8818TIP3    H247946   0.023   6.287  14.433 -0.2411 -0.4633  0.1443
 8819TIP3   OH247947   4.764   3.397  11.628 -0.1642 -0.5752  0.0262
 8819TIP3    H147948   4.749   3.327  11.692 -0.3408  0.1598  0.8030
 8819TIP3    H247949   4.858   3.392  11.610 -0.4563 -2.1835 -1.3359
 8820TIP3   OH247950   0.288   5.438   5.248  0.0719 -0.0383 -0.1442
 8820TIP3    H147951   0.334   5.417   5.167 -1.3034 -1.2119 -0.6644
 8820TIP3    H247952   0.353   5.424   5.317  0.6351 -1.2315 -0.8874
 8821TIP3   OH247953   4.638   4.609   6.458 -0.1563  0.5369  0.2058
 8821TIP3    H147954   4.682   4.642   6.379  0.6774 -0.3880  0.2544
 8821TIP3    H247955   4.637   4.684   6.518 -0.6727  1.2103 -0.6227
 8822TIP3   OH247956   2.241   3.529  11.434 -0.4096  0.5672 -0.0492
 8822TIP3    H147957   2.189   3.562  11.361 -0.9030 -0.4283 -0.1670
 8822TIP3    H247958   2.178   3.518  11.505  0.1437  1.9858  0.7135
 8823TIP3   OH247959   0.860   2.520   3.642 -0.1634 -0.3434  0.3335
 8823TIP3    H147960   0.794   2.469   3.594  0.0306  0.3704 -0.7323
 8823TIP3    H247961   0.921   2.455   3.675  0.6953 -0.7927 -1.9507
 8824TIP3   OH247962   1.650   4.415   3.190 -0.4204 -0.4157  0.1895
 8824TIP3    H147963   1.586   4.391   3.257  1.5006 -1.6324  1.7179
 8824TIP3    H247964   1.629   4.506   3.169 -1.1494  0.0073  2.4356
 8825TIP3   OH247965   0.731   1.401   5.832 -0.2251 -0.0309  0.0450
 8825TIP3    H147966   0.721   1.387   5.926  0.3302  0.4912  0.1933
 8825TIP3    H247967   0.776   1.322   5.800 -1.5878 -0.8095 -0.0299
 8826TIP3   OH247968   6.167   1.648   1.123 -0.1085  0.0634  0.1862
 8826TIP3    H147969   6.130   1.566   1.091 -0.5186  0.7718 -1.2572
 8826TIP3    H247970   6.120   1.716   1.074 -0.4650  1.2136  2.0466
 8827TIP3   OH247971   1.293   1.955   5.224  0.6879  0.1484 -0.5632
 8827TIP3    H147972   1.296   1.919   5.313 -1.9252  1.3397  0.1009
 8827TIP3    H247973   1.227   1.902   5.179 -0.8970  1.9761 -0.5222
 8828TIP3   OH247974   2.629   0.786   3.979  0.1056 -0.0176  0.2477
 8828TIP3    H147975   2.682   0.813   4.053 -0.3135  0.5689  0.3452
 8828TIP3    H247976   2.612   0.693   3.994  0.7606 -0.1111  0.4211
 8829TIP3   OH247977   5.931   0.256  16.760 -0.6322 -0.1070  0.3824
 8829TIP3    H147978   5.941   0.243  16.854 -1.1733 -1.9778  0.2328
 8829TIP3    H247979   6.008   0.305  16.733 -0.8182  1.0670  1.8955
 8830TIP3   OH247980   1.372   2.217  11.570  0.0515 -0.7402  0.2964
 8830TIP3    H147981   1.465   2.197  11.564  0.2109  0.3553 -2.4432
 8830TIP3    H247982   1.339   2.160  11.639  3.2231  0.8204  3.4372
 8831TIP3   OH247983   0.437   3.158  13.171  0.1319  0.3360 -0.9863
 8831TIP3    H147984   0.492   3.093  13.215  0.6066  0.2646 -1.6734
 8831TIP3    H247985   0.498   3.224  13.139 -0.5111  2.2782  1.5347
 8832TIP3   OH247986   4.948   5.659   1.800 -0.0503 -0.2650 -0.4988
 8832TIP3    H147987   5.003   5.737   1.795  1.4322 -1.2688 -0.5265
 8832TIP3    H247988   5.006   5.587   1.775 -1.6151 -1.2812 -1.3987
 8833TIP3   OH247989   3.984   2.764   4.871  0.5262 -0.0739  0.3847
 8833TIP3    H147990   4.078   2.749   4.879  0.4413 -0.5767  0.4409
 8833TIP3    H247991   3.950   2.685   4.829  0.2222  0.3826 -0.2562
 8834TIP3   OH247992   5.224   6.567  16.352 -0.2595  0.2157  0.3316
 8834TIP3    H147993   5.207   6.612  16.269  1.7085  2.8688  1.2389
 8834TIP3    H247994   5.155   6.597  16.410  0.7166  1.7361  0.7658
 8835TIP3   OH247995   1.691   4.109  17.026 -0.5556  0.2779 -0.6474
 8835TIP3    H147996   1.726   4.179  16.971 -0.6537 -1.4326 -3.0515
 8835TIP3    H247997   1.641   4.054  16.966 -0.0513 -2.1484  0.9970
 8836TIP3   OH247998   5.516   4.949  12.091 -0.4618 -0.2940 -0.5524
 8836TIP3    H147999   5.477   5.016  12.036  1.2836  1.0036 -0.2966
 8836TIP3    H248000   5.511   4.985  12.180 -1.0849 -1.2946 -0.1692
 8837TIP3   OH248001   6.031   3.756  10.371 -0.1011 -0.1699 -0.3214
 8837TIP3    H148002   5.959   3.696  10.388 -0.7845 -0.0625 -2.4772
 8837TIP3    H248003   6.109   3.701  10.369 -0.4730 -0.6957 -0.4242
 8838TIP3   OH248004   5.312   6.331  14.830 -0.1468  0.4264  0.2450
 8838TIP3    H148005   5.405   6.322  14.809 -0.0810  1.8566 -0.1496
 8838TIP3    H248006   5.310   6.351  14.924 -0.1497 -0.8121  0.5299
 8839TIP3   OH248007   4.889   3.331   2.966  0.0689 -0.2414 -0.5019
 8839TIP3    H148008   4.896   3.406   3.026 -1.2168  1.2281 -2.0645
 8839TIP3    H248009   4.980   3.303   2.952  0.5720  0.8972  0.2936
 8840TIP3   OH248010   0.719   0.475  15.787 -0.0361 -0.3508 -0.1173
 8840TIP3    H148011   0.812   0.478  15.809 -0.2819  0.2391  0.9035
 8840TIP3    H248012   0.674   0.482  15.871 -1.0119 -0.3586 -0.6216
 8841TIP3   OH248013   2.935   3.980  17.122 -0.0727  0.1584  0.0418
 8841TIP3    H148014   2.983   3.959  17.202  0.6018 -0.7060 -0.5680
 8841TIP3    H248015   2.971   4.064  17.094  1.1769 -0.5239 -0.4570
 8842TIP3   OH248016   2.480   6.786  11.488  0.4813  0.0211  0.3982
 8842TIP3    H148017   2.503   6.830  11.407  2.0591 -0.4708  0.5395
 8842TIP3    H248018   2.500   6.694  11.472  0.7975 -0.0887  1.3267
 8843TIP3   OH248019   2.740   2.760   2.009  0.2235 -0.0564 -0.2203
 8843TIP3    H148020   2.747   2.831   2.073 -1.5803 -1.0295  1.1216
 8843TIP3    H248021   2.670   2.787   1.950  2.1242  1.0198 -2.1624
 8844TIP3   OH248022   4.918   6.551   2.804  0.0074 -0.1854  0.3798
 8844TIP3    H148023   4.862   6.490   2.756  1.2066 -0.1198 -1.1804
 8844TIP3    H248024   4.972   6.593   2.736 -1.0051  2.9101  1.3202
 8845TIP3   OH248025   2.685   3.566   0.829  0.5455 -0.1064 -0.0376
 8845TIP3    H148026   2.765   3.610   0.858  0.0871 -0.3796  1.7343
 8845TIP3    H248027   2.661   3.612   0.748  3.0819 -0.7497 -1.2846
 8846TIP3   OH248028   5.441   2.584   2.637  0.1971  0.6913  0.3517
 8846TIP3    H148029   5.495   2.506   2.623 -0.6313  0.2152 -0.3546
 8846TIP3    H248030   5.471   2.620   2.721  3.0396  1.6769 -0.9588
 8847TIP3   OH248031   6.302   4.350  13.485 -0.7435  0.2733  0.5380
 8847TIP3    H148032   6.254   4.314  13.411 -0.5043 -0.2603  0.6376
 8847TIP3    H248033   6.321   4.440  13.459 -0.7128  0.1106 -0.0232
 8848TIP3   OH248034   5.504   2.911  12.913  0.2179  0.2303  0.1186
 8848TIP3    H148035   5.573   2.859  12.872  0.5630  1.5050 -0.9893
 8848TIP3    H248036   5.450   2.941  12.840 -0.1009  1.2165  0.7413
 8849TIP3   OH248037   3.017   5.245   0.136 -0.2565 -0.1514  0.6624
 8849TIP3    H148038   2.981   5.218   0.052  1.2941 -0.1609 -0.0457
 8849TIP3    H248039   3.109   5.217   0.133  0.1973  1.0690  1.7975
 8850TIP3   OH248040   0.551   4.365  12.861  0.1497  0.3101 -0.3036
 8850TIP3    H148041   0.469   4.366  12.910  0.8501  0.6060  0.9044
 8850TIP3    H248042   0.618   4.346  12.927  0.9800 -0.6679 -1.3870
 8851TIP3   OH248043   4.263   2.223  15.303 -0.1023  0.5083  0.1238
 8851TIP3    H148044   4.251   2.269  15.386  1.3076  0.9762  0.0910
 8851TIP3    H248045   4.264   2.130  15.328  2.0645  0.6751  0.9432
 8852TIP3   OH248046   4.342   3.788   3.386  0.2404  0.1563  0.0232
 8852TIP3    H148047   4.353   3.780   3.481 -1.0797 -1.6870  0.0780
 8852TIP3    H248048   4.417   3.742   3.349  1.2658  1.6953  0.1343
 8853TIP3   OH248049   3.337   3.435   1.397  0.0271  0.7669  0.5997
 8853TIP3    H148050   3.425   3.449   1.360 -0.1670 -2.9178 -1.8686
 8853TIP3    H248051   3.278   3.466   1.329 -0.4105 -1.3517 -0.0660
 8854TIP3   OH248052   3.029   5.153   2.081  0.0677  0.0694  0.3168
 8854TIP3    H148053   2.986   5.224   2.127  1.1935  0.1888  1.2210
 8854TIP3    H248054   3.097   5.196   2.029  0.1889 -0.2740  0.1894
 8855TIP3   OH248055   5.063   5.387   5.449  0.4392 -0.0461  0.1543
 8855TIP3    H148056   4.976   5.398   5.411  0.9771  2.6010 -0.5017
 8855TIP3    H248057   5.047   5.356   5.538 -1.2400  1.0936  0.2952
 8856TIP3   OH248058   1.133   2.508  10.279  0.5043 -0.4191 -0.2452
 8856TIP3    H148059   1.210   2.460  10.311 -0.0373 -1.4468 -0.4472
 8856TIP3    H248060   1.069   2.501  10.350  1.0967  1.7598  0.5835
 8857TIP3   OH248061   1.693   1.116   3.665  0.3434 -0.1571  0.0011
 8857TIP3    H148062   1.727   1.198   3.701  0.8964 -1.1530  1.9308
 8857TIP3    H248063   1.647   1.141   3.585  0.2828  2.0454  0.6686
 8858TIP3   OH248064   4.481   5.122   2.572 -0.0046 -0.9463 -0.7633
 8858TIP3    H148065   4.465   5.075   2.654 -1.0425 -2.1006 -1.5888
 8858TIP3    H248066   4.444   5.210   2.587 -1.0360 -1.4397 -0.2912
 8859TIP3   OH248067   3.945   0.987  12.600  0.5747  0.4242  0.0451
 8859TIP3    H148068   3.884   1.059  12.584  0.7798  0.1046 -2.7874
 8859TIP3    H248069   4.016   1.026  12.651 -0.1282  1.7909  0.0206
 8860TIP3   OH248070   1.661   5.000   4.872 -0.3774 -0.3251  0.0534
 8860TIP3    H148071   1.737   4.994   4.814 -0.6567 -1.0869 -0.2443
 8860TIP3    H248072   1.666   5.089   4.909 -1.0147  0.7551 -2.2655
 8861TIP3   OH248073   3.202   3.808   5.096 -0.6453 -0.2499  0.4071
 8861TIP3    H148074   3.232   3.825   5.186  0.6392 -1.5818  0.2575
 8861TIP3    H248075   3.111   3.778   5.107 -0.4265 -0.6338  1.2853
 8862TIP3   OH248076   4.106   1.462   3.870 -0.3338 -0.4755 -0.0152
 8862TIP3    H148077   4.060   1.412   3.802  1.1825 -1.0089 -0.6959
 8862TIP3    H248078   4.106   1.405   3.947 -1.3243 -0.2169  0.1874
 8863TIP3   OH248079   2.505   6.461  12.681  0.4206 -0.2657 -0.2123
 8863TIP3    H148080   2.413   6.465  12.655  0.6336  1.6730 -0.8352
 8863TIP3    H248081   2.553   6.443  12.600  0.6486 -0.3701 -0.0552
 8864TIP3   OH248082   2.587   4.307   0.825  0.1304  0.4256  0.4514
 8864TIP3    H148083   2.536   4.375   0.868 -2.2743  0.0450 -1.5805
 8864TIP3    H248084   2.594   4.237   0.891  0.6433  1.6606  1.7621
 8865TIP3   OH248085   6.459   0.510  12.621 -0.1935  0.4384 -0.0238
 8865TIP3    H148086   6.442   0.584  12.562  2.4688  0.5159 -0.8021
 8865TIP3    H248087   6.486   0.439  12.563 -1.0996 -0.6731  0.8678
 8866TIP3   OH248088   2.265   3.048   1.409 -0.2329  0.0747  0.2297
 8866TIP3    H148089   2.360   3.054   1.415 -0.1817 -0.8289  0.4122
 8866TIP3    H248090   2.240   3.118   1.348  0.5075  0.5276  0.4321
 8867TIP3   OH248091   5.933   5.597  13.064 -0.2586  0.0763  0.7761
 8867TIP3    H148092   5.932   5.576  12.971  3.4470  4.2835 -0.5689
 8867TIP3    H248093   5.996   5.536  13.103  3.6496  2.4455 -1.1980
 8868TIP3   OH248094   5.166   6.572  11.195  0.6229  0.8757  0.1861
 8868TIP3    H148095   5.124   6.558  11.110 -1.2388  2.3331  0.8132
 8868TIP3    H248096   5.245   6.623  11.174  1.3618 -0.6052 -0.8487
 8869TIP3   OH248097   3.974   6.586  12.531  0.1636  0.0113 -0.1642
 8869TIP3    H148098   3.921   6.604  12.609 -2.2028 -1.6525 -1.2344
 8869TIP3    H248099   3.983   6.490  12.530 -0.4946 -0.0831 -2.2514
 8870TIP3   OH248100   1.994   6.013   6.649 -0.0084 -0.1699 -0.1000
 8870TIP3    H148101   1.909   6.029   6.689 -0.2942  1.0242 -1.1211
 8870TIP3    H248102   1.986   6.048   6.560  2.1133  1.7169  0.3575
 8871TIP3   OH248103   0.851   1.339   0.297  0.1422 -0.3720  0.4350
 8871TIP3    H148104   0.932   1.335   0.246  0.0139  2.9613 -0.2882
 8871TIP3    H248105   0.878   1.376   0.382 -0.5909  1.3427 -0.0230
 8872TIP3   OH248106   4.941   3.596   3.965  0.6931 -0.1128 -0.0475
 8872TIP3    H148107   4.971   3.507   3.945  0.7840 -0.2707  0.7588
 8872TIP3    H248108   4.953   3.605   4.059 -2.1476 -0.3516  0.4491
 8873TIP3   OH248109   5.802   3.055   9.921  0.1964 -0.2492  0.4321
 8873TIP3    H148110   5.706   3.062   9.919  0.2232  0.0530  0.0952
 8873TIP3    H248111   5.819   2.973   9.968 -0.1778  0.6136  2.1508
 8874TIP3   OH248112   4.715   2.782  10.866  0.2038  0.0347  0.4742
 8874TIP3    H148113   4.637   2.797  10.920  2.1122  1.0464  3.1477
 8874TIP3    H248114   4.749   2.698  10.896  0.4705 -0.1433 -0.2975
 8875TIP3   OH248115   4.497   1.528   0.018 -0.3502 -0.4823  0.0451
 8875TIP3    H148116   4.458   1.570   0.094 -0.7403  0.6981 -0.7772
 8875TIP3    H248117   4.544   1.452   0.053  0.8650  0.9475  1.6562
 8876TIP3   OH248118   1.821   6.741   2.716 -0.2520  0.0537 -0.1886
 8876TIP3    H148119   1.882   6.725   2.644 -0.7319  0.4082 -0.6837
 8876TIP3    H248120   1.802   6.835   2.710 -0.3468  0.0739  0.3629
 8877TIP3   OH248121   2.585   3.829  16.477  0.7687  0.0033  0.5146
 8877TIP3    H148122   2.495   3.799  16.491 -0.3297  1.3823 -2.6057
 8877TIP3    H248123   2.621   3.770  16.410  0.8775  1.5084 -0.8244
 8878TIP3   OH248124   1.580   2.213   0.957  0.6292 -1.0067  0.0355
 8878TIP3    H148125   1.563   2.246   0.869 -1.2589  0.3907  0.8445
 8878TIP3    H248126   1.633   2.282   0.998 -0.3403 -0.5910  0.6316
 8879TIP3   OH248127   0.384   6.439   5.440  0.1690  0.0961  0.0735
 8879TIP3    H148128   0.401   6.522   5.484  0.2597 -0.0566  0.3366
 8879TIP3    H248129   0.313   6.457   5.379 -0.1227  0.2654  0.4546
 8880TIP3   OH248130   6.397   4.112   4.976 -0.2503 -0.4680  0.0579
 8880TIP3    H148131   6.412   4.176   4.906  0.6815 -0.9383 -0.1848
 8880TIP3    H248132   6.310   4.134   5.010  0.3817  1.5216  0.5805
 8881TIP3   OH248133   3.242   4.481   1.994 -0.0828 -0.4633  0.9016
 8881TIP3    H148134   3.317   4.452   2.046  0.1620 -0.7256  0.4117
 8881TIP3    H248135   3.279   4.500   1.908 -0.7612 -1.7405  0.3027
 8882TIP3   OH248136   0.313   5.369   1.361 -0.2418  0.5159 -0.1076
 8882TIP3    H148137   0.279   5.284   1.335 -2.0718  1.4058 -0.7904
 8882TIP3    H248138   0.254   5.399   1.430  2.1367 -0.0025  2.3027
 8883TIP3   OH248139   3.467   3.802   3.105  0.6730 -0.5232  0.7293
 8883TIP3    H148140   3.506   3.728   3.151  0.8008 -0.9120  0.0053
 8883TIP3    H248141   3.539   3.840   3.054  0.1055 -1.3672 -0.7775
 8884TIP3   OH248142   2.038   4.296  14.773  0.0188 -0.4312  0.0395
 8884TIP3    H148143   2.018   4.271  14.863  1.5054  1.0054  0.8174
 8884TIP3    H248144   2.060   4.213  14.729 -2.5912 -1.4057  0.4193
 8885TIP3   OH248145   0.984   0.824   1.342 -0.0734  0.4929 -0.3229
 8885TIP3    H148146   0.996   0.890   1.274  0.7272  1.5002  0.7537
 8885TIP3    H248147   1.024   0.862   1.420  3.4583 -2.5162 -0.3817
 8886TIP3   OH248148   3.835   0.089   4.298 -0.0282 -0.6673 -0.6715
 8886TIP3    H148149   3.930   0.078   4.291  0.2137 -1.7039  2.4710
 8886TIP3    H248150   3.799   0.005   4.271  0.3906 -2.0451  2.5459
 8887TIP3   OH248151   4.572   6.785   0.898  0.1197 -0.1152 -0.7726
 8887TIP3    H148152   4.622   6.776   0.817 -0.1813 -1.1379 -0.8593
 8887TIP3    H248153   4.578   6.700   0.940 -2.2589 -0.5852 -1.2225
 8888TIP3   OH248154   0.783   6.238   5.041  0.4324  0.4891 -0.0477
 8888TIP3    H148155   0.703   6.241   4.989 -0.3239 -1.0057  0.9330
 8888TIP3    H248156   0.852   6.219   4.978 -0.3987 -0.8038 -0.6249
 8889TIP3   OH248157   2.165   3.314   5.684  0.1752  0.3508 -0.2266
 8889TIP3    H148158   2.180   3.339   5.593 -0.5329  0.6358 -0.2704
 8889TIP3    H248159   2.126   3.391   5.724  0.8188  0.3494  0.4149
 8890TIP3   OH248160   3.133   0.265   0.243 -0.3127  0.5040 -0.4975
 8890TIP3    H148161   3.039   0.251   0.228 -0.3991 -1.1853  1.3048
 8890TIP3    H248162   3.172   0.178   0.236  0.7477  0.8091  1.0500
 8891TIP3   OH248163   4.773   2.320   5.207  0.1808  0.0171 -0.2608
 8891TIP3    H148164   4.725   2.402   5.202  0.5067  0.1525 -1.4218
 8891TIP3    H248165   4.708   2.256   5.237  0.2353  0.9031  1.9246
 8892TIP3   OH248166   1.968   1.530   0.607 -0.4302 -0.2338  0.3342
 8892TIP3    H148167   2.028   1.575   0.547  0.4286 -1.2115  0.4183
 8892TIP3    H248168   1.932   1.599   0.662 -0.4285  0.5493 -0.6244
 8893TIP3   OH248169   1.921   6.701  16.196  0.1140  0.3941 -0.5969
 8893TIP3    H148170   1.913   6.768  16.128 -1.0779 -0.1354 -1.0222
 8893TIP3    H248171   2.010   6.668  16.188  0.2982  1.0319 -1.2515
 8894TIP3   OH248172   1.195   4.544  16.146 -0.8764  0.1807  0.0045
 8894TIP3    H148173   1.116   4.590  16.118 -0.0977  1.0176 -0.9006
 8894TIP3    H248174   1.192   4.547  16.241 -1.1621  1.6070 -0.0227
 8895TIP3   OH248175   5.683   6.298  14.171 -0.1381  0.5427  0.5036
 8895TIP3    H148176   5.612   6.330  14.227  0.6383  0.1790  1.7242
 8895TIP3    H248177   5.721   6.225  14.220 -0.3805 -0.7726 -1.1787
 8896TIP3   OH248178   0.943   3.304  12.851 -0.1958 -0.6837 -0.3286
 8896TIP3    H148179   0.904   3.379  12.897  2.2611  1.3015 -1.2460
 8896TIP3    H248180   0.895   3.299  12.769 -1.6523 -1.4089  0.5247
 8897TIP3   OH248181   1.144   2.024  12.368 -0.5534  0.4125 -0.0510
 8897TIP3    H148182   1.214   1.976  12.411 -0.8758 -1.2618 -1.3004
 8897TIP3    H248183   1.079   2.038  12.437 -0.4942 -1.0575  0.3318
 8898TIP3   OH248184   4.151   2.193   2.153 -0.5675  0.1014 -0.0453
 8898TIP3    H148185   4.085   2.176   2.220 -1.5280  0.5977 -0.8502
 8898TIP3    H248186   4.200   2.268   2.187 -0.7517  0.0684  0.3052
 8899TIP3   OH248187   5.759   0.986  11.970  0.0548 -0.3364  0.1478
 8899TIP3    H148188   5.789   1.037  11.895  0.3878  0.7532  0.9856
 8899TIP3    H248189   5.691   0.928  11.935 -3.5683  3.6254 -0.2570
 8900TIP3   OH248190   4.096   3.063  13.934  0.3525  0.1292 -0.3485
 8900TIP3    H148191   4.007   3.028  13.940  0.2170  0.1143 -2.0795
 8900TIP3    H248192   4.133   3.047  14.021 -0.9061 -0.9935  0.0261
 8901TIP3   OH248193   2.790   4.678   2.941  0.0011 -0.7287 -0.1105
 8901TIP3    H148194   2.753   4.767   2.944 -1.6426 -1.3932  0.6155
 8901TIP3    H248195   2.884   4.692   2.950 -0.2206  0.9435  0.1006
 8902TIP3   OH248196   5.880   1.337   5.590 -0.0570  0.3292 -0.4866
 8902TIP3    H148197   5.845   1.274   5.652  0.9211  0.0834 -0.1709
 8902TIP3    H248198   5.962   1.299   5.559  1.3902  2.0917  0.8981
 8903TIP3   OH248199   4.747   3.385  10.231  0.1416  0.6899  0.0632
 8903TIP3    H148200   4.745   3.408  10.138  2.2172  0.8285  0.0156
 8903TIP3    H248201   4.786   3.298  10.234  0.9100  1.0484  0.8556
 8904TIP3   OH248202   2.444   6.305  11.478 -0.7713 -0.0692  0.4380
 8904TIP3    H148203   2.446   6.395  11.511 -0.8513 -0.0001  0.2585
 8904TIP3    H248204   2.405   6.313  11.391  0.4372 -0.1106 -0.1233
 8905TIP3   OH248205   2.303   2.772   0.173 -0.9711 -0.1774  0.5012
 8905TIP3    H148206   2.320   2.727   0.256 -1.9636 -0.6031  0.4927
 8905TIP3    H248207   2.342   2.715   0.107 -0.0588  0.2289  0.6679
 8906TIP3   OH248208   3.624   6.514  13.121  0.1187  0.0923  0.3139
 8906TIP3    H148209   3.645   6.606  13.111  0.1476  0.4268  2.7253
 8906TIP3    H248210   3.531   6.512  13.142 -0.4059 -0.6600 -1.8305
 8907TIP3   OH248211   1.353   6.272  11.287 -0.1004  0.7340  0.0588
 8907TIP3    H148212   1.340   6.266  11.193  1.6016 -2.4572 -0.1138
 8907TIP3    H248213   1.441   6.307  11.298  0.9028 -1.6119  0.2344
 8908TIP3   OH248214   2.625   4.583   2.581 -0.3348  0.0514  0.2687
 8908TIP3    H148215   2.573   4.530   2.520 -0.6558  0.2540  0.3623
 8908TIP3    H248216   2.714   4.580   2.546 -0.7798  1.4237 -1.0883
 8909TIP3   OH248217   5.200   0.809  12.800 -0.8125 -0.2265 -0.0189
 8909TIP3    H148218   5.109   0.825  12.826 -1.3123 -1.1964 -1.0639
 8909TIP3    H248219   5.244   0.780  12.880 -1.5994 -0.4104  0.3510
 8910TIP3   OH248220   5.681   3.967   1.409  0.4219  0.1978  0.2400
 8910TIP3    H148221   5.706   4.056   1.384  2.1578  0.2478  1.8987
 8910TIP3    H248222   5.715   3.957   1.498 -0.2787 -1.9318  0.3271
 8911TIP3   OH248223   6.552   0.697   5.416  0.8303  0.2700 -0.0440
 8911TIP3    H148224   6.483   0.720   5.354  1.9270 -0.4673 -1.6064
 8911TIP3    H248225   6.552   0.769   5.479 -0.6701  0.7912 -0.5785
 8912TIP3   OH248226   2.073   2.097  15.499  0.2689  0.2632  0.5443
 8912TIP3    H148227   2.145   2.124  15.441  1.4987 -0.4987  1.6636
 8912TIP3    H248228   2.008   2.167  15.489  0.7447  0.5270 -1.1796
 8913TIP3   OH248229   5.313   3.004  16.237 -0.0773  0.0674  0.2583
 8913TIP3    H148230   5.264   2.961  16.307  0.6392 -0.2328  0.5895
 8913TIP3    H248231   5.401   2.967  16.244  0.5658  1.5587  0.5291
 8914TIP3   OH248232   2.904   3.404  11.772  0.1868 -0.2653  0.6682
 8914TIP3    H148233   2.950   3.324  11.800  0.0403 -0.3847  0.5706
 8914TIP3    H248234   2.920   3.408  11.678 -0.8990 -0.8933  0.4438
 8915TIP3   OH248235   6.107   4.376  11.118  0.1474  0.1554  0.2292
 8915TIP3    H148236   6.096   4.450  11.178 -0.0029  0.7130 -0.4736
 8915TIP3    H248237   6.173   4.406  11.055 -0.7681  0.1549 -0.7582
 8916TIP3   OH248238   0.112   3.277  15.606 -0.2883 -0.6060 -0.0126
 8916TIP3    H148239   0.024   3.250  15.634 -0.6449  0.3425 -0.1946
 8916TIP3    H248240   0.118   3.249  15.515 -1.3448  1.4569 -0.7734
 8917TIP3   OH248241   5.268   1.429   4.424 -0.0930 -0.1052 -0.0075
 8917TIP3    H148242   5.306   1.514   4.402  0.0826 -0.4636 -1.2064
 8917TIP3    H248243   5.182   1.450   4.461  0.5681  0.6408  1.1446
 8918TIP3   OH248244   3.049   1.710   5.076  0.4723 -0.2561 -0.2063
 8918TIP3    H148245   3.100   1.770   5.131  0.0932  0.7312 -0.9132
 8918TIP3    H248246   2.959   1.741   5.085  0.4367  0.0830 -1.5836
 8919TIP3   OH248247   1.957   4.097  16.458 -0.0853 -0.0152 -0.2800
 8919TIP3    H148248   2.015   4.171  16.443 -0.3699  0.2115 -0.2714
 8919TIP3    H248249   1.892   4.102  16.388 -1.1098  0.7402  0.6950
 8920TIP3   OH248250   3.728   4.410   4.898 -0.2017  0.2332 -0.1492
 8920TIP3    H148251   3.651   4.368   4.859  0.3510 -1.7390  0.7955
 8920TIP3    H248252   3.803   4.367   4.856  0.3970  0.4568  0.6672
 8921TIP3   OH248253   5.515   0.036   5.620 -0.6168  0.3481 -0.4202
 8921TIP3    H148254   5.447  -0.013   5.574 -0.0528 -0.9078  0.0232
 8921TIP3    H248255   5.468   0.085   5.687 -1.2217  0.5703 -0.9986
 8922TIP3   OH248256   3.387   5.202  15.768 -0.3735 -0.2161  0.3408
 8922TIP3    H148257   3.389   5.266  15.840 -0.4891 -0.5410  0.6311
 8922TIP3    H248258   3.476   5.201  15.735 -0.3427  0.0103  0.4139
 8923TIP3   OH248259   0.416   5.253   2.459  0.3284  0.1181  0.3573
 8923TIP3    H148260   0.494   5.228   2.410  1.4684  0.4403  1.9465
 8923TIP3    H248261   0.343   5.232   2.400  1.5955 -0.1597 -1.1701
 8924TIP3   OH248262   2.303   0.639  12.443 -0.5682  0.0214 -0.0565
 8924TIP3    H148263   2.283   0.622  12.535 -0.7172 -2.2679 -0.4567
 8924TIP3    H248264   2.221   0.671  12.406 -0.7060  0.2644  0.4519
 8925TIP3   OH248265   4.054   2.694  10.909  0.2277 -0.1325 -0.0676
 8925TIP3    H148266   4.068   2.603  10.885 -1.3732 -1.1060  2.3222
 8925TIP3    H248267   3.998   2.729  10.839  0.0589 -1.2656 -0.5166
 8926TIP3   OH248268   2.823   5.975   3.974 -0.6486  0.4049  0.0451
 8926TIP3    H148269   2.875   6.045   3.935 -0.0546  0.1887  0.4433
 8926TIP3    H248270   2.771   6.018   4.042 -1.4262  0.7213 -0.7265
 8927TIP3   OH248271   3.837   3.198   2.442 -0.0208 -0.0507  0.5012
 8927TIP3    H148272   3.807   3.108   2.432 -0.2120 -0.0472  1.0111
 8927TIP3    H248273   3.907   3.193   2.507 -1.3543  0.4227  2.0398
 8928TIP3   OH248274   2.259   1.803   3.173  0.1083  0.0682 -0.2658
 8928TIP3    H148275   2.299   1.717   3.180 -1.4665 -0.7659 -0.9193
 8928TIP3    H248276   2.189   1.803   3.239 -0.3434  0.5799 -0.7297
 8929TIP3   OH248277   1.412   1.971  11.222 -0.1229  0.1052  0.4157
 8929TIP3    H148278   1.336   2.026  11.241 -0.1040 -0.1472  1.2288
 8929TIP3    H248279   1.383   1.914  11.151 -0.7380 -0.0880  0.8206
 8930TIP3   OH248280   2.836   6.278   0.239  1.0167  0.5923  0.2693
 8930TIP3    H148281   2.769   6.344   0.227 -0.3863 -0.9234 -0.7076
 8930TIP3    H248282   2.788   6.197   0.258  2.2598 -1.2047 -3.1823
 8931TIP3   OH248283   5.841   5.798   4.090 -0.7383 -0.1377  0.2147
 8931TIP3    H148284   5.829   5.754   4.006  1.8037 -0.7148  0.0701
 8931TIP3    H248285   5.805   5.886   4.076 -0.1501 -0.1364 -1.5947
 8932TIP3   OH248286   3.433   0.118  11.878  0.3702  0.6812 -0.2974
 8932TIP3    H148287   3.382   0.195  11.856 -0.1000 -0.0777 -1.9488
 8932TIP3    H248288   3.383   0.044  11.844  0.7170 -0.4040  1.4074
 8933TIP3   OH248289   5.459   5.816   4.662 -0.3527  0.6058  0.1094
 8933TIP3    H148290   5.510   5.737   4.644 -1.4903  0.3213 -2.3594
 8933TIP3    H248291   5.419   5.801   4.747  3.1498  0.6163  1.9294
 8934TIP3   OH248292   2.192   6.352   4.420  0.1195 -0.1240  0.4435
 8934TIP3    H148293   2.240   6.429   4.450 -0.3056  0.5970 -0.6929
 8934TIP3    H248294   2.107   6.385   4.392  0.0212 -0.9643 -0.2998
 8935TIP3   OH248295   6.621   0.880  14.748 -0.5060  0.1120 -0.5726
 8935TIP3    H148296   6.549   0.917  14.798 -0.2757  0.5498 -0.5625
 8935TIP3    H248297   6.670   0.827  14.811 -0.5868  0.1439 -0.4831
 8936TIP3   OH248298   2.901   6.455   3.276  0.1094  0.8638  0.6344
 8936TIP3    H148299   2.971   6.516   3.255  2.5400 -1.6245  0.8437
 8936TIP3    H248300   2.923   6.424   3.365 -0.0257 -1.4243 -0.0558
 8937TIP3   OH248301   1.868   5.220   5.358  0.1520  0.5348 -0.2512
 8937TIP3    H148302   1.954   5.229   5.400 -0.3307  0.5913  0.7707
 8937TIP3    H248303   1.886   5.176   5.275  1.0996  0.0442  0.1987
 8938TIP3   OH248304   2.744   6.408  14.369  0.4347 -0.3660  0.2859
 8938TIP3    H148305   2.694   6.463  14.308 -0.5880 -0.1183  1.3191
 8938TIP3    H248306   2.752   6.324  14.323  1.2267  0.3550 -0.9224
 8939TIP3   OH248307   3.445   4.347   7.911 -0.0359 -0.1084 -0.1354
 8939TIP3    H148308   3.437   4.336   7.816  1.5439 -1.3274 -0.1591
 8939TIP3    H248309   3.510   4.415   7.922 -1.8129  1.6526  0.1173
 8940TIP3   OH248310   4.397   4.145   5.484  0.1003  0.4289 -0.3021
 8940TIP3    H148311   4.383   4.203   5.410  1.6378 -1.0341 -1.8361
 8940TIP3    H248312   4.321   4.087   5.483 -1.3217  2.1622  1.0962
 8941TIP3   OH248313   2.154   4.263   4.116  0.3832  0.3183 -0.3739
 8941TIP3    H148314   2.075   4.218   4.086  1.9900 -0.5322 -3.9546
 8941TIP3    H248315   2.192   4.204   4.181 -0.3973 -0.7744 -0.8823
 8942TIP3   OH248316   2.176   5.818   1.092 -0.2543  0.2177  0.3672
 8942TIP3    H148317   2.208   5.729   1.080 -1.2690 -0.2078  0.6709
 8942TIP3    H248318   2.251   5.874   1.072  0.2721 -0.6872 -0.2713
 8943TIP3   OH248319   4.590   4.707  16.831 -0.1450 -0.5521 -0.4774
 8943TIP3    H148320   4.668   4.658  16.859  1.2356  0.1882 -2.7680
 8943TIP3    H248321   4.551   4.739  16.913  1.6872 -1.3313  0.7697
 8944TIP3   OH248322   4.452   2.569  15.181 -0.0391  0.3754  0.7702
 8944TIP3    H148323   4.383   2.579  15.247 -0.3639  1.6318  0.2703
 8944TIP3    H248324   4.533   2.588  15.229 -0.2849  1.4075  0.7892
 8945TIP3   OH248325   3.935   5.960   0.914  0.2805 -0.6112 -0.3338
 8945TIP3    H148326   3.870   6.022   0.878  1.1085  0.4956  0.0097
 8945TIP3    H248327   4.003   5.956   0.847  0.2125 -1.1913 -0.3678
 8946TIP3   OH248328   1.925   1.722   0.813  0.0267  0.3526 -0.4493
 8946TIP3    H148329   1.874   1.673   0.877 -0.4369  0.4127 -0.7710
 8946TIP3    H248330   2.016   1.714   0.844 -0.2427  0.8428  0.5104
 8947TIP3   OH248331   1.362   1.035   2.851  0.2035  0.3925  0.0138
 8947TIP3    H148332   1.398   1.086   2.923 -0.6373  2.3147 -0.8467
 8947TIP3    H248333   1.267   1.040   2.863  0.0006  1.6661 -1.7797
 8948TIP3   OH248334   6.392   2.030   3.609 -0.4181 -0.3890 -0.3483
 8948TIP3    H148335   6.441   2.113   3.604 -0.2438 -0.5273 -1.0979
 8948TIP3    H248336   6.302   2.057   3.622 -0.6633  0.0369 -2.4454
 8949TIP3   OH248337   6.103   0.933  11.995 -0.6123  0.0822 -0.4211
 8949TIP3    H148338   6.054   0.852  12.002  0.3311 -0.4438  0.4944
 8949TIP3    H248339   6.037   1.002  11.987 -1.4374 -0.7106 -0.4403
 8950TIP3   OH248340   2.202   1.460   5.970 -0.4630 -0.5683  0.2882
 8950TIP3    H148341   2.284   1.487   6.011  0.1516 -1.8641 -0.0344
 8950TIP3    H248342   2.220   1.463   5.876 -0.3787 -1.9651  0.2343
 8951TIP3   OH248343   4.391   5.544  14.004 -0.5995 -0.3416  0.6893
 8951TIP3    H148344   4.482   5.572  14.010 -0.4995 -0.5053 -0.0491
 8951TIP3    H248345   4.393   5.465  13.950 -0.9076 -1.6670  2.5214
 8952TIP3   OH248346   3.649   1.843   0.512  0.4377  0.4645 -0.5953
 8952TIP3    H148347   3.662   1.779   0.441 -1.4741  0.5433 -1.0782
 8952TIP3    H248348   3.735   1.884   0.524  1.8268 -2.3443 -0.0875
 8953TIP3   OH248349   5.319   5.908   3.594  0.0389 -0.3518  0.1664
 8953TIP3    H148350   5.294   5.818   3.571  0.5820 -0.6103  0.5695
 8953TIP3    H248351   5.411   5.915   3.568 -0.1234  0.2351 -0.2686
 8954TIP3   OH248352   3.005   1.452   3.888  0.1766  0.0328  0.3235
 8954TIP3    H148353   2.976   1.361   3.873  1.3032 -0.5068  1.2690
 8954TIP3    H248354   3.039   1.480   3.804 -0.4579 -0.3030 -0.0603
 8955TIP3   OH248355   4.215   3.756  11.020 -0.6907  0.3464  0.3663
 8955TIP3    H148356   4.138   3.764  10.964 -1.9297 -0.6023  1.8679
 8955TIP3    H248357   4.234   3.846  11.048 -0.9964  0.6276 -0.3026
 8956TIP3   OH248358   2.907   0.674  15.494  0.0801  0.3542  0.1732
 8956TIP3    H148359   2.895   0.729  15.571 -1.4162  2.2895 -1.3393
 8956TIP3    H248360   2.979   0.615  15.517 -1.4529 -0.3826  3.6695
 8957TIP3   OH248361   2.569   3.609   2.784  0.4987 -0.2083  0.3676
 8957TIP3    H148362   2.558   3.555   2.863 -0.3419  1.2453  1.2830
 8957TIP3    H248363   2.651   3.656   2.799  0.7888 -0.5746 -0.0402
 8958TIP3   OH248364   2.385   6.609   4.447  0.1442 -0.5144  0.2113
 8958TIP3    H148365   2.406   6.628   4.538 -0.3114  0.1960  0.1727
 8958TIP3    H248366   2.468   6.578   4.409  0.7964  0.9256  0.4078
 8959TIP3   OH248367   4.593   2.901   4.013 -0.1767 -0.5656 -0.4265
 8959TIP3    H148368   4.618   2.991   4.031 -0.4890 -0.3343 -1.1325
 8959TIP3    H248369   4.667   2.849   4.043  0.3301 -0.0207 -0.7255
 8960TIP3   OH248370   1.523   2.792   3.893 -0.8128  0.0891 -0.4034
 8960TIP3    H148371   1.498   2.721   3.951 -0.4077  0.0292 -0.2989
 8960TIP3    H248372   1.449   2.802   3.832 -1.4614  0.4866  0.4336
 8961TIP3   OH248373   4.390   2.580  12.877 -0.2801  0.0694  1.1306
 8961TIP3    H148374   4.456   2.650  12.876 -0.3914  0.1720  0.9131
 8961TIP3    H248375   4.307   2.626  12.890 -0.5640  0.1602 -0.6878
 8962TIP3   OH248376   5.919   3.968   3.227  0.0388 -0.5093 -0.1039
 8962TIP3    H148377   5.983   3.937   3.164  0.5704  0.0513  0.1511
 8962TIP3    H248378   5.958   4.047   3.265 -0.5434 -0.4856  0.4735
 8963TIP3   OH248379   4.101   1.255  12.256 -0.5950  0.4009  0.3524
 8963TIP3    H148380   4.147   1.286  12.334 -1.2997 -0.1757  1.0183
 8963TIP3    H248381   4.169   1.219  12.201  0.2431  2.8984 -0.3771
 8964TIP3   OH248382   6.826   2.587   4.435 -0.4810 -0.6377  0.5000
 8964TIP3    H148383   6.838   2.587   4.530  0.0350  0.1247  0.4454
 8964TIP3    H248384   6.915   2.578   4.400 -0.6560 -0.7690  0.0828
 8965TIP3   OH248385   0.998   6.782  17.107  0.2080  0.1708  0.1623
 8965TIP3    H148386   1.053   6.821  17.039 -0.1852  0.0692 -0.2178
 8965TIP3    H248387   1.051   6.711  17.143  1.1292  1.3575  1.2037
 8966TIP3   OH248388   5.574   3.394   4.334 -0.5213  0.3830 -0.1843
 8966TIP3    H148389   5.620   3.369   4.254 -0.2297  0.2884  0.0083
 8966TIP3    H248390   5.606   3.332   4.400 -3.4449 -1.9778 -0.7654
 8967TIP3   OH248391   4.026   6.755   1.868  0.1382  0.2548  0.1120
 8967TIP3    H148392   3.943   6.797   1.888  1.1185  2.4691 -0.1350
 8967TIP3    H248393   4.090   6.802   1.923  1.3084 -0.9917 -0.1312
 8968TIP3   OH248394   5.285   0.861   2.881 -0.3274  0.3321 -0.4933
 8968TIP3    H148395   5.221   0.932   2.876  1.2549  2.0803  2.0139
 8968TIP3    H248396   5.323   0.869   2.969 -0.1392 -3.7403 -0.0140
 8969TIP3   OH248397   2.027   3.867   2.972  0.6553 -0.1196 -0.2317
 8969TIP3    H148398   1.952   3.810   2.988 -0.9439  2.0830  0.4518
 8969TIP3    H248399   2.094   3.836   3.033 -0.7313 -0.2869  1.2793
 8970TIP3   OH248400   6.293   5.341   0.300  0.2700  0.3065  0.0987
 8970TIP3    H148401   6.203   5.372   0.314  0.8409  1.0649  2.7498
 8970TIP3    H248402   6.308   5.279   0.372  2.0900  0.7784  0.1695
 8971TIP3   OH248403   0.067   2.662   3.968  0.0416 -0.0328  0.8231
 8971TIP3    H148404   0.150   2.631   3.931 -0.0929  0.1773  0.3405
 8971TIP3    H248405   0.020   2.582   3.993  2.0054 -0.1853  4.8371
 8972TIP3   OH248406   5.777   6.131   4.685 -0.1396 -0.0950 -0.3314
 8972TIP3    H148407   5.745   6.216   4.717 -0.5186 -0.4929  0.3518
 8972TIP3    H248408   5.760   6.070   4.756  1.3724 -0.4875 -0.2633
 8973TIP3   OH248409   3.165   4.026  13.636  0.7399  0.0811 -0.7670
 8973TIP3    H148410   3.230   3.959  13.658 -0.3075 -0.1691  1.9263
 8973TIP3    H248411   3.209   4.109  13.656  1.0726  0.0494 -1.3604
 8974TIP3   OH248412   0.909   3.510  13.378 -0.4700 -0.0324 -0.4495
 8974TIP3    H148413   0.931   3.472  13.463 -0.0951  1.2137  0.0295
 8974TIP3    H248414   0.819   3.540  13.387  0.4287  2.6973  0.5384
 8975TIP3   OH248415   4.796   1.521   0.102  0.7088  0.2584  0.4460
 8975TIP3    H148416   4.880   1.506   0.059  1.0692 -0.3572  1.3160
 8975TIP3    H248417   4.812   1.497   0.194 -0.2867  0.5941  0.7183
 8976TIP3   OH248418   3.455   0.551  10.963  0.3741  0.1608 -0.3215
 8976TIP3    H148419   3.407   0.478  10.924  0.3011 -0.3180  0.6478
 8976TIP3    H248420   3.450   0.536  11.057  1.1019  0.9485 -0.1443
 8977TIP3   OH248421   3.421   3.963  16.717  0.0432 -0.2415 -0.2246
 8977TIP3    H148422   3.339   4.000  16.682 -0.6684 -1.0341  0.5396
 8977TIP3    H248423   3.396   3.927  16.802  1.2833 -0.1895  0.1825
 8978TIP3   OH248424   4.597   4.767   6.711  0.1615 -0.2591  0.4907
 8978TIP3    H148425   4.510   4.802   6.730 -0.8639 -1.8696 -0.9181
 8978TIP3    H248426   4.599   4.681   6.753 -0.1850 -1.5982 -2.0211
 8979TIP3   OH248427   3.919   4.291   2.976  0.0308  0.2453  0.0571
 8979TIP3    H148428   3.896   4.265   3.066  1.1453 -1.5408 -0.1296
 8979TIP3    H248429   3.858   4.242   2.921  0.1034  0.4557 -0.2071
 8980TIP3   OH248430   6.260   3.850  11.907  0.1123 -0.0199  0.4167
 8980TIP3    H148431   6.263   3.766  11.952  1.2152  0.7094  1.7951
 8980TIP3    H248432   6.184   3.895  11.944 -0.1202 -0.1624  0.1191
 8981TIP3   OH248433   2.500   0.477  12.387 -0.0643 -0.2048 -0.6425
 8981TIP3    H148434   2.432   0.532  12.426 -0.8221 -1.7456  0.3076
 8981TIP3    H248435   2.475   0.470  12.295 -0.1905  0.6669 -0.6830
 8982TIP3   OH248436   0.646   4.831  13.312  0.1764  0.1697 -0.7995
 8982TIP3    H148437   0.615   4.769  13.246 -2.1132  1.8022 -1.3822
 8982TIP3    H248438   0.670   4.909  13.263  0.6582  0.6066  0.1087
 8983TIP3   OH248439   3.800   5.043  11.703 -0.4899  0.0121  0.4429
 8983TIP3    H148440   3.706   5.053  11.723 -0.5652 -1.1024  0.7082
 8983TIP3    H248441   3.804   4.968  11.644  0.1985  0.3784  0.0149
 8984TIP3   OH248442   6.527   2.769   2.526 -0.1966  0.0466  0.0554
 8984TIP3    H148443   6.566   2.771   2.438 -0.5100 -0.7262 -0.1080
 8984TIP3    H248444   6.438   2.802   2.514 -0.2276 -0.0246  0.0870
 8985TIP3   OH248445   1.919   3.281  15.217 -0.1822  0.1188 -0.3562
 8985TIP3    H148446   1.883   3.274  15.128 -1.6688 -1.2928  0.3088
 8985TIP3    H248447   1.878   3.359  15.253 -0.4705  0.0504 -0.5308
 8986TIP3   OH248448   5.870   3.269  14.368 -0.3980 -0.3099 -0.2897
 8986TIP3    H148449   5.872   3.324  14.290  1.3721 -3.5819 -2.8334
 8986TIP3    H248450   5.797   3.208  14.352  2.0007 -3.1664 -1.2362
 8987TIP3   OH248451   6.205   4.625  11.276 -0.0000  0.0967 -0.5041
 8987TIP3    H148452   6.298   4.634  11.295 -0.3834 -1.6025  2.8069
 8987TIP3    H248453   6.166   4.599  11.359 -3.3383 -0.0891 -1.9891
 8988TIP3   OH248454   2.412   1.358   0.898 -0.1040 -0.6995 -0.1739
 8988TIP3    H148455   2.442   1.309   0.975 -0.2479  0.2969  0.5444
 8988TIP3    H248456   2.488   1.412   0.873 -0.0664 -1.0017 -0.7257
 8989TIP3   OH248457   3.277   5.203  16.243  0.4589  0.0806  0.2131
 8989TIP3    H148458   3.250   5.202  16.335  1.0290  0.2081  0.3854
 8989TIP3    H248459   3.241   5.284  16.209 -0.4240 -0.3407  0.1134
 8990TIP3   OH248460   1.969   4.054   1.000  0.3593  0.4722 -0.2733
 8990TIP3    H148461   1.911   4.001   1.055  1.2214  1.7971  2.0869
 8990TIP3    H248462   2.056   4.020   1.019  0.5843  0.0680 -1.9411
 8991TIP3   OH248463   2.271   0.656  14.629 -0.2566  0.7911  0.1756
 8991TIP3    H148464   2.360   0.630  14.651 -0.4421  0.4419  0.5400
 8991TIP3    H248465   2.258   0.627  14.539 -0.6476 -0.9336  0.7377
 8992TIP3   OH248466   3.228   3.592   1.605  0.3226 -0.3082 -0.0433
 8992TIP3    H148467   3.282   3.547   1.540  0.1933  1.1260 -1.1962
 8992TIP3    H248468   3.140   3.559   1.589  0.3144 -0.0673 -0.5029
 8993TIP3   OH248469   5.314   4.390  10.815 -0.0852 -0.1349 -0.3137
 8993TIP3    H148470   5.399   4.364  10.777  1.0422  1.1156  1.2064
 8993TIP3    H248471   5.313   4.485  10.806 -0.7361 -0.0276  0.8723
 8994TIP3   OH248472   5.761   1.784   1.872  0.8872  0.2723  0.2715
 8994TIP3    H148473   5.724   1.747   1.952 -0.4010 -1.7145 -1.1434
 8994TIP3    H248474   5.849   1.748   1.867  0.1850 -1.4838 -0.2901
 8995TIP3   OH248475   0.324   4.022  15.092  0.8102 -0.0005 -0.3461
 8995TIP3    H148476   0.317   4.087  15.162  0.3910 -1.3469  0.9180
 8995TIP3    H248477   0.416   4.025  15.065  1.2231 -0.1504  0.9730
 8996TIP3   OH248478   6.150   0.380   3.845  0.7673  0.0773 -0.1100
 8996TIP3    H148479   6.191   0.466   3.858  0.7649  0.3824 -1.8594
 8996TIP3    H248480   6.154   0.338   3.931  3.3715  0.6831  0.1467
 8997TIP3   OH248481   2.176   4.069   4.304  0.1008  0.1495 -0.2603
 8997TIP3    H148482   2.107   4.005   4.292  0.8804 -0.7675  0.0093
 8997TIP3    H248483   2.196   4.067   4.397  2.1978 -1.4810 -0.6609
 8998TIP3   OH248484   5.232   2.429  11.532 -0.6714 -0.6826  0.5599
 8998TIP3    H148485   5.173   2.354  11.528 -0.3908 -0.8611 -0.6074
 8998TIP3    H248486   5.212   2.471  11.616 -1.6377 -1.3953  0.7036
 8999TIP3   OH248487   2.495   0.443  14.609  0.0915 -0.1714 -0.2119
 8999TIP3    H148488   2.517   0.429  14.517 -0.9867  1.0279 -0.6790
 8999TIP3    H248489   2.579   0.465  14.650  0.1795  2.5608 -1.6010
 9000TIP3   OH248490   6.394   6.739   5.771  0.4579  0.2010  0.3730
 9000TIP3    H148491   6.329   6.670   5.753  1.1769 -0.3230 -0.3018
 9000TIP3    H248492   6.455   6.699   5.833  0.9867  0.1486 -0.1682
 9001TIP3   OH248493   6.653   6.343   2.329 -0.8136 -0.1009  0.0155
 9001TIP3    H148494   6.661   6.397   2.251 -1.8022  0.4241  0.2540
 9001TIP3    H248495   6.644   6.407   2.401  3.8459 -0.3901  1.1608
 9002TIP3   OH248496   1.902   1.377  15.902 -0.1881  0.3966  0.4392
 9002TIP3    H148497   1.982   1.429  15.901 -0.4049  0.7330 -0.1552
 9002TIP3    H248498   1.832   1.440  15.920 -0.3357  0.1280  0.8139
 9003TIP3   OH248499   2.109   4.053  12.494  0.0898 -0.3724 -0.2370
 9003TIP3    H148500   2.082   4.097  12.575 -0.5068 -0.7875 -0.2048
 9003TIP3    H248501   2.028   4.043  12.444  0.2894 -1.0282 -0.4394
 9004TIP3   OH248502   4.209   4.482  15.300  0.1285 -0.2909 -0.1322
 9004TIP3    H148503   4.168   4.532  15.371  3.0585  0.5598  1.1150
 9004TIP3    H248504   4.233   4.399  15.340 -0.7461 -0.9750 -0.9808
 9005TIP3   OH248505   6.045   3.244   3.471  0.1163  0.1303 -0.3181
 9005TIP3    H148506   6.040   3.329   3.427  1.4352 -0.1186 -1.0051
 9005TIP3    H248507   5.972   3.245   3.533 -0.3970  1.4209 -0.8998
 9006TIP3   OH248508   6.543   1.712   5.168 -0.1237  0.0535 -0.0874
 9006TIP3    H148509   6.482   1.640   5.183 -0.3277 -0.8479 -4.1073
 9006TIP3    H248510   6.486   1.787   5.150  0.0306  0.2811  0.3656
 9007TIP3   OH248511   0.146   0.408  15.537  0.1492  0.4255  0.8600
 9007TIP3    H148512   0.088   0.431  15.463  2.3973 -1.2135 -1.5784
 9007TIP3    H248513   0.178   0.493  15.568 -0.2279  1.1568 -0.6221
 9008TIP3   OH248514   3.227   2.804  14.145  0.6192 -0.1195  0.2047
 9008TIP3    H148515   3.263   2.835  14.062 -0.4822 -0.2777 -0.3496
 9008TIP3    H248516   3.220   2.709  14.134 -0.3130 -0.0524  0.1533
 9009TIP3   OH248517   1.192   2.960  13.884  0.1812 -0.5597  0.1800
 9009TIP3    H148518   1.207   3.006  13.802 -1.2315  1.4421  0.9362
 9009TIP3    H248519   1.102   2.927  13.877 -0.7453  1.4032  1.5822
 9010TIP3   OH248520   5.491   6.780  14.361  0.7465 -0.7835 -0.0433
 9010TIP3    H148521   5.490   6.807  14.269 -1.4474 -0.7041 -0.0566
 9010TIP3    H248522   5.405   6.805  14.394  0.5495 -3.0097  1.3599
 9011TIP3   OH248523   0.179   5.404  11.021  0.3281 -0.5476 -0.0524
 9011TIP3    H148524   0.270   5.398  10.993  0.2997  0.5588 -0.4352
 9011TIP3    H248525   0.153   5.314  11.041  2.2341 -0.6584  2.4000
 9012TIP3   OH248526   2.841   6.738   5.357  0.0463  0.1875 -0.1643
 9012TIP3    H148527   2.824   6.666   5.296  0.3617 -0.4937  0.5264
 9012TIP3    H248528   2.929   6.768   5.337 -0.2708  0.7270 -0.7848
 9013TIP3   OH248529   0.567   3.031  12.303  0.3194  0.1333 -0.1115
 9013TIP3    H148530   0.570   3.080  12.385  0.8004 -1.7846  1.0920
 9013TIP3    H248531   0.503   3.078  12.249 -0.3126  1.2277  1.5116
 9014TIP3   OH248532   2.284   2.575  14.689 -0.2487  0.1054  0.1785
 9014TIP3    H148533   2.307   2.668  14.682 -2.1811  0.5467 -0.9375
 9014TIP3    H248534   2.361   2.529  14.654  0.4607  1.3073  0.0975
 9015TIP3   OH248535   5.105   2.536   0.484 -0.2144 -0.4672 -0.1108
 9015TIP3    H148536   5.168   2.527   0.413 -0.3154  1.5919 -0.5425
 9015TIP3    H248537   5.055   2.455   0.483  0.6666 -1.0254 -1.5072
 9016TIP3   OH248538   3.362   6.834  16.736 -0.1933  0.0312  0.1669
 9016TIP3    H148539   3.447   6.869  16.763 -0.0119 -0.2681 -0.0126
 9016TIP3    H248540   3.351   6.864  16.646  1.3246 -2.7800 -1.0812
 9017TIP3   OH248541   2.389   2.071  15.832  0.5106 -0.4164  0.1379
 9017TIP3    H148542   2.410   2.154  15.791 -1.8710 -0.1858 -0.7747
 9017TIP3    H248543   2.343   2.021  15.765  1.0393 -2.1017  0.9618
 9018TIP3   OH248544   5.161   6.382  11.834 -0.1353 -0.0403 -0.6556
 9018TIP3    H148545   5.082   6.430  11.858 -0.7065 -1.4687  0.4344
 9018TIP3    H248546   5.207   6.441  11.774 -0.2829  2.3041  1.4008
 9019TIP3   OH248547   4.143   0.061  10.426  0.1867 -0.0924 -0.5763
 9019TIP3    H148548   4.074   0.009  10.468  1.2958 -0.1971  1.1981
 9019TIP3    H248549   4.218   0.054  10.485  2.0265 -0.6469 -2.8246
 9020TIP3   OH248550   2.337   4.554   4.217  0.4339 -0.2126 -0.3941
 9020TIP3    H148551   2.366   4.474   4.262 -0.3747 -0.3057  0.0015
 9020TIP3    H248552   2.318   4.615   4.288 -2.6743 -0.9793 -0.4046
 9021TIP3   OH248553   5.866   4.297   4.942  0.1784  0.4534  0.3658
 9021TIP3    H148554   5.920   4.329   4.870 -2.5047  2.6678 -0.8377
 9021TIP3    H248555   5.899   4.343   5.019  0.0908  1.7467 -0.3339
 9022TIP3   OH248556   2.114   3.053  11.739  0.1822 -1.2587 -0.4108
 9022TIP3    H148557   2.112   2.966  11.779  3.0945 -1.6033 -0.7600
 9022TIP3    H248558   2.181   3.045  11.671  0.1039  1.1212 -0.8296
 9023TIP3   OH248559   6.123   5.982  11.543  0.9781  0.4070  0.0504
 9023TIP3    H148560   6.073   5.982  11.461  0.4321 -2.3984  0.2843
 9023TIP3    H248561   6.189   5.914  11.530 -0.4459 -1.6397  2.6236
 9024TIP3   OH248562   2.883   2.870   2.367 -0.0462 -0.1557 -0.3746
 9024TIP3    H148563   2.865   2.927   2.293 -2.8053 -0.0786  0.2732
 9024TIP3    H248564   2.973   2.892   2.392  0.9017 -0.0176 -3.4542
 9025TIP3   OH248565   3.714   5.066   0.839 -0.3413 -0.1480 -0.0258
 9025TIP3    H148566   3.699   5.067   0.933  0.2775  1.7256  0.0801
 9025TIP3    H248567   3.759   5.148   0.820  2.4691 -1.8558 -1.4964
 9026TIP3   OH248568   6.706   1.972  14.221  0.4911  0.1421 -0.6393
 9026TIP3    H148569   6.688   2.010  14.307 -0.9225  1.7379 -1.5934
 9026TIP3    H248570   6.774   2.028  14.184 -1.1963  1.5167 -1.8186
 9027TIP3   OH248571   4.401   5.637   5.091  0.2427  0.1939  0.3265
 9027TIP3    H148572   4.328   5.591   5.051  0.2337  0.1033  0.4478
 9027TIP3    H248573   4.375   5.729   5.090 -1.0340 -0.0637  2.7549
 9028TIP3   OH248574   1.135   1.669  14.990  0.2321 -0.5924  0.0074
 9028TIP3    H148575   1.088   1.711  15.062 -0.1435  1.6155 -1.4450
 9028TIP3    H248576   1.071   1.661  14.920  0.5055 -3.0201 -0.0728
 9029TIP3   OH248577   2.441   6.684   2.627 -0.1826 -0.0811 -0.4006
 9029TIP3    H148578   2.406   6.660   2.541  1.5285 -0.9402 -0.9103
 9029TIP3    H248579   2.430   6.605   2.680 -0.3709  0.1419 -0.1020
 9030TIP3   OH248580   6.198   1.738   2.682 -0.0373  0.3165 -0.5511
 9030TIP3    H148581   6.114   1.731   2.728 -1.6504  1.3275 -3.1463
 9030TIP3    H248582   6.194   1.672   2.614  0.1506  1.9817 -2.2558
 9031TIP3   OH248583   2.627   5.094  13.930  0.2028  0.0770 -0.3607
 9031TIP3    H148584   2.539   5.065  13.907 -0.9689  1.5022  2.0114
 9031TIP3    H248585   2.685   5.032  13.885 -2.0212 -2.6654  0.2816
 9032TIP3   OH248586   0.646   3.614  14.315 -0.3865  0.8661 -0.3478
 9032TIP3    H148587   0.677   3.604  14.226 -0.8616  2.2700 -0.6954
 9032TIP3    H248588   0.551   3.603  14.309 -0.6649  2.8966 -0.3819
 9033TIP3   OH248589   3.987   0.528   5.728  0.2065 -0.4688 -0.3830
 9033TIP3    H148590   3.966   0.441   5.763 -1.8384 -1.2398 -3.2277
 9033TIP3    H248591   4.063   0.513   5.671  0.1008 -0.3039 -0.5674
 9034TIP3   OH248592   2.973   4.989   0.601 -0.0324  0.0320  0.2952
 9034TIP3    H148593   2.890   5.017   0.641 -2.0372 -2.0388 -2.0789
 9034TIP3    H248594   3.011   5.070   0.565 -2.2459  0.7583 -0.5982
 9035TIP3   OH248595   1.897   0.327  13.787  0.0123 -0.5287 -0.3417
 9035TIP3    H148596   1.880   0.401  13.846  0.6890 -0.6174 -0.0380
 9035TIP3    H248597   1.986   0.340  13.757  0.0253 -1.0522 -0.5363
 9036TIP3   OH248598   3.719   2.206  15.891 -0.4568 -0.0721 -0.0861
 9036TIP3    H148599   3.631   2.243  15.905  0.0055  0.6767  0.9368
 9036TIP3    H248600   3.775   2.282  15.875  0.0950 -0.5061 -0.2447
 9037TIP3   OH248601   4.091   1.061   3.407 -0.0319  0.1142  0.0152
 9037TIP3    H148602   4.163   1.121   3.422  0.0237  0.5347 -1.7256
 9037TIP3    H248603   4.132   0.975   3.399 -0.0776 -0.1559  2.1539
 9038TIP3   OH248604   0.536   0.863  13.169  0.0411 -0.3108 -0.6455
 9038TIP3    H148605   0.481   0.860  13.091  0.3386 -2.2229 -0.8334
 9038TIP3    H248606   0.482   0.907  13.235 -0.8043 -0.0718 -1.4806
 9039TIP3   OH248607   2.808   5.970   1.086 -0.3432  0.5582 -0.5945
 9039TIP3    H148608   2.872   5.976   1.157  0.3331  0.4469 -1.1791
 9039TIP3    H248609   2.823   5.883   1.048 -0.1203  0.9440 -1.3989
 9040TIP3   OH248610   3.421   5.140  12.142  0.2442 -0.2141  0.1332
 9040TIP3    H148611   3.422   5.092  12.225 -0.2945  0.5699  0.6117
 9040TIP3    H248612   3.343   5.195  12.147 -0.1864 -0.6820 -1.2099
 9041TIP3   OH248613   4.394   4.104   0.389 -0.3377  0.2613 -0.6182
 9041TIP3    H148614   4.300   4.097   0.407 -0.1423  0.8481  0.7853
 9041TIP3    H248615   4.413   4.029   0.333 -1.5265 -0.2350 -0.3946
 9042TIP3   OH248616   4.728   4.740   0.146  0.5932  0.2690 -0.0054
 9042TIP3    H148617   4.724   4.704   0.235  1.0627  0.1470 -0.0288
 9042TIP3    H248618   4.776   4.822   0.155  0.8700  0.1285 -0.1828
 9043TIP3   OH248619   2.754   5.552   3.675  0.3246  0.1785 -0.4040
 9043TIP3    H148620   2.730   5.568   3.767  0.2177  1.3335 -0.6180
 9043TIP3    H248621   2.801   5.469   3.677 -0.2450 -0.1452  0.6013
 9044TIP3   OH248622   1.556   5.890   3.043  0.1708  0.3817 -0.2540
 9044TIP3    H148623   1.535   5.833   3.117  0.4429 -1.2023 -1.3419
 9044TIP3    H248624   1.632   5.849   3.002  0.0681  1.2544 -1.3616
 9045TIP3   OH248625   5.097   4.230  16.566 -0.3505  0.3121 -0.3636
 9045TIP3    H148626   5.041   4.227  16.643 -0.0388  1.3084 -0.0909
 9045TIP3    H248627   5.045   4.275  16.499 -0.6422 -0.5981 -0.7746
 9046TIP3   OH248628   3.767   5.499  13.641  0.0804  0.5309  0.0256
 9046TIP3    H148629   3.792   5.467  13.555 -0.1448  0.5916 -0.0640
 9046TIP3    H248630   3.845   5.543  13.674  0.5151 -0.4158  0.3034
 9047TIP3   OH248631   1.103   1.791   5.111 -0.3158  0.0134 -0.5232
 9047TIP3    H148632   1.015   1.783   5.147 -0.3512 -0.6976 -0.7527
 9047TIP3    H248633   1.089   1.803   5.017 -0.1701  0.1544 -0.5280
 9048TIP3   OH248634   5.018   6.250  13.402 -0.3061 -0.2292  0.2301
 9048TIP3    H148635   4.996   6.323  13.460 -0.3345 -0.9193  1.1207
 9048TIP3    H248636   4.935   6.205  13.387 -0.4788  0.5094 -1.1840
 9049TIP3   OH248637   3.882   5.056  12.010  0.3836 -0.6009  0.3365
 9049TIP3    H148638   3.874   5.049  11.915  2.2660  1.6654 -0.0904
 9049TIP3    H248639   3.970   5.023  12.029 -0.6613 -2.9034  1.6371
 9050TIP3   OH248640   6.291   3.545  13.218 -0.0079  0.1692  0.6437
 9050TIP3    H148641   6.265   3.471  13.273 -1.0475 -0.2219 -0.3170
 9050TIP3    H248642   6.209   3.594  13.204  0.1126 -0.0112 -0.9093
 9051TIP3   OH248643   4.537   5.204  11.354 -0.4523 -0.4125 -0.2354
 9051TIP3    H148644   4.496   5.286  11.327 -1.9180 -0.3514  1.9568
 9051TIP3    H248645   4.467   5.155  11.397  1.0283 -1.6913  0.8417
 9052TIP3   OH248646   5.485   3.794   4.696 -0.4078  0.1908 -0.0350
 9052TIP3    H148647   5.433   3.869   4.669 -0.1342 -0.0134 -1.1556
 9052TIP3    H248648   5.446   3.767   4.779 -1.6084  0.4885 -0.4845
 9053TIP3   OH248649   0.149   0.253  16.725 -0.2532 -0.2982 -0.3229
 9053TIP3    H148650   0.217   0.190  16.703 -1.4345 -1.1710 -1.6143
 9053TIP3    H248651   0.197   0.327  16.764  1.3057 -1.2951 -0.2470
 9054TIP3   OH248652   0.300   1.511  15.909 -0.5859 -0.0237  0.2026
 9054TIP3    H148653   0.391   1.535  15.891 -0.3971 -1.5156 -0.9703
 9054TIP3    H248654   0.304   1.457  15.987 -0.5444  0.3298  0.4503
 9055TIP3   OH248655   4.704   4.235  12.548  0.2883 -0.2070  0.2812
 9055TIP3    H148656   4.766   4.308  12.553 -0.9533  0.9284 -0.1496
 9055TIP3    H248657   4.631   4.270  12.496  0.0284 -2.0439 -0.6463
 9056TIP3   OH248658   6.631   1.325  15.336 -0.2106 -0.0002 -0.0358
 9056TIP3    H148659   6.567   1.254  15.339 -0.1658 -0.0287  0.2995
 9056TIP3    H248660   6.673   1.324  15.422  1.5994 -1.2135 -0.8693
 9057TIP3   OH248661   4.719   4.407   2.250  0.4013  0.1919 -0.0932
 9057TIP3    H148662   4.710   4.460   2.170  0.2220 -0.4160 -0.4841
 9057TIP3    H248663   4.781   4.456   2.304  1.7379 -0.1555 -1.2615
 9058TIP3   OH248664   2.665   4.003   3.374  0.6837 -0.0306  0.4129
 9058TIP3    H148665   2.718   3.935   3.332 -0.3034 -1.1963  0.9953
 9058TIP3    H248666   2.583   4.003   3.326  0.0163 -0.4970  1.5091
 9059TIP3   OH248667   4.644   6.410  14.981 -0.2749  0.6040 -0.4670
 9059TIP3    H148668   4.614   6.470  15.049 -1.7994 -0.0330 -0.5388
 9059TIP3    H248669   4.566   6.360  14.957  0.8909 -1.2494 -0.5718
 9060TIP3   OH248670   3.904   2.532  15.394  0.5098  0.0180  0.2492
 9060TIP3    H148671   3.969   2.577  15.448 -0.4998  3.2702 -1.0201
 9060TIP3    H248672   3.927   2.555  15.304 -2.1404  1.0923 -0.2578
 9061TIP3   OH248673   0.322   5.693  16.498  0.3473 -0.4156  0.3357
 9061TIP3    H148674   0.300   5.692  16.404  0.0772  1.7474  0.3413
 9061TIP3    H248675   0.240   5.714  16.542  0.5829 -0.9238  1.0359
 9062TIP3   OH248676   0.196   1.308  15.547 -0.0978  0.1765 -0.0139
 9062TIP3    H148677   0.148   1.387  15.574 -2.9324 -1.2356 -0.5666
 9062TIP3    H248678   0.217   1.323  15.455  1.8745  1.3646  0.5631
 9063TIP3   OH248679   3.954   4.756   1.082 -0.0970  0.1051  0.6277
 9063TIP3    H148680   3.942   4.662   1.094  0.7312 -0.2861 -1.2816
 9063TIP3    H248681   3.876   4.784   1.033  0.2803  0.1527  0.0509
 9064TIP3   OH248682   0.737   0.598   2.929 -0.7256 -0.0353  0.7658
 9064TIP3    H148683   0.751   0.504   2.927 -0.4655 -0.0216  1.5836
 9064TIP3    H248684   0.697   0.615   3.014 -1.8423  0.4598  0.1690
 9065TIP3   OH248685   5.764   4.248   0.977  0.4731 -0.1413  0.6125
 9065TIP3    H148686   5.844   4.206   1.008  0.2907 -1.1291 -0.2185
 9065TIP3    H248687   5.708   4.176   0.949 -0.6887  0.5412  1.1242
 9066TIP3   OH248688   1.402   1.791  15.480 -0.4629  0.0945  0.4758
 9066TIP3    H148689   1.400   1.695  15.485  1.5744  0.0145  0.6542
 9066TIP3    H248690   1.490   1.811  15.451 -0.9655  1.9303  0.1306
 9067TIP3   OH248691   2.493   1.344   3.346  0.5487 -0.4101  0.0330
 9067TIP3    H148692   2.509   1.282   3.417 -0.8643  1.5647  2.2382
 9067TIP3    H248693   2.548   1.314   3.274  0.4244 -3.7906  1.1907
 9068TIP3   OH248694   0.142   5.342   2.618 -0.1460  0.4911  0.3278
 9068TIP3    H148695   0.169   5.424   2.576  0.3080  0.6815  0.9790
 9068TIP3    H248696   0.209   5.279   2.590 -0.1909  0.4724  0.2636
 9069TIP3   OH248697   5.169   0.202   5.030  0.3132 -0.4224  0.3946
 9069TIP3    H148698   5.180   0.262   4.956  0.5053 -3.4293 -2.2379
 9069TIP3    H248699   5.252   0.206   5.077  0.8381  0.3312 -0.5676
 9070TIP3   OH248700   3.959   4.250  15.288  0.1459  0.4516  0.2446
 9070TIP3    H148701   3.928   4.312  15.355  1.4435  1.9959 -0.4940
 9070TIP3    H248702   4.025   4.300  15.239 -0.6525 -0.6697 -2.1036
 9071TIP3   OH248703   4.246   3.249   3.095  0.5506  0.3618  0.4040
 9071TIP3    H148704   4.294   3.175   3.134 -0.4912  0.3455  1.7483
 9071TIP3    H248705   4.155   3.220   3.095  0.4467  0.5176 -1.8110
 9072TIP3   OH248706   4.964   1.940  16.030  0.0264 -0.0537  0.6672
 9072TIP3    H148707   4.993   1.850  16.046  1.7324  0.5121  0.9195
 9072TIP3    H248708   4.902   1.932  15.957 -0.9854 -1.5839  1.6346
 9073TIP3   OH248709   1.286   4.482   0.555  0.5526 -0.0187 -0.7144
 9073TIP3    H148710   1.296   4.388   0.568  1.5439  0.3077  1.4899
 9073TIP3    H248711   1.236   4.512   0.631  1.8918  1.4499 -0.3392
 9074TIP3   OH248712   4.282   3.208  13.678 -0.0452  0.0599  0.2363
 9074TIP3    H148713   4.199   3.190  13.722 -0.7161  0.2717 -0.9068
 9074TIP3    H248714   4.311   3.123  13.646  0.0656  0.0279  0.4150
 9075TIP3   OH248715   4.690   5.292   4.360  0.1436  0.0089 -0.0518
 9075TIP3    H148716   4.628   5.352   4.402  0.3544  0.4504 -0.3596
 9075TIP3    H248717   4.662   5.205   4.388  0.0990  0.2774  0.7599
 9076TIP3   OH248718   0.779   3.000   3.157  0.1992  0.5996 -0.0584
 9076TIP3    H148719   0.744   3.025   3.071 -2.2070 -1.1800  0.3041
 9076TIP3    H248720   0.821   2.916   3.142 -0.1155  0.3440  0.4628
 9077TIP3   OH248721   0.061   3.607  14.166  0.1567 -0.4323 -0.4793
 9077TIP3    H148722   0.031   3.605  14.257 -1.3642  0.7097 -0.9315
 9077TIP3    H248723   0.115   3.528  14.158  0.1980 -0.6453  1.3529
 9078TIP3   OH248724   1.389   0.203   0.224  0.2478  0.0820  0.5600
 9078TIP3    H148725   1.430   0.154   0.152  0.7457  0.5301  0.5278
 9078TIP3    H248726   1.295   0.192   0.210  0.3528 -0.9561  0.6258
 9079TIP3   OH248727   3.301   3.169   3.471  0.0521 -0.6979 -0.2590
 9079TIP3    H148728   3.332   3.107   3.405  0.3079  0.1915 -0.9955
 9079TIP3    H248729   3.206   3.158   3.471 -0.2119  0.9346 -2.5264
 9080TIP3   OH248730   5.494   6.135  16.664  0.4217  0.0197  0.1852
 9080TIP3    H148731   5.522   6.160  16.576  1.4268  0.1617  0.5372
 9080TIP3    H248732   5.398   6.138  16.660  0.3655 -1.9442 -1.4777
 9081TIP3   OH248733   1.683   3.363   5.813  0.3943 -0.9811  0.3459
 9081TIP3    H148734   1.631   3.441   5.794  1.5523 -0.1138  0.6429
 9081TIP3    H248735   1.668   3.347   5.907 -0.3187 -1.4920  0.1539
 9082TIP3   OH248736   4.964   6.730   3.814  0.1187  0.1986  0.4113
 9082TIP3    H148737   5.024   6.665   3.850  0.2929  0.9819  1.5820
 9082TIP3    H248738   4.990   6.738   3.722 -0.5319 -2.0556 -0.0370
 9083TIP3   OH248739   1.972   6.742   3.380  0.1009  0.5475  0.0495
 9083TIP3    H148740   1.912   6.800   3.428 -0.0270  0.3268  0.1581
 9083TIP3    H248741   1.965   6.772   3.289  0.4366  1.0445  0.1853
 9084TIP3   OH248742   2.373   4.795   1.589  0.5258 -0.2077 -0.0017
 9084TIP3    H148743   2.412   4.876   1.556  1.0330 -1.0545 -1.5827
 9084TIP3    H248744   2.321   4.762   1.515 -1.7920 -0.0276  1.4536
 9085TIP3   OH248745   0.827   3.260  12.584 -0.2636 -0.5667 -0.3727
 9085TIP3    H148746   0.844   3.167  12.568  1.6415 -0.5028  0.9406
 9085TIP3    H248747   0.824   3.300  12.497 -2.1550 -1.9632 -1.0237
 9086TIP3   OH248748   0.595   4.070   4.029  0.2702 -0.5563  0.2745
 9086TIP3    H148749   0.675   4.073   3.977 -0.2296 -1.5655 -0.6132
 9086TIP3    H248750   0.591   4.155   4.072 -0.4381  1.3426 -3.1500
 9087TIP3   OH248751   5.482   4.638   4.281  0.1777 -0.0978  0.0436
 9087TIP3    H148752   5.469   4.732   4.277  0.8338  0.0464  0.9875
 9087TIP3    H248753   5.538   4.624   4.357 -0.1966 -1.2808  0.1324
 9088TIP3   OH248754   2.172   4.763  13.529 -0.2033 -0.3848  0.4253
 9088TIP3    H148755   2.146   4.796  13.443 -1.8801 -0.2693  0.9482
 9088TIP3    H248756   2.254   4.809  13.548 -0.6953  0.8919 -0.3686
 9089TIP3   OH248757   6.653   5.527  16.475 -0.8083 -0.3138 -0.1259
 9089TIP3    H148758   6.693   5.446  16.506  0.1404 -0.0082 -0.5141
 9089TIP3    H248759   6.674   5.591  16.544 -0.7770 -0.1909 -0.2494
 9090TIP3   OH248760   2.888   1.322  11.720 -1.0730  0.0104  0.9530
 9090TIP3    H148761   2.827   1.353  11.654  2.3048 -0.6877 -2.8738
 9090TIP3    H248762   2.965   1.378  11.709  0.7966 -2.2004  2.0748
 9091TIP3   OH248763   5.918   1.909   3.771 -0.0892 -0.2361 -0.1944
 9091TIP3    H148764   5.835   1.878   3.734  0.1628  0.2417 -1.2136
 9091TIP3    H248765   5.920   1.875   3.860 -0.1986 -2.4623 -0.9840
 9092TIP3   OH248766   0.496   2.020   3.917  0.4527  0.6603  0.7675
 9092TIP3    H148767   0.472   2.093   3.859  1.6835  2.3860  2.3085
 9092TIP3    H248768   0.583   1.994   3.888 -0.8494 -1.9375 -1.3058
 9093TIP3   OH248769   3.503   0.262   5.430 -0.5725  0.4985 -0.5765
 9093TIP3    H148770   3.560   0.300   5.363 -0.3671  0.6667 -0.3088
 9093TIP3    H248771   3.425   0.319   5.430 -1.2910 -0.4205 -1.7811
 9094TIP3   OH248772   4.464   4.743   1.133  0.4743 -0.1437  0.4879
 9094TIP3    H148773   4.456   4.648   1.135  1.5724 -0.2496  0.6868
 9094TIP3    H248774   4.387   4.775   1.179 -2.0288 -0.7700 -2.9074
 9095TIP3   OH248775   0.275   2.810   0.509  0.1686  0.2591 -0.1731
 9095TIP3    H148776   0.270   2.718   0.486  0.8829  0.4035 -0.9927
 9095TIP3    H248777   0.356   2.818   0.561  0.3202  0.4780 -0.4363
 9096TIP3   OH248778   1.990   0.697  14.775 -0.0289  0.3604 -0.2469
 9096TIP3    H148779   1.923   0.705  14.708  0.4658  0.5203 -0.7305
 9096TIP3    H248780   2.054   0.765  14.754  1.2140 -0.9531 -0.9100
 9097TIP3   OH248781   2.893   6.347  17.093 -0.0762 -0.2637  0.2243
 9097TIP3    H148782   2.874   6.311  17.180 -1.1424 -0.7496 -0.2039
 9097TIP3    H248783   2.901   6.441  17.108  1.7063 -0.5134  1.1753
 9098TIP3   OH248784   2.437   5.871   5.564  0.5284 -1.0253 -0.2508
 9098TIP3    H148785   2.396   5.791   5.530 -1.4622 -1.4321  2.7548
 9098TIP3    H248786   2.516   5.840   5.608  0.4296 -1.1867 -0.1827
 9099TIP3   OH248787   0.374   1.603   1.337  0.4123  0.4655 -0.1800
 9099TIP3    H148788   0.362   1.635   1.248 -2.5469  0.3920  0.0618
 9099TIP3    H248789   0.375   1.508   1.330 -0.4586  0.4427 -0.1158
 9100TIP3   OH248790   6.718   1.300   1.852 -0.5550  0.5443  0.3400
 9100TIP3    H148791   6.708   1.208   1.873  0.5265  0.0874 -0.9920
 9100TIP3    H248792   6.725   1.344   1.937 -2.2100 -0.4211  1.0205
 9101TIP3   OH248793   3.320   6.102   3.652 -0.2492 -0.0837 -0.2450
 9101TIP3    H148794   3.344   6.165   3.720 -0.0466  0.2084 -0.5832
 9101TIP3    H248795   3.250   6.146   3.603  0.4996  0.2555 -1.0323
 9102TIP3   OH248796   3.459   0.684   4.635 -0.0713 -0.4478  0.6159
 9102TIP3    H148797   3.433   0.592   4.632 -0.4733 -0.3303  0.4774
 9102TIP3    H248798   3.451   0.714   4.545 -0.8092 -0.0401  0.8078
 9103TIP3   OH248799   1.104   4.591   5.944 -0.3963  0.1867  0.3554
 9103TIP3    H148800   1.147   4.635   6.018  1.8572  1.5978 -1.6062
 9103TIP3    H248801   1.081   4.663   5.885 -1.2196 -0.9616 -0.7614
 9104TIP3   OH248802   3.872   3.279   1.794 -0.5363  0.0732 -0.1036
 9104TIP3    H148803   3.874   3.346   1.725 -0.1260 -0.1715 -0.3263
 9104TIP3    H248804   3.933   3.311   1.860 -1.3912  0.6247  0.4512
 9105TIP3   OH248805   1.826   3.976   3.306 -0.3978  0.0386  0.3804
 9105TIP3    H148806   1.872   3.915   3.249  1.1257  1.6936 -0.2735
 9105TIP3    H248807   1.773   4.029   3.246 -1.4821 -0.4291  0.9014
 9106TIP3   OH248808   4.869   2.492   4.706 -0.2834  0.0348  0.4207
 9106TIP3    H148809   4.819   2.486   4.788  0.0584 -1.7958  0.5372
 9106TIP3    H248810   4.812   2.452   4.640  0.0648  0.0967  0.0815
 9107TIP3   OH248811   0.801   4.317  15.829 -0.4237  0.3274 -0.9263
 9107TIP3    H148812   0.803   4.308  15.924 -0.6850  1.7360 -0.7591
 9107TIP3    H248813   0.875   4.265  15.798  0.5023  0.9459  0.1563
 9108TIP3   OH248814   4.366   0.937  16.112 -0.2278 -0.4512  0.0110
 9108TIP3    H148815   4.437   0.954  16.174  0.5402  1.0016 -1.2034
 9108TIP3    H248816   4.297   0.898  16.165  1.1039 -1.0272  1.4163
 9109TIP3   OH248817   4.106   4.068   1.042  0.0945  0.7039 -0.1768
 9109TIP3    H148818   4.076   4.156   1.019 -1.6324  0.0335 -0.6154
 9109TIP3    H248819   4.049   4.010   0.993 -1.0856 -0.7443  2.6869
 9110TIP3   OH248820   0.110   5.305   0.725  0.6492 -0.3180  0.4587
 9110TIP3    H148821   0.125   5.355   0.805  0.6637  0.4547 -0.0043
 9110TIP3    H248822   0.197   5.276   0.698  0.7723  0.2492  0.2182
 9111TIP3   OH248823   4.879   2.307  12.000  0.4714  0.2940  0.0941
 9111TIP3    H148824   4.833   2.235  12.044  2.5620 -1.4794 -0.4685
 9111TIP3    H248825   4.861   2.292  11.907  0.8147  0.5547 -0.0144
 9112TIP3   OH248826   1.681   1.329   6.084  0.0181  0.5706 -0.0911
 9112TIP3    H148827   1.688   1.236   6.066  1.2807  0.5195  0.5526
 9112TIP3    H248828   1.667   1.334   6.179 -0.3365  1.0263 -0.1631
 9113TIP3   OH248829   0.746   2.139   3.401  0.1426  0.4304  0.4072
 9113TIP3    H148830   0.708   2.227   3.406 -1.5532 -0.2674  0.7717
 9113TIP3    H248831   0.754   2.122   3.307 -2.2162 -0.0397  0.2089
 9114TIP3   OH248832   0.533   1.609   4.398 -0.6658  0.2973  0.3639
 9114TIP3    H148833   0.571   1.673   4.458 -1.0932  0.6034  0.3097
 9114TIP3    H248834   0.598   1.538   4.394  0.3947  1.2894 -0.5727
 9115TIP3   OH248835   6.573   1.480   4.764 -0.7655  0.0085  0.5281
 9115TIP3    H148836   6.499   1.540   4.776  0.2004  1.1822  0.8019
 9115TIP3    H248837   6.549   1.402   4.815 -1.5539  0.6076  1.0967
 9116TIP3   OH248838   4.279   0.952  11.739  0.0034  0.6720  0.2012
 9116TIP3    H148839   4.308   1.043  11.736  0.4046  0.7309  2.9590
 9116TIP3    H248840   4.190   0.956  11.772  0.2388  0.0589  0.9531
 9117TIP3   OH248841   1.816   1.671   1.697 -0.7156 -0.4256  0.7789
 9117TIP3    H148842   1.880   1.706   1.636 -1.8061 -0.1534 -0.2443
 9117TIP3    H248843   1.780   1.747   1.741 -0.0473 -0.6094  1.6823
 9118TIP3   OH248844   3.363   4.066   6.980 -0.1029  0.1248  0.6922
 9118TIP3    H148845   3.432   4.095   6.921  1.1683 -1.7951  1.1333
 9118TIP3    H248846   3.356   3.972   6.964 -2.1699  0.1561  1.1377
 9119TIP3   OH248847   5.719   1.644  12.738  0.5086 -0.2330  0.1890
 9119TIP3    H148848   5.678   1.682  12.816  0.8522  1.2660 -0.3172
 9119TIP3    H248849   5.659   1.576  12.709 -0.8457  0.8620  0.3520
 9120TIP3   OH248850   4.853   4.128  11.573 -0.3195  0.6435 -0.1181
 9120TIP3    H148851   4.931   4.124  11.628  0.0237 -0.9033 -0.6687
 9120TIP3    H248852   4.781   4.137  11.635  0.1202 -0.2382  0.5436
 9121TIP3   OH248853   0.286   2.753   6.201 -0.3720  0.1017  0.4375
 9121TIP3    H148854   0.346   2.825   6.180  0.0122  0.4648  2.5928
 9121TIP3    H248855   0.343   2.678   6.217 -0.6942 -0.3333 -0.3926
 9122TIP3   OH248856   6.177   6.597  15.907  0.5778  0.5420 -0.0891
 9122TIP3    H148857   6.085   6.623  15.903  0.1260 -0.7953  0.7582
 9122TIP3    H248858   6.225   6.674  15.879 -0.8888  0.4741 -3.2406
 9123TIP3   OH248859   2.133   6.741  13.165 -0.0459  0.8089  0.1836
 9123TIP3    H148860   2.157   6.809  13.103 -0.4926  0.6012 -0.2235
 9123TIP3    H248861   2.196   6.671  13.150 -1.6347 -0.2749 -1.7841
 9124TIP3   OH248862   4.292   0.047   4.033  0.1948 -0.1100  0.2076
 9124TIP3    H148863   4.375   0.078   4.070  0.4501 -1.1387  0.5314
 9124TIP3    H248864   4.301  -0.048   4.031 -2.4015 -0.6586  3.8184
 9125TIP3   OH248865   2.436   1.674  17.045 -0.4141 -0.0622  0.6087
 9125TIP3    H148866   2.352   1.717  17.029  0.5307  1.2857 -1.0387
 9125TIP3    H248867   2.443   1.606  16.978 -0.9731 -1.4743  1.9137
 9126TIP3   OH248868   4.869   1.794   0.497  0.0193  0.3017  0.4971
 9126TIP3    H148869   4.906   1.726   0.440 -0.9201  0.9490 -0.9644
 9126TIP3    H248870   4.828   1.745   0.568 -1.9000 -0.8499 -1.2614
 9127TIP3   OH248871   1.407   1.787  12.059 -0.0738 -0.0542 -0.1591
 9127TIP3    H148872   1.416   1.786  12.154 -1.1787 -0.0827 -0.0448
 9127TIP3    H248873   1.362   1.869  12.040 -1.2256 -0.7433 -0.5094
 9128TIP3   OH248874   5.087   1.260  16.874 -0.7015 -0.1385 -0.6949
 9128TIP3    H148875   5.117   1.332  16.818 -2.1167  1.4011  0.4046
 9128TIP3    H248876   5.167   1.216  16.901  0.3938  1.9487 -0.2777
 9129TIP3   OH248877   1.879   5.384  12.325  0.3480  0.0914  0.3983
 9129TIP3    H148878   1.955   5.344  12.367 -0.5688 -1.7263  0.4259
 9129TIP3    H248879   1.913   5.463  12.283  1.8644  0.3623  2.0171
 9130TIP3   OH248880   4.470   2.168   4.588  0.3538  0.4160  0.2692
 9130TIP3    H148881   4.403   2.189   4.523 -0.1384  2.1408  1.2891
 9130TIP3    H248882   4.508   2.085   4.557 -0.5207  0.6923 -1.6678
 9131TIP3   OH248883   4.249   0.097  15.499  0.3790  0.0970  0.2908
 9131TIP3    H148884   4.182   0.033  15.521  0.5860  0.4550  2.2097
 9131TIP3    H248885   4.233   0.119  15.407 -1.0011 -1.1279  0.2018
 9132TIP3   OH248886   5.752   5.367   6.110  0.0614 -0.4710 -0.7010
 9132TIP3    H148887   5.795   5.318   6.179  1.1171  0.7872 -0.4229
 9132TIP3    H248888   5.697   5.303   6.065  1.9256 -2.0376 -0.8318
 9133TIP3   OH248889   0.973   1.390  13.612 -0.0647 -0.8797  0.0255
 9133TIP3    H148890   0.933   1.378  13.698 -1.4360  0.3497 -0.4061
 9133TIP3    H248891   0.899   1.394  13.551  0.6624  1.4910 -0.8144
 9134TIP3   OH248892   6.638   2.014   5.489  0.0147 -0.0734  0.3374
 9134TIP3    H148893   6.629   2.068   5.567 -0.8998 -0.0833  0.2449
 9134TIP3    H248894   6.729   1.984   5.491  0.7607  2.0411  0.0054
 9135TIP3   OH248895   1.793   4.096  13.278  0.1056  0.6882 -0.0777
 9135TIP3    H148896   1.737   4.173  13.281 -0.8845  0.0160 -0.7267
 9135TIP3    H248897   1.800   4.076  13.184 -0.4493 -0.5767  0.1377
 9136TIP3   OH248898   1.678   3.718  12.437  0.0868  0.3948  0.1245
 9136TIP3    H148899   1.671   3.723  12.342  0.5234  1.4702  0.1295
 9136TIP3    H248900   1.597   3.755  12.470 -0.7509 -1.3942  0.2010
 9137TIP3   OH248901   4.610   0.587   2.519  0.4111  0.0891  0.5748
 9137TIP3    H148902   4.547   0.642   2.472  0.1704 -0.5805  0.0983
 9137TIP3    H248903   4.557   0.533   2.577  0.6799  0.6265  1.3315
 9138TIP3   OH248904   3.396   6.518  14.295 -0.2247  0.1112 -0.0621
 9138TIP3    H148905   3.423   6.454  14.229 -1.3960 -0.6257  0.1504
 9138TIP3    H248906   3.393   6.469  14.377  1.1720  1.0156  0.5611
 9139TIP3   OH248907   4.891   3.609   0.894 -0.0966  0.6132  0.5129
 9139TIP3    H148908   4.917   3.521   0.866 -0.8895  0.5070  0.0896
 9139TIP3    H248909   4.971   3.647   0.931  0.8924  0.5767 -1.4534
 9140TIP3   OH248910   5.260   3.365  14.139  0.6024  0.0308 -0.1136
 9140TIP3    H148911   5.341   3.403  14.103 -0.8048  2.0569 -1.3446
 9140TIP3    H248912   5.241   3.418  14.216 -1.0028  1.4969 -1.4432
 9141TIP3   OH248913   3.097   1.584  11.290 -0.7813  0.1409 -0.0242
 9141TIP3    H148914   3.139   1.555  11.210 -2.4568 -1.1968 -0.4653
 9141TIP3    H248915   3.021   1.634  11.261 -1.0430  0.1993  0.7384
 9142TIP3   OH248916   0.812   0.585  11.022  0.2079 -0.3332  0.3847
 9142TIP3    H148917   0.787   0.508  10.972 -1.2370  0.3924 -0.0676
 9142TIP3    H248918   0.743   0.595  11.087  1.0268 -0.1192  1.2386
 9143TIP3   OH248919   3.964   5.663  17.059  0.0634 -0.0662  0.8145
 9143TIP3    H148920   3.997   5.673  16.969 -0.5642 -0.1183  0.5770
 9143TIP3    H248921   3.942   5.752  17.086 -0.6886 -0.1597  0.5469
 9144TIP3   OH248922   6.606   5.714  14.685  0.3125  0.5441  0.0686
 9144TIP3    H148923   6.557   5.634  14.668 -0.2019  0.6805  0.8522
 9144TIP3    H248924   6.686   5.684  14.730 -0.6074  0.5695  1.7990
 9145TIP3   OH248925   6.784   1.588  13.264 -0.7508  0.0494  0.1715
 9145TIP3    H148926   6.801   1.575  13.357  0.4932  0.8357  0.0756
 9145TIP3    H248927   6.795   1.682  13.251  0.4021 -0.2122 -0.9912
 9146TIP3   OH248928   0.967   1.122   1.593  0.2086 -0.1780 -0.1290
 9146TIP3    H148929   0.904   1.162   1.532  0.1903 -0.7061 -0.4622
 9146TIP3    H248930   1.037   1.088   1.537 -1.6805 -4.2804 -0.3684
 9147TIP3   OH248931   0.200   0.526   5.530 -0.2003 -0.0592  0.1599
 9147TIP3    H148932   0.115   0.567   5.512 -0.4720 -1.1128 -1.1305
 9147TIP3    H248933   0.255   0.555   5.457  0.3532  0.0528  0.6217
 9148TIP3   OH248934   3.699   4.536  12.151 -0.2143  0.1934  0.3068
 9148TIP3    H148935   3.653   4.460  12.117 -0.4460  0.6141 -0.3427
 9148TIP3    H248936   3.662   4.610  12.104  2.1723  0.4183 -1.4118
 9149TIP3   OH248937   0.324   3.032   2.716  0.4033  0.3668  1.0534
 9149TIP3    H148938   0.245   2.991   2.683 -0.4142  1.3327  1.7410
 9149TIP3    H248939   0.396   2.982   2.677 -0.5278  0.2441 -0.5624
 9150TIP3   OH248940   5.784   1.344  15.084 -0.5846 -0.3363 -0.3666
 9150TIP3    H148941   5.877   1.352  15.103 -0.6866 -1.3954  0.7079
 9150TIP3    H248942   5.740   1.378  15.163 -1.0726 -1.2520 -0.2246
 9151TIP3   OH248943   5.409   0.366   2.472  0.1554 -0.0771  0.1070
 9151TIP3    H148944   5.479   0.363   2.538  1.3397  0.0313 -1.0983
 9151TIP3    H248945   5.336   0.319   2.512  0.8503 -0.0310  1.4839
 9152TIP3   OH248946   5.656   2.285   0.861  0.0999 -0.1897 -0.3323
 9152TIP3    H148947   5.749   2.272   0.880 -0.2675  0.2334  2.0337
 9152TIP3    H248948   5.628   2.352   0.922 -1.4358  0.9062 -2.1179
 9153TIP3   OH248949   3.683   0.902   5.506  0.6135 -0.6460 -0.5712
 9153TIP3    H148950   3.628   0.842   5.556 -0.8147 -1.6304 -3.1286
 9153TIP3    H248951   3.722   0.847   5.438  1.6677  0.8016 -1.1876
 9154TIP3   OH248952   0.765   2.676  13.269 -0.2347  0.0523 -0.2153
 9154TIP3    H148953   0.695   2.622  13.305  1.2380 -2.0478 -0.3088
 9154TIP3    H248954   0.760   2.662  13.174  0.7319 -0.7411 -0.1733
 9155TIP3   OH248955   1.374   2.558  16.265  0.5921  0.0242 -0.0784
 9155TIP3    H148956   1.325   2.535  16.186  0.3813  1.4562 -0.3866
 9155TIP3    H248957   1.448   2.497  16.265  0.9122  0.3518 -1.7041
 9156TIP3   OH248958   5.869   4.859   5.149  0.3315 -0.0560  0.5740
 9156TIP3    H148959   5.947   4.804   5.153  0.9037 -0.2089 -5.0556
 9156TIP3    H248960   5.797   4.799   5.130 -0.2509  0.5880  0.6788
 9157TIP3   OH248961   5.626   6.714   2.066  0.9285  0.0015 -1.1957
 9157TIP3    H148962   5.668   6.630   2.045  0.5764 -0.9376  1.5158
 9157TIP3    H248963   5.532   6.693   2.065  0.8429  0.3288 -0.4487
 9158TIP3   OH248964   0.351   2.443  13.160 -0.0573 -0.2774 -0.1004
 9158TIP3    H148965   0.325   2.435  13.252 -2.2831 -0.5696 -0.6871
 9158TIP3    H248966   0.387   2.531  13.152  2.5137 -1.0633  1.5110
 9159TIP3   OH248967   3.517   5.593   6.113 -0.1088 -0.3170 -0.4963
 9159TIP3    H148968   3.609   5.610   6.090  0.5314 -0.5419  1.6706
 9159TIP3    H248969   3.508   5.498   6.105 -0.4288 -0.2095 -1.5579
 9160TIP3   OH248970   5.989   0.285  12.808 -0.1839  0.2783  0.6101
 9160TIP3    H148971   5.907   0.238  12.822 -0.6392  1.0415  0.5913
 9160TIP3    H248972   5.977   0.328  12.723  0.8874 -0.9094 -0.1865
 9161TIP3   OH248973   4.395   2.931  13.990  0.3490 -0.0085  0.3717
 9161TIP3    H148974   4.362   2.891  14.070 -0.7297  2.9532  1.5257
 9161TIP3    H248975   4.326   2.917  13.925  0.3167 -0.6261  0.5359
 9162TIP3   OH248976   2.972   5.423  11.400  0.1634  0.0002  0.0070
 9162TIP3    H148977   3.054   5.473  11.397  0.4897 -0.5525 -0.4007
 9162TIP3    H248978   2.905   5.486  11.373  0.3941  0.5681  0.7263
 9163TIP3   OH248979   0.555   5.312   3.875 -0.4680 -0.2897  0.6721
 9163TIP3    H148980   0.624   5.371   3.906 -0.2662 -0.6003  0.8258
 9163TIP3    H248981   0.505   5.290   3.954  0.8887 -2.1858  1.0677
 9164TIP3   OH248982   3.935   4.897   3.380 -0.3231 -0.5195  0.1639
 9164TIP3    H148983   3.947   4.913   3.473 -0.6354 -2.0217  0.4817
 9164TIP3    H248984   3.854   4.847   3.374  0.7831 -2.3083 -0.7077
 9165TIP3   OH248985   2.575   6.370   0.462 -0.2185 -0.6994  0.4021
 9165TIP3    H148986   2.603   6.296   0.517  0.4499 -0.1147  0.8663
 9165TIP3    H248987   2.513   6.331   0.400 -0.3646 -1.5280  1.0458
 9166TIP3   OH248988   0.427   5.163  10.869 -0.0850 -0.3111 -0.1408
 9166TIP3    H148989   0.350   5.113  10.843  0.5702 -0.8663 -1.0803
 9166TIP3    H248990   0.488   5.154  10.795 -0.0907  2.2474 -0.5379
 9167TIP3   OH248991   2.507   4.910  14.980  0.4778 -0.1878  0.1338
 9167TIP3    H148992   2.509   4.869  15.067  0.0441 -2.3845 -0.8168
 9167TIP3    H248993   2.452   4.988  14.992 -1.6978 -1.7998  1.3303
 9168TIP3   OH248994   4.660   1.748  16.930  0.1965  0.1312  0.5102
 9168TIP3    H148995   4.706   1.733  16.847  1.8379  0.0976  1.3685
 9168TIP3    H248996   4.568   1.751  16.907  0.2444 -3.6259 -0.8678
 9169TIP3   OH248997   4.542   5.076   6.502  0.3264 -0.3193  0.5617
 9169TIP3    H148998   4.452   5.091   6.530  0.4208 -2.3111  2.1475
 9169TIP3    H248999   4.593   5.078   6.582  1.5345 -0.3637 -0.1800
 9170TIP3   OH249000   0.196   1.284   0.386  0.4843 -0.3270  0.1149
 9170TIP3    H149001   0.151   1.211   0.344  1.0430 -0.2246 -0.6962
 9170TIP3    H249002   0.227   1.248   0.469 -0.5078 -0.5793  0.3939
 9171TIP3   OH249003   2.843   0.201  14.481  0.4799 -0.2451 -0.1702
 9171TIP3    H149004   2.770   0.165  14.532  0.4185 -1.1746 -0.8913
 9171TIP3    H249005   2.801   0.242  14.406  0.6944 -0.6977 -0.5377
 9172TIP3   OH249006   5.460   1.412  13.422 -0.5646 -0.1631  0.2299
 9172TIP3    H149007   5.377   1.458  13.428  0.4290  1.6966  0.4748
 9172TIP3    H249008   5.451   1.336  13.479 -1.4297  1.0753  1.7917
 9173TIP3   OH249009   5.745   1.479  12.299  0.2177 -0.1980  0.2168
 9173TIP3    H149010   5.735   1.405  12.358  0.7816 -1.5016 -1.2501
 9173TIP3    H249011   5.772   1.552  12.355  0.7373 -1.3788  1.5383
 9174TIP3   OH249012   1.184   4.071   1.495  0.3680  0.6145 -0.4575
 9174TIP3    H149013   1.166   3.998   1.555  0.9833 -0.0440 -1.0557
 9174TIP3    H249014   1.120   4.061   1.425 -0.1323  1.1867 -0.0888
 9175TIP3   OH249015   2.359   2.037   3.827  0.8805  0.8216  0.1184
 9175TIP3    H149016   2.301   2.038   3.751  1.0324  0.5968 -0.0005
 9175TIP3    H249017   2.431   2.095   3.803  0.9272  0.7529  0.0932
 9176TIP3   OH249018   6.223   2.477   5.213  0.2927  0.0405 -0.3212
 9176TIP3    H149019   6.159   2.521   5.157  0.8262  0.5048 -0.5814
 9176TIP3    H249020   6.184   2.392   5.233 -0.1808  0.1232 -0.8769
 9177TIP3   OH249021   3.957   3.541   3.579  0.6690 -0.1197  0.3186
 9177TIP3    H149022   3.937   3.480   3.508 -0.7247 -0.5811  1.0731
 9177TIP3    H249023   3.988   3.620   3.535  0.6892 -0.7086 -0.7545
 9178TIP3   OH249024   3.175   3.162  11.741  0.5428  0.0565 -0.4954
 9178TIP3    H149025   3.211   3.224  11.804  0.6597 -1.0876  0.5942
 9178TIP3    H249026   3.188   3.204  11.656  2.2352  0.7499  0.0673
 9179TIP3   OH249027   2.008   1.408  11.410  0.6423  0.1063 -0.1757
 9179TIP3    H149028   1.938   1.345  11.426  0.9541 -0.5285 -1.1862
 9179TIP3    H249029   2.087   1.365  11.444  0.4459  1.2090  1.8206
 9180TIP3   OH249030   0.325   6.302  14.889 -0.7497 -0.1767 -0.1260
 9180TIP3    H149031   0.382   6.239  14.846  0.9739 -0.5549  2.4395
 9180TIP3    H249032   0.269   6.249  14.946 -2.0943  0.3745 -0.8939
 9181TIP3   OH249033   5.499   3.547  10.723  0.3547  0.1943  0.5692
 9181TIP3    H149034   5.524   3.582  10.637  2.2103  0.1828  1.0626
 9181TIP3    H249035   5.446   3.470  10.702 -0.9424  1.3124 -0.5259
 9182TIP3   OH249036   6.485   1.365   5.094  0.5020 -0.0015 -0.2357
 9182TIP3    H149037   6.415   1.429   5.108  1.6578  1.3126 -0.2386
 9182TIP3    H249038   6.464   1.324   5.010 -0.9201 -0.5517  0.3517
 9183TIP3   OH249039   6.217   4.238   2.070  0.1805  0.1814  0.6168
 9183TIP3    H149040   6.154   4.166   2.081  1.0396 -0.3363  2.5034
 9183TIP3    H249041   6.208   4.263   1.978 -3.4730  0.7905  0.9935
 9184TIP3   OH249042   2.923   2.858   2.653  0.0973 -0.0528  0.5099
 9184TIP3    H149043   2.947   2.770   2.681 -2.7600 -1.2896 -0.6067
 9184TIP3    H249044   2.924   2.854   2.557  1.5667  1.6793  0.3891
 9185TIP3   OH249045   5.723   1.314   3.889 -0.3406  0.9813  0.4566
 9185TIP3    H149046   5.744   1.401   3.921 -0.0933  0.7530  0.9129
 9185TIP3    H249047   5.760   1.254   3.954 -1.2582  0.5548  0.6063
 9186TIP3   OH249048   4.463   0.984  11.084 -0.0245 -0.2190 -0.4776
 9186TIP3    H149049   4.483   0.929  11.008  0.1922 -0.6293 -0.1277
 9186TIP3    H249050   4.395   1.044  11.053 -0.5350 -0.9269 -0.7696
 9187TIP3   OH249051   3.726   5.460   1.778 -0.2063  0.7966  0.0087
 9187TIP3    H149052   3.640   5.485   1.814 -0.2844  2.5075 -1.2516
 9187TIP3    H249053   3.706   5.420   1.693  0.2015  0.4127  0.0897
 9188TIP3   OH249054   0.550   5.989   6.626 -0.3040 -0.5969  0.0379
 9188TIP3    H149055   0.548   6.069   6.573  0.7175  0.4281  1.4436
 9188TIP3    H249056   0.552   5.918   6.563  0.9738  0.5592 -1.3095
 9189TIP3   OH249057   1.604   6.664   0.930 -0.5210  0.5802 -0.5700
 9189TIP3    H149058   1.671   6.657   0.862 -0.9701  2.1508 -1.2271
 9189TIP3    H249059   1.590   6.758   0.940 -1.2296  0.3413  0.9627
 9190TIP3   OH249060   4.930   3.793   3.310 -0.3378 -0.5176  0.4154
 9190TIP3    H149061   4.876   3.739   3.253 -0.5439 -1.1090  1.1435
 9190TIP3    H249062   5.014   3.800   3.265 -1.2142  1.0343 -1.0937
 9191TIP3   OH249063   0.061   6.854  13.163  0.9208 -0.0013  0.1457
 9191TIP3    H149064   0.127   6.881  13.099  1.1834 -1.4645 -0.2431
 9191TIP3    H249065   0.101   6.870  13.248  0.5294  2.0657  0.0055
 9192TIP3   OH249066   0.465   6.762  11.891 -0.7461 -0.2064  0.4081
 9192TIP3    H149067   0.502   6.826  11.831  0.2401 -1.6944 -0.6526
 9192TIP3    H249068   0.507   6.781  11.975 -0.7994  0.7978  0.2192
 9193TIP3   OH249069   5.907   2.437  13.104 -0.2256  0.2105 -0.5119
 9193TIP3    H149070   5.846   2.427  13.177  0.6661 -2.7922 -0.0263
 9193TIP3    H249071   5.993   2.423  13.143  0.4747  0.9384 -1.7473
 9194TIP3   OH249072   5.557   6.511  15.337  0.1740 -0.4598 -0.2846
 9194TIP3    H149073   5.549   6.453  15.261 -1.0800 -2.0612  0.9757
 9194TIP3    H249074   5.625   6.470  15.391  1.0713  0.6797 -0.5241
 9195TIP3   OH249075   2.656   6.482   0.234  0.1633  0.1301  0.6555
 9195TIP3    H149076   2.580   6.512   0.184  0.5344  1.2140  0.7198
 9195TIP3    H249077   2.624   6.476   0.324 -0.3795 -1.3779  0.3924
 9196TIP3   OH249078   0.762   2.913  16.100 -0.0010  0.0034  0.7349
 9196TIP3    H149079   0.680   2.871  16.124  1.4951 -1.8762  3.0504
 9196TIP3    H249080   0.785   2.967  16.176 -0.5217  3.0665 -1.1145
 9197TIP3   OH249081   5.107   5.379   4.690  0.2353 -0.4390 -0.2762
 9197TIP3    H149082   5.175   5.312   4.695  0.6378 -0.1308 -1.4257
 9197TIP3    H249083   5.077   5.376   4.599  0.0885  0.7601 -0.2770
 9198TIP3   OH249084   6.776   1.255  13.311 -0.0804 -0.0769 -0.1943
 9198TIP3    H149085   6.747   1.207  13.233  0.6912 -0.9107  0.0164
 9198TIP3    H249086   6.837   1.320  13.277 -1.1214  0.7886 -0.4795
 9199TIP3   OH249087   3.061   2.753  16.084 -0.4141 -0.1629 -0.3272
 9199TIP3    H149088   3.122   2.799  16.027 -0.1217 -0.3665 -0.1841
 9199TIP3    H249089   2.976   2.765  16.043 -0.3704  0.6356 -0.2110
 9200TIP3   OH249090   5.951   1.785   0.099  0.5825 -0.0962 -0.0102
 9200TIP3    H149091   5.913   1.754   0.181 -1.1338 -2.3537 -1.5507
 9200TIP3    H249092   5.978   1.706   0.053  1.3761  1.1008 -1.7074
 9201TIP3   OH249093   4.246   0.935   3.990 -0.3123 -0.5566  0.2252
 9201TIP3    H149094   4.295   0.854   3.974  1.1794  0.6222 -1.5467
 9201TIP3    H249095   4.214   0.926   4.079 -1.5318 -3.7704 -0.3951
 9202TIP3   OH249096   4.240   5.902   3.890 -0.4837  0.0775 -0.4268
 9202TIP3    H149097   4.303   5.893   3.961  0.2376 -0.0703 -1.0840
 9202TIP3    H249098   4.256   5.990   3.855  0.0632 -0.3419 -1.2573
 9203TIP3   OH249099   1.590   6.839   5.310  0.2730 -0.2701  0.0849
 9203TIP3    H149100   1.654   6.892   5.358  1.1971 -2.3406  1.2258
 9203TIP3    H249101   1.519   6.825   5.372  0.5002 -1.1957  0.1447
 9204TIP3   OH249102   2.600   1.759  12.230  0.3290 -0.6562 -0.3091
 9204TIP3    H149103   2.616   1.701  12.304  0.8918  1.4852  1.3757
 9204TIP3    H249104   2.672   1.743  12.170  1.6846 -0.2330  1.1405
 9205TIP3   OH249105   4.920   2.013   2.625  0.3609 -0.7062 -0.5942
 9205TIP3    H149106   4.920   2.011   2.529  0.5151 -0.4313 -0.6020
 9205TIP3    H249107   4.936   1.922   2.651  1.3118 -0.6277 -0.8389
 9206TIP3   OH249108   4.877   0.154  13.149 -0.6293  0.1297  0.1574
 9206TIP3    H149109   4.869   0.078  13.207  0.5217 -0.8370 -0.8927
 9206TIP3    H249110   4.941   0.127  13.083  1.6833  2.8817  1.0866
 9207TIP3   OH249111   0.072   0.142   0.734  0.4961 -0.4468 -0.6169
 9207TIP3    H149112   0.024   0.135   0.652 -1.4006  1.9868  0.1551
 9207TIP3    H249113   0.008   0.121   0.802 -0.5836  5.1219  0.6034
 9208TIP3   OH249114   0.164   6.756  17.087 -0.4212  0.3719  0.6167
 9208TIP3    H149115   0.221   6.789  17.157  1.5739  2.9055 -2.0078
 9208TIP3    H249116   0.081   6.802  17.100 -0.9889 -1.0923  2.6998
 9209TIP3   OH249117   6.675   2.537   3.980  0.5629 -0.2210  0.2482
 9209TIP3    H149118   6.702   2.452   4.014 -0.7222 -0.8085 -0.1122
 9209TIP3    H249119   6.656   2.590   4.057  0.3984 -0.6107  0.4768
 9210TIP3   OH249120   0.507   0.400   3.867  0.2673 -0.1001 -0.4911
 9210TIP3    H149121   0.526   0.491   3.890  0.0978  0.4065 -2.1835
 9210TIP3    H249122   0.592   0.364   3.841  0.3487 -0.4726  0.2568
 9211TIP3   OH249123   0.835   3.132   2.162 -0.4114 -0.0239  0.6771
 9211TIP3    H149124   0.751   3.105   2.197 -0.1087 -1.1923  0.5525
 9211TIP3    H249125   0.828   3.117   2.067  0.2674 -1.1001  0.7835
 9212TIP3   OH249126   1.522   3.019   5.239  0.0051  0.9311 -0.0780
 9212TIP3    H149127   1.450   3.040   5.179 -1.6729  1.7220  2.1027
 9212TIP3    H249128   1.502   3.067   5.319  0.0745 -2.9624  2.5537
 9213TIP3   OH249129   5.138   6.338   2.949  0.7819 -0.3005  0.2256
 9213TIP3    H149130   5.044   6.351   2.936  0.3756 -1.2954  1.8874
 9213TIP3    H249131   5.147   6.243   2.958  2.0419 -0.2617 -0.4692
 9214TIP3   OH249132   0.623   6.672  12.755 -0.0390 -0.2418  0.3627
 9214TIP3    H149133   0.697   6.681  12.696 -1.6385 -0.3865 -1.7611
 9214TIP3    H249134   0.617   6.577  12.771 -0.0562 -0.2810  0.1308
 9215TIP3   OH249135   5.256   6.235   3.875 -0.1347 -0.1580  0.0153
 9215TIP3    H149136   5.166   6.263   3.889 -0.3082 -1.0737  0.8270
 9215TIP3    H249137   5.309   6.306   3.912 -0.5651 -0.6832  1.7225
 9216TIP3   OH249138   4.174   1.228   4.021 -0.6239 -0.2846  0.0504
 9216TIP3    H149139   4.223   1.207   4.100 -1.2293 -0.4755  0.3836
 9216TIP3    H249140   4.191   1.154   3.962 -0.2294 -0.1761  0.0264
 9217TIP3   OH249141   6.097   6.233   3.803 -0.0698 -0.5864 -0.4441
 9217TIP3    H149142   6.058   6.259   3.887  1.4373 -1.9907  0.7699
 9217TIP3    H249143   6.153   6.307   3.779  0.0725 -0.4793  0.1949
 9218TIP3   OH249144   6.442   4.351   6.024 -0.4418  0.0068  0.4186
 9218TIP3    H149145   6.401   4.437   6.014 -0.4790  0.0357  0.7914
 9218TIP3    H249146   6.368   4.292   6.042 -0.3600 -0.0001  0.7468
 9219TIP3   OH249147   4.651   1.186  10.911  0.4747  0.3534  0.2360
 9219TIP3    H149148   4.620   1.096  10.903  1.0413  0.1744 -0.0094
 9219TIP3    H249149   4.577   1.239  10.879  0.4777 -0.0743 -0.5271
 9220TIP3   OH249150   5.944   3.724  12.018 -0.3597 -0.2364  0.7160
 9220TIP3    H149151   5.855   3.734  12.052 -1.1811 -1.5856 -0.8888
 9220TIP3    H249152   5.932   3.694  11.928  1.7293  2.4114 -0.5605
 9221TIP3   OH249153   1.789   1.260  11.431  0.5524 -0.0851 -0.4334
 9221TIP3    H149154   1.756   1.265  11.341 -0.4928 -1.1867 -0.1359
 9221TIP3    H249155   1.796   1.166  11.449  0.7924  0.1218  0.6272
 9222TIP3   OH249156   6.488   3.108   2.117  0.2651 -0.0332  0.5926
 9222TIP3    H149157   6.471   3.038   2.179  0.5226 -1.3823 -0.7994
 9222TIP3    H249158   6.483   3.066   2.031 -0.3678  1.8201 -0.3345
 9223TIP3   OH249159   6.847   2.606   4.724  0.1186 -0.2252 -0.0403
 9223TIP3    H149160   6.795   2.682   4.747  1.3780  1.2994 -1.8648
 9223TIP3    H249161   6.857   2.558   4.806 -0.3228  1.8242  1.3032
 9224TIP3   OH249162   1.637   2.947   2.981  0.0418 -0.3137 -0.0468
 9224TIP3    H149163   1.556   2.898   2.994 -0.4579  0.4727 -0.1275
 9224TIP3    H249164   1.666   2.970   3.070 -0.8768  1.0570 -0.0627
 9225TIP3   OH249165   1.863   1.302  13.764 -0.1400  0.2460  0.0188
 9225TIP3    H149166   1.920   1.236  13.802  0.3353  0.6499  0.0123
 9225TIP3    H249167   1.775   1.266  13.775  0.1045 -0.3470  0.0920
 9226TIP3   OH249168   1.445   1.678  11.155 -0.0037 -0.5575  0.7286
 9226TIP3    H149169   1.392   1.644  11.227 -2.1439 -0.3461 -0.6671
 9226TIP3    H249170   1.407   1.640  11.076 -0.1359  2.1093 -0.6025
 9227TIP3   OH249171   4.437   0.177  12.976  0.2297 -0.7682  0.3251
 9227TIP3    H149172   4.479   0.216  13.053  3.2866 -2.2196 -0.4151
 9227TIP3    H249173   4.414   0.252  12.921  3.4369  0.2423  0.1368
 9228TIP3   OH249174   2.357   5.290   2.796  0.7412 -0.5344  0.2452
 9228TIP3    H149175   2.285   5.333   2.840  1.3366  0.2216  0.5016
 9228TIP3    H249176   2.316   5.224   2.740 -0.2319  0.6901 -0.5369
 9229TIP3   OH249177   4.263   4.535   3.097 -0.7491  0.1319  0.3281
 9229TIP3    H149178   4.235   4.603   3.035  0.3851  0.6764  0.3908
 9229TIP3    H249179   4.292   4.583   3.174  0.6193 -0.3601  0.1545
 9230TIP3   OH249180   0.573   3.328  12.911  0.4781 -0.5142  0.6818
 9230TIP3    H149181   0.528   3.272  12.847 -1.6612  1.2365  0.5463
 9230TIP3    H249182   0.625   3.388  12.857  0.9808 -0.8713  0.7505
 9231TIP3   OH249183   6.678   0.327   3.624  0.4530 -0.5261 -0.0961
 9231TIP3    H149184   6.702   0.327   3.531 -1.1500  0.8869 -0.5694
 9231TIP3    H249185   6.584   0.310   3.625  0.3355  0.0572  1.2281
 9232TIP3   OH249186   6.364   4.808  17.092 -0.2881  0.4834  0.4471
 9232TIP3    H149187   6.427   4.845  17.030 -1.3614  0.8277 -0.4798
 9232TIP3    H249188   6.332   4.884  17.140 -0.5914  0.4142  0.3511
 9233TIP3   OH249189   3.386   6.623   1.742  0.1771 -0.4344 -0.1478
 9233TIP3    H149190   3.378   6.699   1.683 -1.9997 -0.4034  0.1113
 9233TIP3    H249191   3.477   6.596   1.734  0.1047 -0.0891 -3.1123
 9234TIP3   OH249192   6.038   0.530  15.943  0.2126  0.6210 -0.1288
 9234TIP3    H149193   5.950   0.505  15.916  0.4889 -0.3965 -0.1184
 9234TIP3    H249194   6.026   0.566  16.031 -0.1474  0.1762  0.0071
 9235TIP3   OH249195   4.087   2.381   4.615 -0.2146 -0.0902 -0.1680
 9235TIP3    H149196   4.028   2.306   4.610  0.7648 -0.7954 -1.8853
 9235TIP3    H249197   4.156   2.353   4.676 -1.6950  0.8226  2.0246
 9236TIP3   OH249198   2.173   1.842   5.673  0.1569 -0.3926  0.4276
 9236TIP3    H149199   2.225   1.786   5.615  1.0677 -0.0548  0.9029
 9236TIP3    H249200   2.211   1.829   5.760  0.2625  0.8332  0.5746
 9237TIP3   OH249201   4.337   5.454   2.919 -0.7603 -0.2095  0.3261
 9237TIP3    H149202   4.344   5.523   2.854  2.5705 -0.8695 -0.2159
 9237TIP3    H249203   4.275   5.391   2.881 -1.0916  0.7689 -0.8257
 9238TIP3   OH249204   2.359   1.600  16.468  0.2891 -0.1457  0.0038
 9238TIP3    H149205   2.450   1.610  16.496 -0.0759 -0.3271  1.2817
 9238TIP3    H249206   2.337   1.684  16.428  1.8924 -1.0126 -3.0112
 9239TIP3   OH249207   3.743   1.802  12.373 -0.1164  0.1136  0.5303
 9239TIP3    H149208   3.734   1.803  12.468 -0.8017  1.0391  0.4708
 9239TIP3    H249209   3.795   1.724  12.355 -0.1808 -0.2097  1.6440
 9240TIP3   OH249210   1.595   6.240  11.714 -0.1689 -0.1724  0.6789
 9240TIP3    H149211   1.511   6.215  11.753 -0.4148 -0.0328  0.2484
 9240TIP3    H249212   1.615   6.170  11.652 -0.3309  0.1466  0.2545
 9241TIP3   OH249213   1.796   6.831  12.619  0.4141  0.3413  0.1246
 9241TIP3    H149214   1.803   6.816  12.713 -1.5629  1.5045  0.5053
 9241TIP3    H249215   1.850   6.762  12.580 -1.2878 -2.2387  2.0013
 9242TIP3   OH249216   1.054   1.102  11.694  0.4646  0.0497  0.0610
 9242TIP3    H149217   1.003   1.181  11.677 -0.9795 -0.7561  0.4582
 9242TIP3    H249218   1.122   1.130  11.755 -0.1841  0.9329  0.3963
 9243TIP3   OH249219   4.766   3.530  13.027 -0.1910  0.0111  0.4195
 9243TIP3    H149220   4.751   3.457  12.968 -1.4334  0.2473  0.4320
 9243TIP3    H249221   4.831   3.497  13.090  1.3060 -0.1831 -1.1457
 9244TIP3   OH249222   5.668   0.146  15.553  0.2686 -0.1896 -0.1415
 9244TIP3    H149223   5.740   0.197  15.590  1.2555 -1.6974  0.1004
 9244TIP3    H249224   5.709   0.093  15.484 -0.8361 -0.2343 -0.7829
 9245TIP3   OH249225   6.824   0.389  11.897 -0.1656 -0.0875  0.3051
 9245TIP3    H149226   6.794   0.377  11.987  1.4044  1.1667  1.0445
 9245TIP3    H249227   6.897   0.328  11.888  0.6468  0.8466  0.4049
 9246TIP3   OH249228   5.328   4.291  13.719 -0.2555  0.0010 -0.0342
 9246TIP3    H149229   5.350   4.278  13.627  1.9296  1.1718  0.2499
 9246TIP3    H249230   5.277   4.372  13.720 -2.0168 -1.0406 -0.3576
 9247TIP3   OH249231   1.326   1.819   6.526 -0.4172 -0.2449  0.1666
 9247TIP3    H149232   1.412   1.786   6.501 -0.9577 -0.4112 -1.5761
 9247TIP3    H249233   1.294   1.756   6.591  0.1180 -1.0487 -0.3383
 9248TIP3   OH249234   1.340   0.446   4.197  0.2517 -0.1310  0.2101
 9248TIP3    H149235   1.267   0.391   4.225 -0.1782  0.3969  0.1199
 9248TIP3    H249236   1.314   0.535   4.220  0.0047  0.3023 -1.6234
 9249TIP3   OH249237   3.181   2.018  14.767  0.2322  0.0367 -0.4377
 9249TIP3    H149238   3.203   2.097  14.717  1.3783  0.6874  1.0323
 9249TIP3    H249239   3.215   2.035  14.855 -1.2780 -1.2980  0.4448
 9250TIP3   OH249240   6.840   2.111  11.896  0.0434 -0.8637  0.3240
 9250TIP3    H149241   6.875   2.065  11.820  0.3030  2.3421 -1.6565
 9250TIP3    H249242   6.893   2.190  11.903 -1.0716 -0.2455  2.8524
 9251TIP3   OH249243   0.609   4.831  13.594 -0.3196  0.0382  0.2374
 9251TIP3    H149244   0.591   4.798  13.506  0.6399  0.7186 -0.2316
 9251TIP3    H249245   0.525   4.825  13.640 -0.3706 -2.3043 -0.0385
 9252TIP3   OH249246   5.226   0.868   5.812  0.1718  0.0360  0.0741
 9252TIP3    H149247   5.261   0.827   5.734  0.2681  0.8054 -0.2973
 9252TIP3    H249248   5.297   0.861   5.876  0.1363 -0.4878  0.0616
 9253TIP3   OH249249   4.942   2.963  16.168  0.2663  0.2248  0.1085
 9253TIP3    H149250   4.986   2.904  16.230  1.8156  2.2363  1.0600
 9253TIP3    H249251   5.004   2.974  16.097 -0.2813  0.2015 -0.3755
 9254TIP3   OH249252   6.726   4.800   3.540  0.3063  0.0410  0.3069
 9254TIP3    H149253   6.800   4.771   3.488 -0.7413  0.1435 -1.3090
 9254TIP3    H249254   6.694   4.878   3.496 -0.7565 -0.0019  0.9619
 9255TIP3   OH249255   3.619   1.511   5.765  0.3425 -0.3461 -0.3330
 9255TIP3    H149256   3.682   1.440   5.751  1.5032  0.4428  0.7634
 9255TIP3    H249257   3.671   1.591   5.761 -1.0012  0.5087 -1.8852
 9256TIP3   OH249258   4.011   2.095   0.114 -0.2698  0.5949  0.1672
 9256TIP3    H149259   4.038   2.040   0.187 -0.5488 -1.3156 -1.1003
 9256TIP3    H249260   3.954   2.161   0.154 -0.2507 -0.2691  1.6929
 9257TIP3   OH249261   0.552   3.243   3.704 -0.6650 -0.4925 -0.1921
 9257TIP3    H149262   0.470   3.194   3.708 -0.8476 -0.1501  0.4607
 9257TIP3    H249263   0.526   3.333   3.727 -0.5565  0.1968 -2.4834
 9258TIP3   OH249264   3.911   5.022  15.032  0.3307 -0.1461 -0.6376
 9258TIP3    H149265   4.005   5.018  15.015  0.6343 -0.2040  0.8684
 9258TIP3    H249266   3.871   5.034  14.946  1.7802  0.9623 -1.1936
 9259TIP3   OH249267   6.066   2.031   3.979  0.1696 -0.4431  0.2412
 9259TIP3    H149268   6.158   2.007   3.990  0.4049  0.5786  0.5937
 9259TIP3    H249269   6.048   2.014   3.887  0.3543 -1.8037  0.4351
 9260TIP3   OH249270   6.160   1.543  15.854  0.4647 -0.2026  0.2214
 9260TIP3    H149271   6.229   1.608  15.854 -0.9382  1.3878 -0.9485
 9260TIP3    H249272   6.155   1.513  15.763 -1.4479  0.9771 -0.1176
 9261TIP3   OH249273   1.497   0.796   4.790 -0.0943 -0.1020 -0.3963
 9261TIP3    H149274   1.440   0.781   4.864 -1.5400 -2.2714 -1.8414
 9261TIP3    H249275   1.575   0.743   4.807 -0.8767 -1.4415 -0.8606
 9262TIP3   OH249276   6.496   1.893  15.818  0.1855 -0.5988  0.2538
 9262TIP3    H149277   6.496   1.982  15.852 -0.6366 -1.0607  1.5417
 9262TIP3    H249278   6.589   1.868  15.815  0.5351  0.6922 -1.3158
 9263TIP3   OH249279   4.784   1.264  16.243 -0.1517  0.3815 -0.2096
 9263TIP3    H149280   4.772   1.295  16.333 -0.1343  1.7841 -0.6522
 9263TIP3    H249281   4.716   1.199  16.229 -0.4780  0.5298  0.6636
 9264TIP3   OH249282   3.814   5.565   4.051  0.2046 -0.1163  0.7166
 9264TIP3    H149283   3.724   5.530   4.055 -0.2577  1.1181  1.5904
 9264TIP3    H249284   3.807   5.641   3.994  1.2203 -1.4086 -1.2358
 9265TIP3   OH249285   3.061   5.830  14.383 -0.0459  0.0797  0.2213
 9265TIP3    H149286   3.092   5.816  14.472 -0.3471 -1.1807  0.1435
 9265TIP3    H249287   2.966   5.838  14.391  0.0460  1.4389  0.1687
 9266TIP3   OH249288   4.306   3.746  13.344 -0.5403 -0.3883 -0.4080
 9266TIP3    H149289   4.351   3.670  13.382 -1.1650 -0.4253  0.2723
 9266TIP3    H249290   4.247   3.708  13.279  0.1428 -0.3670 -1.0545
 9267TIP3   OH249291   5.482   0.114   0.659 -0.1434  0.2533 -0.0653
 9267TIP3    H149292   5.484   0.099   0.754  0.5970 -0.8325 -0.2358
 9267TIP3    H249293   5.505   0.207   0.650  2.8772 -0.3224  0.7085
 9268TIP3   OH249294   5.875   3.826  13.071  0.5256 -0.2548 -0.1144
 9268TIP3    H149295   5.864   3.738  13.106 -1.0689 -0.0941 -0.1369
 9268TIP3    H249296   5.960   3.824  13.027  2.1421 -0.7483  2.7751
 9269TIP3   OH249297   2.152   2.721  12.936  0.2434 -0.2543  0.2488
 9269TIP3    H149298   2.225   2.758  12.886 -0.8407  0.4399 -0.8662
 9269TIP3    H249299   2.194   2.665  13.001  1.7525 -0.1489 -0.5898
 9270TIP3   OH249300   2.855   2.114   4.049 -0.3409 -0.7681  0.0406
 9270TIP3    H149301   2.927   2.126   3.987 -1.2241 -0.0994 -0.8820
 9270TIP3    H249302   2.832   2.021   4.040 -2.1947 -0.1578 -2.6607
 9271TIP3   OH249303   2.993   3.810  16.590  0.7780  0.0763  0.0642
 9271TIP3    H149304   3.011   3.886  16.534 -0.4633  1.0282  0.9043
 9271TIP3    H249305   3.038   3.830  16.672  0.8010 -0.2993  0.1438
 9272TIP3   OH249306   0.642   1.978  16.712 -0.1623  0.0350 -0.1020
 9272TIP3    H149307   0.586   2.002  16.786  0.9372  0.0523  0.7480
 9272TIP3    H249308   0.583   1.932  16.652 -1.2874  0.8767  0.3276
 9273TIP3   OH249309   1.470   4.174  13.263  0.2452 -0.2017  0.6080
 9273TIP3    H149310   1.382   4.163  13.300  0.1874  1.2988  0.9628
 9273TIP3    H249311   1.472   4.114  13.188 -1.0024 -0.3931  0.7094
 9274TIP3   OH249312   0.988   3.251  11.354  0.3550  0.0357 -0.4324
 9274TIP3    H149313   1.017   3.160  11.341  0.4955 -0.2439  1.5204
 9274TIP3    H249314   0.896   3.243  11.380  0.9805  0.1980  2.0983
 9275TIP3   OH249315   5.081   6.605  14.002  0.5114 -0.5048 -0.0474
 9275TIP3    H149316   5.052   6.548  13.931  1.8461 -1.6326  0.2737
 9275TIP3    H249317   5.143   6.665  13.959  0.8899 -0.8225  0.0505
 9276TIP3   OH249318   4.125   1.257   3.175 -0.5301 -0.8595 -1.0704
 9276TIP3    H149319   4.074   1.335   3.153  1.6060  0.2651 -2.4159
 9276TIP3    H249320   4.127   1.255   3.270 -1.5848  0.0591 -1.0169
 9277TIP3   OH249321   6.200   1.347   4.643  0.4283 -0.4579 -0.0085
 9277TIP3    H149322   6.197   1.287   4.568  0.6911 -2.8299  1.7524
 9277TIP3    H249323   6.113   1.386   4.645  0.5203 -0.0776 -1.7148
 9278TIP3   OH249324   6.733   1.665   1.167  0.4931 -0.8295  0.0835
 9278TIP3    H149325   6.767   1.597   1.225 -1.0678 -1.4839  0.2642
 9278TIP3    H249326   6.684   1.724   1.224  0.1161 -0.6967 -0.3744
 9279TIP3   OH249327   3.038   4.371   7.265 -0.1498  0.5169  0.3330
 9279TIP3    H149328   3.115   4.356   7.210  0.9231  0.5145  1.7414
 9279TIP3    H249329   2.977   4.420   7.210  0.8845  0.5520 -0.8212
 9280TIP3   OH249330   6.539   6.133  11.530  0.2377  0.7423  0.8944
 9280TIP3    H149331   6.496   6.169  11.453  1.0993  0.2562  0.1583
 9280TIP3    H249332   6.468   6.112  11.591 -0.3747  2.2733  0.7472
 9281TIP3   OH249333   4.708   2.950  16.727 -0.2080 -0.5502  0.1146
 9281TIP3    H149334   4.786   2.984  16.772  0.2931  1.2736 -1.9947
 9281TIP3    H249335   4.641   3.017  16.741 -1.2253 -1.7407  1.2393
 9282TIP3   OH249336   0.357   5.499   0.375  0.0558  0.1376  0.4434
 9282TIP3    H149337   0.354   5.586   0.336  0.3982  0.4395  1.0701
 9282TIP3    H249338   0.269   5.484   0.410  0.2830  0.6985  1.2984
 9283TIP3   OH249339   3.339   6.537  15.140  0.7480  0.1361  0.0159
 9283TIP3    H149340   3.399   6.609  15.157  2.1322 -0.9349 -0.2064
 9283TIP3    H249341   3.257   6.564  15.181  1.5039  1.4234  0.7396
 9284TIP3   OH249342   2.561   5.356  16.628  0.5594  0.1975  0.1949
 9284TIP3    H149343   2.596   5.310  16.704 -0.2244 -1.5565 -0.4566
 9284TIP3    H249344   2.562   5.449  16.653  1.2054 -0.2556  1.9524
 9285TIP3   OH249345   5.776   2.305  10.223 -0.0460  0.4249 -0.2014
 9285TIP3    H149346   5.783   2.235  10.158 -0.6763 -1.3608  1.5536
 9285TIP3    H249347   5.696   2.351  10.200 -0.0261  0.0912 -0.9515
 9286TIP3   OH249348   3.396   2.720  12.629 -0.0519 -0.0606  0.4439
 9286TIP3    H149349   3.363   2.630  12.634  0.3129 -0.2031  0.3283
 9286TIP3    H249350   3.375   2.758  12.714 -0.3038 -0.2222  0.4540
 9287TIP3   OH249351   4.656   6.673   5.116  0.6896  0.5781 -0.1694
 9287TIP3    H149352   4.637   6.707   5.203 -0.1445 -0.4797  0.0747
 9287TIP3    H249353   4.583   6.615   5.096  1.8653 -0.7638 -0.7323
 9288TIP3   OH249354   1.032   5.118   1.103 -0.1374  0.0999 -0.2865
 9288TIP3    H149355   1.081   5.042   1.135  1.2210 -0.9336 -4.2448
 9288TIP3    H249356   1.098   5.187   1.093 -0.8724  0.9909  0.7820
 9289TIP3   OH249357   0.612   5.840   2.701  0.7506  0.6575  0.0263
 9289TIP3    H149358   0.547   5.804   2.641 -0.4786  0.5231  1.3794
 9289TIP3    H249359   0.589   5.932   2.709 -1.9403 -0.1130  3.5742
 9290TIP3   OH249360   6.127   2.659   0.667 -0.3896  0.2574  0.0727
 9290TIP3    H149361   6.218   2.688   0.664 -0.7880  1.5649  0.2606
 9290TIP3    H249362   6.125   2.592   0.735  0.6353 -0.5869 -0.6887
 9291TIP3   OH249363   6.663   5.209  15.685  0.4184 -0.2841 -0.3350
 9291TIP3    H149364   6.623   5.158  15.614 -1.0389  0.6253 -0.2115
 9291TIP3    H249365   6.746   5.240  15.648 -0.3824  0.3002 -1.7219
 9292TIP3   OH249366   1.013   0.009  16.137 -0.0220  0.1454 -0.0422
 9292TIP3    H149367   1.103  -0.016  16.155 -0.2190 -0.7405 -0.2686
 9292TIP3    H249368   0.969   0.003  16.222 -0.7923 -3.3783 -0.5683
 9293TIP3   OH249369   4.526   4.801  16.139 -0.7571  0.7795 -0.3914
 9293TIP3    H149370   4.610   4.771  16.103 -0.3182  3.7970 -2.1803
 9293TIP3    H249371   4.500   4.874  16.083 -2.3902  2.8027  2.6988
 9294TIP3   OH249372   0.719   3.264   5.659 -0.2682  0.2233  0.3041
 9294TIP3    H149373   0.807   3.296   5.677  0.5728 -1.2532 -0.8913
 9294TIP3    H249374   0.687   3.233   5.743  0.2407  1.0078  0.8016
 9295TIP3   OH249375   1.541   5.551   2.870  0.3700 -0.1178 -0.3185
 9295TIP3    H149376   1.542   5.487   2.799 -1.2492  0.6884 -1.1267
 9295TIP3    H249377   1.611   5.523   2.929 -0.1053 -2.4664 -0.7767
 9296TIP3   OH249378   6.453   6.118  10.910 -0.4125  0.0607 -0.2668
 9296TIP3    H149379   6.397   6.187  10.945  2.2557  1.7254  1.0463
 9296TIP3    H249380   6.419   6.038  10.951 -3.2994  0.5405 -1.4827
 9297TIP3   OH249381   6.717   5.578   4.446 -0.3618 -0.0301  0.1868
 9297TIP3    H149382   6.704   5.580   4.351 -0.4320 -1.7413  0.1294
 9297TIP3    H249383   6.678   5.495   4.473 -2.9144  1.6394  2.1321
 9298TIP3   OH249384   6.264   5.261  12.189  0.0163 -0.5808  0.1644
 9298TIP3    H149385   6.263   5.351  12.221  1.3251 -0.4358 -0.1806
 9298TIP3    H249386   6.188   5.256  12.130  0.8362  0.7798 -1.0736
 9299TIP3   OH249387   4.345   3.811  14.567 -0.1222 -0.1798 -0.3415
 9299TIP3    H149388   4.391   3.773  14.642  0.3390  0.9851 -0.0022
 9299TIP3    H249389   4.292   3.740  14.532  1.8413 -1.5659 -0.6669
 9300TIP3   OH249390   5.806   5.380  13.188  0.4468  1.0745  0.3334
 9300TIP3    H149391   5.712   5.366  13.177  0.6929 -0.4265 -0.2109
 9300TIP3    H249392   5.822   5.468  13.154 -0.5443  0.7392 -1.0857
 9301TIP3   OH249393   4.052   4.208   2.440  0.2711  0.5704 -0.2610
 9301TIP3    H149394   3.980   4.183   2.382 -0.3084 -0.2022  0.7396
 9301TIP3    H249395   4.056   4.303   2.435  1.3799  0.4517 -2.8638
 9302TIP3   OH249396   1.036   3.489  11.212 -0.3927 -1.1804  0.0518
 9302TIP3    H149397   1.039   3.408  11.264  0.3625 -2.0608 -1.3173
 9302TIP3    H249398   1.105   3.479  11.147 -1.4833 -0.2469 -1.3214
 9303TIP3   OH249399   4.172   5.371   0.514  0.0067 -0.0921 -0.0403
 9303TIP3    H149400   4.217   5.338   0.436  0.3279  0.9294 -0.3094
 9303TIP3    H249401   4.188   5.305   0.581  0.3953 -0.6097 -0.6284
 9304TIP3   OH249402   5.121   1.751  12.339 -0.3127 -0.0573  0.2903
 9304TIP3    H149403   5.201   1.783  12.379  0.2837  2.5248 -2.6132
 9304TIP3    H249404   5.138   1.658  12.324  1.6676  0.1843  0.7430
 9305TIP3   OH249405   5.793   6.303   0.448  0.4227  0.2192 -0.9604
 9305TIP3    H149406   5.797   6.390   0.486  1.0982  0.3206 -1.2466
 9305TIP3    H249407   5.838   6.311   0.364 -2.5121  0.4095 -2.6415
 9306TIP3   OH249408   4.667   5.118  10.859 -0.2629  0.2683  0.3348
 9306TIP3    H149409   4.578   5.115  10.824 -0.0966  0.0218 -0.0752
 9306TIP3    H249410   4.702   5.202  10.830 -0.1969  0.1551  0.0896
 9307TIP3   OH249411   5.432   4.849   1.021 -0.4854  0.0366  0.1945
 9307TIP3    H149412   5.364   4.785   1.044 -1.3604  0.2752 -1.5546
 9307TIP3    H249413   5.385   4.932   1.013  0.3682  0.6044  0.8505
 9308TIP3   OH249414   3.952   1.153  14.871 -0.1283  0.1607  0.4564
 9308TIP3    H149415   3.865   1.193  14.868 -0.0731  0.2498 -0.7856
 9308TIP3    H249416   3.997   1.188  14.793  1.2566  0.6262  1.4114
 9309TIP3   OH249417   0.603   2.753   1.916  0.2154 -0.0002 -0.0809
 9309TIP3    H149418   0.595   2.821   1.850  0.7651  0.3818  0.2440
 9309TIP3    H249419   0.695   2.753   1.941  0.3301 -1.2056 -0.4386
 9310TIP3   OH249420   0.121   1.386  11.166 -0.6448 -0.1342  0.2178
 9310TIP3    H149421   0.157   1.364  11.080 -0.9152 -0.8644  0.2837
 9310TIP3    H249422   0.141   1.479  11.177  0.2391 -0.2565 -0.2189
 9311TIP3   OH249423   4.453   4.952  10.612  0.2640  0.0399 -0.1199
 9311TIP3    H149424   4.369   4.908  10.626  0.6186 -0.6428 -0.1384
 9311TIP3    H249425   4.458   5.016  10.683 -0.3104  0.1404 -0.1668
 9312TIP3   OH249426   5.654   4.972   1.196 -0.6482  0.2945  0.4104
 9312TIP3    H149427   5.680   4.898   1.141  0.6247  0.8068  0.2781
 9312TIP3    H249428   5.598   4.934   1.263 -0.4141 -0.7023  0.0547
 9313TIP3   OH249429   5.945   1.239  15.858 -0.3375 -0.5663  0.0877
 9313TIP3    H149430   5.912   1.156  15.893 -1.5308  0.6488  2.0413
 9313TIP3    H249431   5.937   1.300  15.931  3.7714  0.5439 -0.1721
 9314TIP3   OH249432   5.497   6.259   6.034  0.1683  0.1105  0.0142
 9314TIP3    H149433   5.464   6.348   6.037 -3.4373 -1.0566 -0.7172
 9314TIP3    H249434   5.502   6.232   6.126  0.7036  0.8411  0.2052
 9315TIP3   OH249435   1.607   6.176   5.001 -0.3446 -0.0361  0.1709
 9315TIP3    H149436   1.559   6.201   4.922  0.3458  0.2306 -0.1791
 9315TIP3    H249437   1.616   6.258   5.051 -1.7478 -0.4048  1.0879
 9316TIP3   OH249438   4.451   5.852  11.514  0.4893  1.3114 -0.2850
 9316TIP3    H149439   4.463   5.781  11.577 -0.6505 -0.0864 -1.5537
 9316TIP3    H249440   4.362   5.841  11.483  1.0888  1.7969 -2.3127
 9317TIP3   OH249441   3.973   1.544   5.804  0.1097  0.2433 -0.0273
 9317TIP3    H149442   3.942   1.467   5.852  1.8761 -1.1315 -0.9847
 9317TIP3    H249443   4.068   1.540   5.810  0.2500  2.2466 -0.3220
 9318TIP3   OH249444   6.556   3.748  11.285 -0.4875  0.1161 -0.0552
 9318TIP3    H149445   6.538   3.840  11.304  1.7648  0.3825  1.0555
 9318TIP3    H249446   6.635   3.749  11.232 -1.0281 -1.1702 -0.9452
 9319TIP3   OH249447   6.506   1.763  16.133  0.3401  0.2738 -0.0986
 9319TIP3    H149448   6.592   1.803  16.116  0.0337  0.4016 -1.4752
 9319TIP3    H249449   6.493   1.705  16.058 -0.6769  0.0759  0.2285
 9320TIP3   OH249450   5.323   3.534   5.265  0.4603 -0.3431  0.2464
 9320TIP3    H149451   5.368   3.557   5.183  0.1993 -2.8710 -0.6784
 9320TIP3    H249452   5.393   3.507   5.324  0.8351  2.9727  1.5462
 9321TIP3   OH249453   6.221   4.432  15.620  0.0475  0.6790 -0.0064
 9321TIP3    H149454   6.152   4.368  15.601  1.4208 -0.9506  0.1658
 9321TIP3    H249455   6.301   4.389  15.591  1.4326  0.9910  2.9627
 9322TIP3   OH249456   4.520   1.594  11.555  0.6233 -0.3418  0.0392
 9322TIP3    H149457   4.579   1.597  11.479  0.9903  0.0270  0.3348
 9322TIP3    H249458   4.506   1.685  11.578 -0.5931 -0.3991 -0.4204
 9323TIP3   OH249459   1.538   1.513   0.268 -0.0184 -0.1157 -0.4282
 9323TIP3    H149460   1.464   1.559   0.306  0.3807 -1.4753  2.2740
 9323TIP3    H249461   1.519   1.420   0.283  0.9962 -0.6624 -2.1688
 9324TIP3   OH249462   1.568   6.848  12.183  0.1184 -0.3396  0.2364
 9324TIP3    H149463   1.597   6.850  12.092 -0.7619 -2.3397 -0.1418
 9324TIP3    H249464   1.625   6.784  12.225 -0.2850 -0.3485  0.7765
 9325TIP3   OH249465   6.030   6.229  15.942 -0.4925 -0.0059 -0.1949
 9325TIP3    H149466   5.958   6.173  15.913  1.0100 -1.7266 -0.8381
 9325TIP3    H249467   6.024   6.228  16.037 -3.1280  2.4820 -0.2092
 9326TIP3   OH249468   2.771   6.608   4.143 -0.3202  0.4818 -0.1567
 9326TIP3    H149469   2.814   6.531   4.104 -0.8283 -0.2504  0.6974
 9326TIP3    H249470   2.813   6.683   4.101 -0.0725 -0.2658 -1.2863
 9327TIP3   OH249471   6.642   4.423   4.224  0.1462 -0.0577 -0.2714
 9327TIP3    H149472   6.648   4.502   4.278  0.0043 -0.1740 -0.0859
 9327TIP3    H249473   6.719   4.372   4.249 -1.7738 -1.8117  2.5372
 9328TIP3   OH249474   6.851   3.639  12.125 -0.8295  0.2568 -0.2176
 9328TIP3    H149475   6.819   3.702  12.190  0.3612  0.5438  0.1120
 9328TIP3    H249476   6.835   3.681  12.041 -0.8792  0.5971 -0.0379
 9329TIP3   OH249477   1.274   0.080  15.804  0.4359  0.2756 -0.4180
 9329TIP3    H149478   1.233   0.119  15.881  1.2951 -0.0005  0.1995
 9329TIP3    H249479   1.205   0.027  15.764  0.0976  0.0626  0.4138
 9330TIP3   OH249480   0.182   5.744   5.914  0.1916 -0.2167  0.1876
 9330TIP3    H149481   0.165   5.656   5.949  1.2828  0.3415  2.2688
 9330TIP3    H249482   0.107   5.796   5.942 -0.8150 -0.5862 -1.6623
 9331TIP3   OH249483   3.182   4.255   0.687 -0.4628  0.2337 -0.0068
 9331TIP3    H149484   3.133   4.337   0.678  2.1543  2.0759  1.1615
 9331TIP3    H249485   3.234   4.249   0.607  0.9500  0.9085  0.8352
 9332TIP3   OH249486   1.636   1.453  11.677 -0.3596  0.2623  0.1368
 9332TIP3    H149487   1.707   1.517  11.677  0.4914 -0.5280  3.3176
 9332TIP3    H249488   1.576   1.483  11.744 -0.1131 -1.9933  1.4676
 9333TIP3   OH249489   6.570   5.842   5.415  0.0785 -0.2832 -0.7108
 9333TIP3    H149490   6.660   5.844   5.446  0.3410 -0.9855 -1.3877
 9333TIP3    H249491   6.522   5.899   5.475  0.9348 -0.0536 -0.2335
 9334TIP3   OH249492   4.215   0.010  12.720 -0.3140 -0.3039 -0.3954
 9334TIP3    H149493   4.196  -0.018  12.630 -1.5372  0.1747 -0.3084
 9334TIP3    H249494   4.187  -0.063  12.774  0.4803 -0.6168 -0.3975
 9335TIP3   OH249495   0.076   4.443  15.852  0.1144  0.5620  0.1135
 9335TIP3    H149496   0.109   4.355  15.835 -1.3760 -0.6445  2.9201
 9335TIP3    H249497  -0.011   4.444  15.811 -0.5142  0.1510  1.4069
 9336TIP3   OH249498   4.355   6.623   5.500 -0.8466  0.0586 -0.1215
 9336TIP3    H149499   4.276   6.637   5.448 -0.6362 -1.2398 -0.8327
 9336TIP3    H249500   4.329   6.560   5.567 -0.4714 -0.2125 -0.2283
 9337TIP3   OH249501   4.509   3.448  14.966  0.2117  0.1104  0.0717
 9337TIP3    H149502   4.454   3.386  15.014 -0.6928 -0.1180 -1.2201
 9337TIP3    H249503   4.475   3.534  14.991  0.5739  0.0546  0.7971
 9338TIP3   OH249504   1.570   4.522   3.933  0.8224  0.3093 -0.2315
 9338TIP3    H149505   1.523   4.477   4.004  0.4198  0.0907 -0.6325
 9338TIP3    H249506   1.562   4.463   3.858 -0.0475  1.2210 -0.8732
 9339TIP3   OH249507   3.593   5.208   5.151  0.2401  0.0062  0.0094
 9339TIP3    H149508   3.646   5.209   5.231 -0.1597  0.5139  0.2725
 9339TIP3    H249509   3.503   5.207   5.181  0.0844  0.2242 -0.4341
 9340TIP3   OH249510   1.665   0.960  16.392 -0.5609  0.3860 -0.5395
 9340TIP3    H149511   1.713   0.884  16.425 -0.3427  0.2607 -1.1287
 9340TIP3    H249512   1.728   1.005  16.335 -0.6750  1.0301 -0.1601
 9341TIP3   OH249513   2.252   3.197   1.162 -0.0994  0.1090  0.7292
 9341TIP3    H149514   2.232   3.115   1.116  2.1493  0.9576 -2.0728
 9341TIP3    H249515   2.167   3.240   1.171 -0.9012 -0.9052 -1.2167
 9342TIP3   OH249516   0.500   3.889  15.890 -0.2715 -0.5574  0.0139
 9342TIP3    H149517   0.561   3.828  15.849  0.3163 -0.3056  0.5074
 9342TIP3    H249518   0.513   3.972  15.845 -1.2817 -0.8516 -0.8597
 9343TIP3   OH249519   5.201   5.060  11.731  0.5491  0.5496  0.3150
 9343TIP3    H149520   5.248   5.130  11.685  1.2858  1.2874  2.0716
 9343TIP3    H249521   5.141   5.106  11.790 -0.0323 -0.3412  0.4410
 9344TIP3   OH249522   5.157   6.760   4.158  0.5393  0.0190  0.1261
 9344TIP3    H149523   5.228   6.804   4.111  1.4464 -1.9314 -0.4240
 9344TIP3    H249524   5.177   6.774   4.250  1.3363 -0.0419 -0.0330
 9345TIP3   OH249525   3.181   0.040   3.779  0.2078 -0.1387 -0.1152
 9345TIP3    H149526   3.139   0.092   3.847  0.1696  0.0773 -0.3050
 9345TIP3    H249527   3.244  -0.014   3.826 -0.8476 -1.0688  0.2831
 9346TIP3   OH249528   6.742   5.118  13.930 -0.0131  0.5372  0.0549
 9346TIP3    H149529   6.829   5.142  13.961  1.2334 -1.9707 -1.1772
 9346TIP3    H249530   6.735   5.158  13.843 -0.3568  1.2101  0.3838
 9347TIP3   OH249531   0.233   0.680   3.727 -0.0065  0.0087 -0.0828
 9347TIP3    H149532   0.305   0.734   3.694  0.7928 -0.8810  0.1854
 9347TIP3    H249533   0.226   0.608   3.665  0.2570 -0.6451  0.6224
 9348TIP3   OH249534   3.566   3.329  16.253 -0.0316  0.1077  0.4280
 9348TIP3    H149535   3.638   3.386  16.281  1.0238 -0.1867 -1.5029
 9348TIP3    H249536   3.523   3.303  16.334  0.9112  1.7569  1.5126
 9349TIP3   OH249537   1.942   2.402   0.361  0.0528 -0.1431  0.5664
 9349TIP3    H149538   2.019   2.449   0.391 -0.6835 -1.2219  4.7126
 9349TIP3    H249539   1.976   2.324   0.317  1.2665  0.6561  0.0503
 9350TIP3   OH249540   0.819   4.076   3.233  0.3056 -0.4560  0.2696
 9350TIP3    H149541   0.796   4.020   3.307  0.1892 -0.7376  0.0207
 9350TIP3    H249542   0.760   4.151   3.241  2.5415  1.2444  2.4389
 9351TIP3   OH249543   3.060   0.751  11.368 -0.6504 -0.6511  0.0420
 9351TIP3    H149544   3.118   0.743  11.292 -1.1188  2.8609 -0.8819
 9351TIP3    H249545   2.972   0.733  11.333 -0.6597 -1.0203  0.2488
 9352TIP3   OH249546   2.669   4.992   6.130  0.2318  0.0423  0.1706
 9352TIP3    H149547   2.654   5.065   6.189  0.3468  1.6941 -1.7385
 9352TIP3    H249548   2.762   4.998   6.107  0.1289 -0.3780 -0.4016
 9353TIP3   OH249549   6.430   6.587  15.657  0.1082 -0.7122  0.5162
 9353TIP3    H149550   6.346   6.564  15.618 -0.2598  0.5213  0.5279
 9353TIP3    H249551   6.407   6.637  15.736  0.8533 -0.6360  0.6948
 9354TIP3   OH249552   5.858   1.563   5.748  0.2319 -0.4342 -0.3181
 9354TIP3    H149553   5.889   1.641   5.702  0.7207  0.6315  1.6727
 9354TIP3    H249554   5.903   1.490   5.705  2.1687  0.6865 -0.3125
 9355TIP3   OH249555   5.108   1.709  10.459 -0.4289 -0.0600  0.1648
 9355TIP3    H149556   5.171   1.772  10.423 -0.5954  0.2362  0.3781
 9355TIP3    H249557   5.053   1.762  10.517 -0.7243 -0.3609  0.1617
 9356TIP3   OH249558   5.652   2.277  16.016 -0.5981 -0.0243 -0.0665
 9356TIP3    H149559   5.635   2.200  16.069 -0.0080  0.0956  0.2971
 9356TIP3    H249560   5.718   2.326  16.064 -2.6992  1.9686  0.9638
 9357TIP3   OH249561   3.696   5.393   3.348  0.4346 -0.8219 -0.5179
 9357TIP3    H149562   3.683   5.424   3.438  0.0006 -0.5735 -0.6606
 9357TIP3    H249563   3.738   5.308   3.357 -0.7817 -1.3914 -0.0392
 9358TIP3   OH249564   2.150   1.153   6.660  0.3687 -0.0730  0.1967
 9358TIP3    H149565   2.159   1.071   6.612  0.9388  0.0751  0.0376
 9358TIP3    H249566   2.229   1.159   6.713  0.5360  0.5707 -0.1091
 9359TIP3   OH249567   6.716   1.576   5.001  0.8154 -0.0183 -0.3411
 9359TIP3    H149568   6.715   1.639   4.928  0.5760 -0.3825 -0.6555
 9359TIP3    H249569   6.639   1.598   5.053  2.0010  1.4633  0.8635
 9360TIP3   OH249570   4.881   2.709  16.757 -0.4373  0.3567 -0.2271
 9360TIP3    H149571   4.895   2.794  16.797  1.1713  0.3083 -0.6022
 9360TIP3    H249572   4.885   2.647  16.830 -2.0351  0.6178  0.0993
 9361TIP3   OH249573   0.438   5.083  13.702 -0.4089  0.2273 -0.0928
 9361TIP3    H149574   0.394   5.073  13.618 -2.9930  1.2987  1.0267
 9361TIP3    H249575   0.398   5.016  13.758  2.2454 -1.3974 -0.0060
 9362TIP3   OH249576   4.770   0.721  14.593  0.7400  0.2172 -0.3003
 9362TIP3    H149577   4.807   0.720  14.682 -0.1451  0.5227  0.0896
 9362TIP3    H249578   4.758   0.629  14.571  0.1436  0.1475  0.2698
 9363TIP3   OH249579   5.566   5.566   6.535 -0.0659  0.0499  0.0149
 9363TIP3    H149580   5.489   5.614   6.566  0.6577  0.4238  1.3121
 9363TIP3    H249581   5.610   5.627   6.475  1.7102  1.7821  2.8491
 9364TIP3   OH249582   2.928   6.633  15.825  0.1728 -0.0170  0.0119
 9364TIP3    H149583   2.851   6.687  15.838  0.4349  0.4165 -0.1932
 9364TIP3    H249584   2.908   6.550  15.869 -1.5017 -0.9369 -2.2354
 9365TIP3   OH249585   4.443   4.472   2.338  0.1178 -0.2518 -0.1677
 9365TIP3    H149586   4.455   4.567   2.335 -0.4740 -0.1513  0.4094
 9365TIP3    H249587   4.510   4.437   2.278 -0.8946  0.6309 -1.8913
 9366TIP3   OH249588   4.313   4.802   4.245  0.2431 -0.8304  0.0416
 9366TIP3    H149589   4.324   4.742   4.318  1.8635  0.7482  1.1816
 9366TIP3    H249590   4.400   4.841   4.233  0.1601 -1.3245 -3.0192
 9367TIP3   OH249591   0.769   6.570   5.041  0.3840  0.0005  0.0311
 9367TIP3    H149592   0.684   6.532   5.062  0.1504  0.9812  0.9517
 9367TIP3    H249593   0.779   6.643   5.102  0.9615  1.2043 -1.4291
 9368TIP3   OH249594   1.456   5.677  15.362 -0.0609 -0.1640  0.2699
 9368TIP3    H149595   1.367   5.640  15.372 -0.3887  0.3113 -0.8135
 9368TIP3    H249596   1.445   5.748  15.300  1.1286 -0.2158 -0.0045
 9369TIP3   OH249597   2.837   1.647   1.499 -0.8111  0.2749  0.1567
 9369TIP3    H149598   2.779   1.594   1.444 -0.4481 -1.5380  1.4373
 9369TIP3    H249599   2.876   1.585   1.560  0.6129  1.8450  0.9320
 9370TIP3   OH249600   1.944   2.981  15.021  0.0464  0.5693 -0.0159
 9370TIP3    H149601   1.865   2.958  14.972 -0.3344 -0.5170  1.0538
 9370TIP3    H249602   1.916   2.979  15.113  1.0156  1.4407  0.3169
 9371TIP3   OH249603   2.264   0.641   5.597 -0.3387  0.2474 -0.5839
 9371TIP3    H149604   2.341   0.625   5.543  0.0393 -1.2659  0.3626
 9371TIP3    H249605   2.298   0.684   5.676 -0.6877  1.0154 -0.8379
 9372TIP3   OH249606   3.026   0.856   0.737 -0.4136 -0.2508 -0.6564
 9372TIP3    H149607   3.087   0.917   0.779 -1.2331  1.3594 -1.6885
 9372TIP3    H249608   3.032   0.876   0.644 -1.6456 -0.8607 -0.8931
 9373TIP3   OH249609   4.472   4.992   0.246 -0.3307  0.3787 -0.4795
 9373TIP3    H149610   4.548   5.048   0.254 -0.0353  0.3443 -2.4385
 9373TIP3    H249611   4.505   4.904   0.264 -0.2766  0.5462  0.2636
 9374TIP3   OH249612   0.131   5.531  13.309 -0.5951  0.2940  0.2433
 9374TIP3    H149613   0.196   5.574  13.253 -2.1392  1.5751 -0.6169
 9374TIP3    H249614   0.073   5.486  13.248 -1.1489  0.0458  0.9400
 9375TIP3   OH249615   0.591   1.720   1.706 -0.0841 -0.0095  0.3748
 9375TIP3    H149616   0.666   1.778   1.721 -0.4647  0.0936  2.0605
 9375TIP3    H249617   0.614   1.673   1.625  0.3183  2.2986 -0.9535
 9376TIP3   OH249618   4.008   2.452  14.249 -0.5386 -0.6543 -0.0998
 9376TIP3    H149619   4.076   2.519  14.248 -0.8124 -0.3697  0.1276
 9376TIP3    H249620   4.050   2.375  14.286  0.3150 -1.1876 -2.0654
 9377TIP3   OH249621   1.526   2.822   1.755  0.4983 -0.0451 -0.0403
 9377TIP3    H149622   1.575   2.893   1.712  0.6665  0.2959  0.6948
 9377TIP3    H249623   1.586   2.788   1.821 -0.0007 -0.0978  0.3938
 9378TIP3   OH249624   5.734   4.430  12.967 -0.5582 -0.8489 -0.5758
 9378TIP3    H149625   5.821   4.455  12.936  0.1063 -1.1056  1.0040
 9378TIP3    H249626   5.747   4.348  13.014 -1.8039 -1.3176 -0.9820
 9379TIP3   OH249627   3.703   2.243  12.337 -0.1024  0.5091 -0.1411
 9379TIP3    H149628   3.761   2.207  12.271 -1.1816 -0.5914 -0.5252
 9379TIP3    H249629   3.754   2.240  12.418  0.6042  0.1800 -0.5894
 9380TIP3   OH249630   4.478   5.020  14.241 -0.0237  0.0543  0.6857
 9380TIP3    H149631   4.412   5.080  14.276 -0.0964  2.8293 -3.4946
 9380TIP3    H249632   4.545   5.076  14.203  0.5396 -2.3956 -2.4564
 9381TIP3   OH249633   1.804   1.625   4.435  0.3393  0.2418 -0.8898
 9381TIP3    H149634   1.744   1.660   4.368 -1.1337  0.1604  0.3390
 9381TIP3    H249635   1.748   1.603   4.509  2.0204  1.3178  0.8227
 9382TIP3   OH249636   3.588   6.681  16.077  0.0612 -0.2519  0.2425
 9382TIP3    H149637   3.509   6.729  16.099 -1.8309 -3.5654  1.4715
 9382TIP3    H249638   3.644   6.688  16.154 -0.1932 -0.0192  0.4054
 9383TIP3   OH249639   2.477   4.565   0.898 -0.8968  0.2404 -0.3869
 9383TIP3    H149640   2.563   4.598   0.927 -0.9658  0.3982 -0.3608
 9383TIP3    H249641   2.447   4.630   0.835 -0.6909 -0.1697 -0.9115
 9384TIP3   OH249642   5.746   6.291  16.174 -0.0665 -0.0232 -0.0595
 9384TIP3    H149643   5.841   6.282  16.183  0.0457 -0.2088 -1.2834
 9384TIP3    H249644   5.723   6.234  16.100 -1.1322  0.0366  0.2075
 9385TIP3   OH249645   3.188   0.694  10.637  0.1888 -0.2409  0.1959
 9385TIP3    H149646   3.266   0.750  10.634 -0.7764  1.1400 -0.6736
 9385TIP3    H249647   3.166   0.688  10.729  0.3536  0.7864  0.3151
 9386TIP3   OH249648   5.003   5.326  13.630  0.0029 -0.0204 -0.0319
 9386TIP3    H149649   4.986   5.313  13.723 -0.0673 -0.5519 -0.1177
 9386TIP3    H249650   5.040   5.243  13.600  1.1985  0.5447 -0.2063
 9387TIP3   OH249651   3.004   6.429  16.255 -0.4970  0.2724  0.4186
 9387TIP3    H149652   3.004   6.452  16.162  0.2253 -1.1333  0.0357
 9387TIP3    H249653   2.938   6.486  16.294 -0.6074  1.0889 -0.9011
 9388TIP3   OH249654   3.844   0.364   6.414 -0.4597  0.0407  0.2574
 9388TIP3    H149655   3.760   0.403   6.441  0.4135  1.8478  0.5581
 9388TIP3    H249656   3.821   0.281   6.373 -2.3126  0.0086  1.2633
 9389TIP3   OH249657   6.068   3.116   1.885  0.3697 -0.6321 -0.1549
 9389TIP3    H149658   5.978   3.147   1.892  0.4979 -0.5747  1.8469
 9389TIP3    H249659   6.063   3.023   1.909  1.0499 -0.2115  1.7795
 9390TIP3   OH249660   2.124   2.333  16.884 -0.0910 -0.8430 -0.0073
 9390TIP3    H149661   2.074   2.377  16.953 -0.4671 -1.0752 -0.1362
 9390TIP3    H249662   2.095   2.374  16.803  0.5916 -0.3355 -0.0081
 9391TIP3   OH249663   0.604   0.647   1.705 -0.8268  0.2418  0.2910
 9391TIP3    H149664   0.594   0.741   1.721 -0.8574  0.1112  1.0458
 9391TIP3    H249665   0.538   0.627   1.639 -2.1767  0.3805  1.5425
 9392TIP3   OH249666   3.580   1.580   2.230  0.1334  0.7227  0.3020
 9392TIP3    H149667   3.656   1.618   2.185 -0.3562  1.0792 -0.2383
 9392TIP3    H249668   3.530   1.656   2.259  1.0851  0.5540  2.6480
 9393TIP3   OH249669   1.475   0.516   2.564  0.4616 -0.2819  0.1540
 9393TIP3    H149670   1.440   0.462   2.493 -0.4268 -0.3982  0.6581
 9393TIP3    H249671   1.482   0.456   2.638  1.8333 -0.2738  0.0526
 9394TIP3   OH249672   3.809   2.637   5.138 -0.1249  0.2004  0.3488
 9394TIP3    H149673   3.780   2.675   5.222 -0.6339  1.1165 -0.2224
 9394TIP3    H249674   3.905   2.640   5.143 -0.0959 -1.3130  1.5731
 9395TIP3   OH249675   4.708   3.227   2.215 -0.2164  0.4145  0.4250
 9395TIP3    H149676   4.747   3.300   2.264 -2.2733  1.2563  0.8893
 9395TIP3    H249677   4.614   3.242   2.220 -0.7035 -2.1655  0.3241
 9396TIP3   OH249678   3.030   4.371   4.065 -0.1545  0.2233 -0.2896
 9396TIP3    H149679   3.091   4.433   4.106 -0.1455 -0.8937  1.4998
 9396TIP3    H249680   2.954   4.424   4.040  0.1290  1.0636  0.5766
 9397TIP3   OH249681   1.463   0.971   5.815  0.4685 -0.3464 -0.0672
 9397TIP3    H149682   1.482   0.922   5.895  0.6337 -0.3979 -0.1394
 9397TIP3    H249683   1.540   1.025   5.801  1.1530 -1.5633 -1.1229
 9398TIP3   OH249684   1.669   3.395  12.350  0.4117  0.1390 -0.6211
 9398TIP3    H149685   1.645   3.455  12.279  0.9732  0.2626 -0.7129
 9398TIP3    H249686   1.603   3.410  12.418  1.8328  2.6152  0.3634
 9399TIP3   OH249687   2.782   5.741   3.449 -0.5821 -0.2098 -0.7396
 9399TIP3    H149688   2.820   5.666   3.496  0.2231  2.2086  2.9545
 9399TIP3    H249689   2.694   5.749   3.484 -1.3156 -0.4054 -2.4518
 9400TIP3   OH249690   5.963   4.063   2.078  0.6049 -0.3356 -0.6824
 9400TIP3    H149691   5.987   4.085   1.988  0.1943 -1.2750 -1.0318
 9400TIP3    H249692   5.903   4.133   2.104  0.3518 -0.3033 -1.3132
 9401TIP3   OH249693   3.693   1.791  16.084  0.0783  0.0682  0.6816
 9401TIP3    H149694   3.620   1.768  16.140  0.0600 -1.4278  0.0947
 9401TIP3    H249695   3.712   1.882  16.104 -1.8109  0.4209  0.9839
 9402TIP3   OH249696   2.225   4.343  12.675 -0.6932 -0.3564 -0.0425
 9402TIP3    H149697   2.221   4.358  12.581  1.6407 -1.1930 -0.3288
 9402TIP3    H249698   2.172   4.264  12.689 -1.0566 -0.2255 -0.6450
 9403TIP3   OH249699   3.863   1.090   2.359 -0.1180 -0.0217 -0.2432
 9403TIP3    H149700   3.858   1.144   2.438  0.0441  0.2588 -0.4223
 9403TIP3    H249701   3.782   1.040   2.358 -0.7106  0.9298 -0.5817
 9404TIP3   OH249702   4.714   5.311  15.426  0.0215  0.1606 -0.0467
 9404TIP3    H149703   4.680   5.363  15.353  0.1986  2.2392  1.2575
 9404TIP3    H249704   4.804   5.342  15.437  0.3418 -0.8958  0.3925
 9405TIP3   OH249705   1.283   4.819   6.050  0.0943 -0.2649  0.1088
 9405TIP3    H149706   1.202   4.867   6.068  0.9078  0.9457  0.5833
 9405TIP3    H249707   1.281   4.806   5.955 -1.4051 -1.6582  0.2758
 9406TIP3   OH249708   5.901   4.243  12.039  0.4536  0.0436 -0.1881
 9406TIP3    H149709   5.927   4.334  12.052  3.1539 -0.4895 -1.1702
 9406TIP3    H249710   5.841   4.246  11.964 -1.6672  1.2192  1.4350
 9407TIP3   OH249711   1.356   5.179   0.609  0.4495  0.1285  0.1315
 9407TIP3    H149712   1.443   5.219   0.603  0.1475  0.6706 -0.9127
 9407TIP3    H249713   1.374   5.088   0.632  1.1787  0.6661  1.8317
 9408TIP3   OH249714   1.491   3.695   3.918 -0.3989  0.2429 -0.3258
 9408TIP3    H149715   1.444   3.613   3.931 -2.4000  0.8600 -2.7661
 9408TIP3    H249716   1.535   3.712   4.001 -1.7245 -2.1619  0.9515
 9409TIP3   OH249717   5.366   5.979   4.138  0.1670  0.7661 -0.4948
 9409TIP3    H149718   5.378   5.984   4.043  1.5033 -1.7881 -0.5508
 9409TIP3    H249719   5.296   5.916   4.151  1.6684 -0.8426  0.1894
 9410TIP3   OH249720   4.657   0.976   5.988  0.5496 -0.1177  0.3939
 9410TIP3    H149721   4.580   0.919   5.986  1.1010 -0.9254 -2.2083
 9410TIP3    H249722   4.623   1.063   6.006 -0.8827 -0.5813  0.0238
 9411TIP3   OH249723   3.906   3.520   6.118  0.0252  0.2396  0.2648
 9411TIP3    H149724   3.919   3.596   6.061  0.6982 -0.0909 -0.0298
 9411TIP3    H249725   3.871   3.452   6.061  0.8243 -0.1331  0.2138
 9412TIP3   OH249726   0.615   2.310  14.242 -0.3985 -0.1045 -0.5246
 9412TIP3    H149727   0.685   2.349  14.190  0.8262 -1.4432  0.0287
 9412TIP3    H249728   0.655   2.296  14.328 -1.8759  0.5986  0.3176
 9413TIP3   OH249729   6.340   3.780   5.457  0.4794 -0.7632 -0.4420
 9413TIP3    H149730   6.279   3.753   5.389  1.2510 -0.4753 -1.2687
 9413TIP3    H249731   6.342   3.707   5.519  0.7208 -1.5890 -1.3921
 9414TIP3   OH249732   4.064   5.359   6.268  0.7281 -0.0617  0.3611
 9414TIP3    H149733   4.151   5.322   6.284 -0.2905 -2.5246  0.5225
 9414TIP3    H249734   4.074   5.410   6.187  2.6106  0.8967  1.1274
 9415TIP3   OH249735   5.835   4.269  12.690 -0.0076  0.3619  0.0329
 9415TIP3    H149736   5.776   4.243  12.618  0.6770 -0.5460 -0.2203
 9415TIP3    H249737   5.816   4.206  12.760  0.8043 -0.0825 -0.1319
 9416TIP3   OH249738   1.653   4.497   0.665 -0.2436 -0.4756  0.3931
 9416TIP3    H149739   1.629   4.507   0.573  0.6166  2.2711  0.3630
 9416TIP3    H249740   1.583   4.542   0.713  1.7365  2.6168  0.6487
 9417TIP3   OH249741   6.079   1.976  14.919  0.4193 -0.3254  0.2379
 9417TIP3    H149742   6.171   1.971  14.896  0.2502 -1.3944 -0.2546
 9417TIP3    H249743   6.063   1.901  14.975 -0.4076 -0.8623 -0.6723
 9418TIP3   OH249744   4.746   1.063   5.721 -0.1570 -0.1956 -0.5583
 9418TIP3    H149745   4.686   1.060   5.796  0.5701  0.1906  0.0617
 9418TIP3    H249746   4.783   0.975   5.716  1.3378  0.2948  0.8694
 9419TIP3   OH249747   1.759   6.693   5.149 -1.1341 -0.3762 -0.1463
 9419TIP3    H149748   1.722   6.746   5.220  0.2261  0.6527 -0.1612
 9419TIP3    H249749   1.840   6.657   5.185 -1.2202 -1.1295 -0.6838
 9420TIP3   OH249750   3.759   4.748  13.391 -0.2398 -0.1093  0.1153
 9420TIP3    H149751   3.817   4.676  13.366  1.2432  0.9974  0.2188
 9420TIP3    H249752   3.754   4.743  13.486  0.1771  0.1443  0.1529
 9421TIP3   OH249753   2.817   6.676   5.067 -0.0435 -0.2788  0.3032
 9421TIP3    H149754   2.896   6.679   5.014 -1.0418 -0.6444 -1.2635
 9421TIP3    H249755   2.786   6.767   5.068 -1.4155 -0.6384 -2.0172
 9422TIP3   OH249756   6.794   6.132   3.085 -0.1382 -0.1056 -0.5656
 9422TIP3    H149757   6.800   6.048   3.130 -2.0352  0.5377  1.0476
 9422TIP3    H249758   6.704   6.136   3.053 -0.7159  1.9916  1.0253
 9423TIP3   OH249759   0.722   4.822   4.245 -0.2514  0.2929  0.8867
 9423TIP3    H149760   0.700   4.883   4.175  1.6646  0.7098  0.5995
 9423TIP3    H249761   0.667   4.745   4.229  1.0058 -0.1353 -1.8299
 9424TIP3   OH249762   1.983   6.218  15.982 -0.8318 -0.1466  0.0974
 9424TIP3    H149763   2.036   6.292  16.011 -1.5242  0.5558 -0.3952
 9424TIP3    H249764   2.014   6.144  16.035  2.3503 -0.3678 -1.8503
 9425TIP3   OH249765   2.166   2.411  15.138  0.3358  0.4432  0.3928
 9425TIP3    H149766   2.255   2.401  15.106 -0.3629 -1.5770 -1.1458
 9425TIP3    H249767   2.122   2.463  15.071  0.2888  1.2844  1.0574
 9426TIP3   OH249768   5.324   6.375   5.021  0.4087  0.6544  0.2957
 9426TIP3    H149769   5.255   6.316   5.051  0.4714  1.2819  1.7770
 9426TIP3    H249770   5.318   6.373   4.926 -0.3745 -0.7966  0.3474
 9427TIP3   OH249771   3.540   6.512   4.092 -0.3812  0.2898  0.5195
 9427TIP3    H149772   3.521   6.461   4.013  1.6618  3.2636 -2.1130
 9427TIP3    H249773   3.455   6.550   4.116 -1.3286 -1.8073  0.7476
 9428TIP3   OH249774   2.184   4.014   3.626 -0.2457  0.0941  0.3367
 9428TIP3    H149775   2.164   4.055   3.541  0.4340  1.3144  0.7376
 9428TIP3    H249776   2.280   4.011   3.629 -0.1123  2.7829  2.2340
 9429TIP3   OH249777   0.634   2.336  15.132 -0.0381  0.0180  0.0001
 9429TIP3    H149778   0.640   2.386  15.051 -2.0172 -0.3077 -0.4013
 9429TIP3    H249779   0.581   2.391  15.191  1.9571  0.5763  1.3887
 9430TIP3   OH249780   1.119   2.674  14.200  0.0022  0.0009 -0.5918
 9430TIP3    H149781   1.183   2.735  14.238 -0.1394  0.3309 -0.8769
 9430TIP3    H249782   1.057   2.658  14.272 -0.1264  0.4286 -0.6021
 9431TIP3   OH249783   6.623   3.038  14.387 -0.4707 -0.0235 -0.4281
 9431TIP3    H149784   6.612   3.092  14.465  1.2199 -0.2415  0.0168
 9431TIP3    H249785   6.576   2.957  14.406 -0.2607  0.0167  0.2806
 9432TIP3   OH249786   4.866   0.316   1.632  0.1212  0.6382 -0.1252
 9432TIP3    H149787   4.809   0.318   1.555 -2.3312  0.2342  1.5705
 9432TIP3    H249788   4.814   0.358   1.701  1.2994 -1.0586  1.8891
 9433TIP3   OH249789   2.671   3.893  14.480 -0.1348  0.9295  0.7523
 9433TIP3    H149790   2.696   3.903  14.572  0.0998  1.2744  0.6528
 9433TIP3    H249791   2.608   3.963  14.464 -0.7175  0.4393  0.8352
 9434TIP3   OH249792   1.264   0.590  15.699  0.2334 -0.1748  0.2134
 9434TIP3    H149793   1.235   0.627  15.616 -0.5408 -0.5681  0.2938
 9434TIP3    H249794   1.356   0.613  15.705  0.0507  0.7234 -0.2773
 9435TIP3   OH249795   4.521   5.921   5.299 -0.3344 -0.8483 -0.8305
 9435TIP3    H149796   4.567   5.874   5.368 -0.6072 -0.9893 -0.7435
 9435TIP3    H249797   4.549   5.878   5.218  0.5084 -0.2471 -0.8642
 9436TIP3   OH249798   3.018   5.160  16.407  0.1755  0.4545 -0.5727
 9436TIP3    H149799   2.995   5.244  16.446 -1.2068  0.6659 -1.7490
 9436TIP3    H249800   3.100   5.136  16.449 -0.3818  1.4531  1.1965
 9437TIP3   OH249801   6.550   0.243  13.640 -0.0053 -0.9056 -0.6103
 9437TIP3    H149802   6.571   0.184  13.568 -0.7815 -0.4952 -1.1818
 9437TIP3    H249803   6.484   0.196  13.691 -0.0741 -0.8486 -0.6454
 9438TIP3   OH249804   0.381   6.106  16.940 -0.8007 -0.2302  0.4257
 9438TIP3    H149805   0.317   6.136  17.003 -2.2854 -1.8972 -0.1995
 9438TIP3    H249806   0.357   6.150  16.858 -1.9738 -1.7216 -0.0956
 9439TIP3   OH249807   3.292   0.132  16.467  0.5004 -0.2566 -0.2343
 9439TIP3    H149808   3.279   0.220  16.500  1.1607  0.1951 -1.1432
 9439TIP3    H249809   3.329   0.144  16.379  0.4349 -1.4295 -0.4380
 9440TIP3   OH249810   4.711   3.057   1.805 -0.2668  0.1490  0.0635
 9440TIP3    H149811   4.791   3.036   1.854 -0.6103  1.1853  1.1122
 9440TIP3    H249812   4.721   3.149   1.780 -1.7815  0.7744  1.5814
 9441TIP3   OH249813   6.738   6.413   3.492  0.0249 -0.5201 -0.3821
 9441TIP3    H149814   6.670   6.472   3.460 -0.1093  0.0437  0.8887
 9441TIP3    H249815   6.794   6.398   3.416 -2.4453 -2.4132 -2.0035
 9442TIP3   OH249816   3.317   1.864   0.194 -0.4294 -0.2374  0.3245
 9442TIP3    H149817   3.319   1.812   0.275  1.9975 -0.4289  0.2364
 9442TIP3    H249818   3.386   1.825   0.140  0.0164  1.7305 -0.6146
 9443TIP3   OH249819   0.434   2.507   0.693  0.2370  0.0693  0.1393
 9443TIP3    H149820   0.389   2.497   0.609  0.3770 -1.4408  0.2165
 9443TIP3    H249821   0.520   2.466   0.679  0.4724  0.3046  0.8584
 9444TIP3   OH249822   5.732   5.554  15.243 -0.0302 -0.1212 -0.1205
 9444TIP3    H149823   5.639   5.569  15.260 -0.0141 -0.4413  0.2583
 9444TIP3    H249824   5.753   5.615  15.172  0.1448  2.0262  1.6526
 9445TIP3   OH249825   4.024   5.856   5.776 -0.5967 -0.2298  0.3410
 9445TIP3    H149826   4.016   5.943   5.815 -0.1552  0.0891 -0.2612
 9445TIP3    H249827   4.043   5.873   5.684 -1.0830 -0.9693  0.0951
 9446TIP3   OH249828   1.812   1.975   2.015 -0.2371  0.5050 -0.2717
 9446TIP3    H149829   1.843   1.885   2.016 -1.6241  0.0037  0.3735
 9446TIP3    H249830   1.725   1.970   1.975 -0.5148  1.4866  0.1730
 9447TIP3   OH249831   6.211   4.577   1.987 -0.1373  0.1114  0.2666
 9447TIP3    H149832   6.263   4.610   1.913  0.8291 -2.1881 -0.1612
 9447TIP3    H249833   6.243   4.626   2.063 -0.0894  1.4426 -0.5763
 9448TIP3   OH249834   5.997   5.140   4.034  0.1744  0.2947 -0.3970
 9448TIP3    H149835   6.017   5.126   3.941  0.7123 -1.8891  0.0083
 9448TIP3    H249836   6.064   5.092   4.081 -2.2573 -1.8958  1.0789
 9449TIP3   OH249837   2.506   2.627  11.774 -0.0608  0.6660  0.1975
 9449TIP3    H149838   2.502   2.583  11.858  0.5149  0.5113  0.1431
 9449TIP3    H249839   2.501   2.720  11.795  0.6485  0.6498  0.4388
 9450TIP3   OH249840   2.206   3.448  14.594  1.0491 -0.4419 -0.8403
 9450TIP3    H149841   2.203   3.392  14.517  1.3406 -1.8988  0.1717
 9450TIP3    H249842   2.299   3.450  14.619  1.1042  0.8053 -1.0618
 9451TIP3   OH249843   6.158   3.738  12.595 -0.2087  0.7613 -0.0003
 9451TIP3    H149844   6.104   3.799  12.544 -0.4646 -0.0494 -0.7039
 9451TIP3    H249845   6.164   3.659  12.541 -1.1014 -0.3949  1.5381
 9452TIP3   OH249846   3.390   5.646  16.265  0.1998 -0.1272  0.1877
 9452TIP3    H149847   3.318   5.692  16.223  0.2256  1.0174  1.3146
 9452TIP3    H249848   3.361   5.632  16.355  1.4572  0.5884  0.7337
 9453TIP3   OH249849   6.800   6.225  15.237 -0.4204 -0.4357  0.0742
 9453TIP3    H149850   6.782   6.175  15.316  0.5985  0.4993  0.9425
 9453TIP3    H249851   6.894   6.215  15.223 -0.4153  0.2277 -0.4414
 9454TIP3   OH249852   0.783   5.186  14.612  0.2060  0.3756 -0.3042
 9454TIP3    H149853   0.724   5.133  14.559 -0.7915  1.6250 -0.5000
 9454TIP3    H249854   0.727   5.222  14.682  1.1756 -0.0396  0.7243
 9455TIP3   OH249855   3.520   2.667   2.210 -0.3770 -0.3820 -0.5602
 9455TIP3    H149856   3.451   2.685   2.146 -0.9890 -0.7847 -0.0255
 9455TIP3    H249857   3.475   2.622   2.282 -0.0947  1.8356  1.0827
 9456TIP3   OH249858   0.672   5.839  15.160  0.3325  0.5279  0.5650
 9456TIP3    H149859   0.682   5.860  15.067  0.9043 -1.9703 -0.0072
 9456TIP3    H249860   0.669   5.925  15.204 -2.3484  1.8781 -1.9260
 9457TIP3   OH249861   2.237   5.891  13.323  0.9105  0.3502  0.4828
 9457TIP3    H149862   2.278   5.906  13.408 -0.8394  2.4080  1.0330
 9457TIP3    H249863   2.288   5.943  13.262 -0.5886  2.7101  1.1248
 9458TIP3   OH249864   6.559   3.051   3.785 -0.1433 -0.0715 -0.4036
 9458TIP3    H149865   6.531   3.115   3.850  2.3457  0.7133 -0.0106
 9458TIP3    H249866   6.512   2.971   3.808 -0.7885  0.7130  1.1387
 9459TIP3   OH249867   4.934   2.885   4.267 -0.0444  0.0947  0.2663
 9459TIP3    H149868   4.909   2.818   4.331 -0.8245  1.6331  1.6241
 9459TIP3    H249869   4.854   2.934   4.251  0.0784 -0.3270 -2.0661
 9460TIP3   OH249870   2.308   3.669   2.694 -0.0917 -0.1498  0.6345
 9460TIP3    H149871   2.250   3.609   2.740  0.7815  0.5545  2.7764
 9460TIP3    H249872   2.396   3.635   2.709  0.3035  0.7819  0.5363
 9461TIP3   OH249873   3.352   5.735   2.056 -0.0657  0.0379 -0.2093
 9461TIP3    H149874   3.377   5.827   2.064 -1.0608  0.2349  0.8247
 9461TIP3    H249875   3.358   5.701   2.145 -1.6100 -0.3842 -0.2367
 9462TIP3   OH249876   3.905   4.159  13.356 -0.1147  0.7422  0.1563
 9462TIP3    H149877   3.947   4.219  13.295  1.0616 -1.0399 -0.8776
 9462TIP3    H249878   3.967   4.087  13.366 -1.2509 -0.0918  1.7128
 9463TIP3   OH249879   5.375   4.714   3.673  0.1134  0.1785 -0.1770
 9463TIP3    H149880   5.439   4.783   3.691  1.1134 -0.5489 -0.8398
 9463TIP3    H249881   5.293   4.747   3.710  0.6232  1.6069 -0.2633
 9464TIP3   OH249882   1.467   6.718   5.636 -0.3912  0.2142 -0.1131
 9464TIP3    H149883   1.484   6.669   5.717  0.5895 -0.5636 -0.7572
 9464TIP3    H249884   1.395   6.776   5.658  0.4738  0.7156  1.6094
 9465TIP3   OH249885   5.582   3.983  13.082 -0.6480  0.8514  0.1497
 9465TIP3    H149886   5.550   4.029  13.004 -0.0793  2.8571  1.0593
 9465TIP3    H249887   5.671   3.956  13.059 -1.3910 -0.9799 -0.8260
 9466TIP3   OH249888   3.145   1.793  15.995  0.1163 -0.5695  0.5348
 9466TIP3    H149889   3.222   1.844  16.020 -0.4129  0.4637  0.0799
 9466TIP3    H249890   3.141   1.723  16.062  0.9395 -0.1311  1.0651
 9467TIP3   OH249891   3.636   5.701   5.638 -0.1966  0.0898  0.3337
 9467TIP3    H149892   3.592   5.653   5.568 -0.5851  2.2945 -1.0511
 9467TIP3    H249893   3.565   5.731   5.694 -0.2708  1.4354 -0.4386
 9468TIP3   OH249894   0.248   1.669   5.939 -0.0774  0.1135  0.3478
 9468TIP3    H149895   0.325   1.647   5.991  0.3601  0.5642 -0.0939
 9468TIP3    H249896   0.181   1.607   5.967 -0.4812  1.5222  2.8255
 9469TIP3   OH249897   3.640   3.244   2.735  0.0613  0.5125  0.4100
 9469TIP3    H149898   3.628   3.334   2.706  0.1739  0.5989  0.6244
 9469TIP3    H249899   3.675   3.252   2.824 -1.6081  0.2527  1.1288
 9470TIP3   OH249900   1.636   2.597  10.695  0.2303 -0.1198  0.3039
 9470TIP3    H149901   1.671   2.686  10.697 -1.1714  0.4367  0.9222
 9470TIP3    H249902   1.697   2.547  10.751  0.3828  0.6931  0.8851
 9471TIP3   OH249903   0.818   6.382   1.299  0.0521 -0.0463  0.1626
 9471TIP3    H149904   0.891   6.397   1.239  0.8079 -2.1210  0.4683
 9471TIP3    H249905   0.740   6.394   1.246  0.6951 -1.6517 -1.2356
 9472TIP3   OH249906   5.046   2.108  14.878  0.9342  0.0394 -0.0888
 9472TIP3    H149907   5.127   2.059  14.864  0.7767  0.0168 -0.9814
 9472TIP3    H249908   5.003   2.110  14.792  0.5074  0.9729  0.1239
 9473TIP3   OH249909   1.865   5.211  16.967 -0.0830 -0.2211  0.2020
 9473TIP3    H149910   1.810   5.289  16.963  0.1408 -0.1081 -0.9417
 9473TIP3    H249911   1.813   5.142  16.926  0.6902 -0.0569 -1.1043
 9474TIP3   OH249912   5.229   2.486   0.238 -0.1229  0.1932 -0.4855
 9474TIP3    H149913   5.193   2.567   0.201 -0.1633 -0.1848 -1.3138
 9474TIP3    H249914   5.274   2.445   0.164 -0.6328 -0.8364 -0.2392
 9475TIP3   OH249915   0.767   5.283  15.466  0.3804 -0.3112 -0.2332
 9475TIP3    H149916   0.697   5.228  15.428  1.4386 -1.1800 -0.9858
 9475TIP3    H249917   0.814   5.223  15.525  2.0604 -0.4721 -1.6884
 9476TIP3   OH249918   3.194   2.201   0.172  0.1176  0.2323 -0.6035
 9476TIP3    H149919   3.167   2.115   0.204  0.2680  0.1818 -0.6124
 9476TIP3    H249920   3.120   2.232   0.119  0.0047  0.1722 -0.4809
 9477TIP3   OH249921   1.498   5.254   0.023 -0.4618  0.1390  0.1869
 9477TIP3    H149922   1.530   5.258  -0.068 -0.2399 -0.6237  0.2226
 9477TIP3    H249923   1.571   5.215   0.071 -0.8064 -0.0021  0.5920
 9478TIP3   OH249924   0.955   6.457  13.792 -0.5078  0.3316 -0.1115
 9478TIP3    H149925   0.974   6.550  13.794 -0.5009  0.3302 -0.1040
 9478TIP3    H249926   0.965   6.433  13.700 -2.0021  0.6474 -0.3834
 9479TIP3   OH249927   4.760   3.286   6.138  0.2417  0.3468 -0.6891
 9479TIP3    H149928   4.688   3.300   6.200  0.7157 -0.9820  0.2268
 9479TIP3    H249929   4.792   3.374   6.119 -1.4575  0.9578 -0.9458
 9480TIP3   OH249930   0.226   2.523   4.338 -0.1351 -0.1048 -0.5703
 9480TIP3    H149931   0.288   2.530   4.411  1.1791 -0.5520 -1.5871
 9480TIP3    H249932   0.227   2.609   4.297 -1.3371  0.3286  0.2723
 9481TIP3   OH249933   2.381   6.538   1.827  0.0086  0.4091 -0.5233
 9481TIP3    H149934   2.399   6.627   1.798 -0.7171  1.0210  0.8211
 9481TIP3    H249935   2.466   6.505   1.858 -0.0062  1.2158  0.4282
 9482TIP3   OH249936   0.807   2.355   6.477  0.1088  0.0597 -1.1102
 9482TIP3    H149937   0.720   2.356   6.437 -0.3877 -0.7400 -0.0993
 9482TIP3    H249938   0.790   2.362   6.571  1.2110  1.0903 -0.9580
 9483TIP3   OH249939   4.704   5.965   2.967 -0.3309 -0.2694  0.0403
 9483TIP3    H149940   4.747   5.915   2.898  0.8409 -3.8743  3.0915
 9483TIP3    H249941   4.612   5.970   2.939  0.4990  0.8322 -2.9207
 9484TIP3   OH249942   3.512   0.717   4.365 -0.2924  0.6110  0.0036
 9484TIP3    H149943   3.585   0.660   4.338 -0.6190  0.3376 -0.3047
 9484TIP3    H249944   3.463   0.733   4.285  0.2863  2.0669 -0.0957
 9485TIP3   OH249945   5.880   5.625   0.184 -0.4216 -0.0566 -0.3469
 9485TIP3    H149946   5.809   5.560   0.175  1.0467 -2.0118  1.1214
 9485TIP3    H249947   5.852   5.680   0.257 -0.8031 -0.2645 -0.3301
 9486TIP3   OH249948   0.870   3.369  14.177  0.2917 -0.0667  0.6267
 9486TIP3    H149949   0.845   3.453  14.138  1.5472  0.6162  1.2449
 9486TIP3    H249950   0.964   3.375  14.189  0.7689 -2.3827 -1.2086
 9487TIP3   OH249951   0.681   5.721  16.848  0.3801 -0.4955  0.0259
 9487TIP3    H149952   0.741   5.685  16.915 -0.6108  1.7050  2.2440
 9487TIP3    H249953   0.735   5.780  16.797  0.4742  0.3061  1.0243
 9488TIP3   OH249954   5.447   5.478   2.053  0.4268 -0.5860 -0.3972
 9488TIP3    H149955   5.370   5.520   2.014  0.8593 -0.5648 -1.2430
 9488TIP3    H249956   5.508   5.550   2.068  0.4515 -0.6612 -0.1368
 9489TIP3   OH249957   2.060   6.088   5.833 -0.3219 -0.4164 -0.4240
 9489TIP3    H149958   2.112   6.047   5.903  1.6728 -0.6503 -1.9480
 9489TIP3    H249959   2.078   6.181   5.841 -0.2648 -0.4214 -0.4931
 9490TIP3   OH249960   4.598   0.207  13.811 -0.0236  0.5247  0.5480
 9490TIP3    H149961   4.557   0.252  13.737  0.9149 -0.1129 -0.4040
 9490TIP3    H249962   4.679   0.170  13.774  0.2185 -0.2398  1.7794
 9491TIP3   OH249963   5.879   5.162  15.590  0.2192 -0.2576  0.1797
 9491TIP3    H149964   5.915   5.117  15.666 -1.0666 -0.4728  0.6876
 9491TIP3    H249965   5.933   5.132  15.517 -0.0083 -1.9190  0.6503
 9492TIP3   OH249966   4.463   0.510   4.698  0.1093 -0.0356  0.3739
 9492TIP3    H149967   4.378   0.470   4.676 -0.3643  1.3118 -0.3461
 9492TIP3    H249968   4.479   0.573   4.627  0.9835  0.8197  1.3030
 9493TIP3   OH249969   4.861   0.656   5.728  0.4724  0.6547  0.2805
 9493TIP3    H149970   4.954   0.638   5.746  1.0776  3.4068  0.3726
 9493TIP3    H249971   4.823   0.672   5.814 -0.1668 -0.5679  0.2502
 9494TIP3   OH249972   5.317   2.469  16.282 -0.0877  0.5773 -0.2970
 9494TIP3    H149973   5.353   2.558  16.282  1.7205 -0.1027 -0.1524
 9494TIP3    H249974   5.241   2.473  16.339 -0.0426  2.0355 -0.3135
 9495TIP3   OH249975   2.030   3.819   6.360  0.1206  0.0706 -0.7829
 9495TIP3    H149976   2.116   3.777   6.372 -0.0222  0.0840  0.3867
 9495TIP3    H249977   1.979   3.792   6.437 -0.3465  1.4691 -0.5696
 9496TIP3   OH249978   1.150   0.741  13.838  0.2521  0.1362  0.4848
 9496TIP3    H149979   1.216   0.686  13.881  0.1390  0.3398  0.9161
 9496TIP3    H249980   1.097   0.679  13.788 -0.5896 -0.2989  1.8859
 9497TIP3   OH249981   4.278   4.405   1.362 -0.2894 -0.0177  0.1993
 9497TIP3    H149982   4.284   4.310   1.347 -2.5381 -0.5710  2.1784
 9497TIP3    H249983   4.315   4.417   1.449  1.6942  1.2965 -0.7429
 9498TIP3   OH249984   4.510   6.054   0.301  0.0284  0.6546 -0.2604
 9498TIP3    H149985   4.474   6.058   0.212 -0.5944 -1.5981 -0.1955
 9498TIP3    H249986   4.443   6.095   0.356 -1.0432 -0.6322 -0.5315
 9499TIP3   OH249987   3.640   4.916  15.432  0.6440 -0.5131 -0.0397
 9499TIP3    H149988   3.679   4.930  15.346  0.4086 -0.7248 -0.1808
 9499TIP3    H249989   3.697   4.964  15.492  1.2056 -0.9314 -0.2238
 9500TIP3   OH249990   4.251   4.443   1.082 -0.1467  0.2281  0.6370
 9500TIP3    H149991   4.271   4.423   1.174  0.9830  0.8903  0.5553
 9500TIP3    H249992   4.156   4.441   1.077 -0.1896 -0.7166  1.6184
 9501TIP3   OH249993   1.250   2.764   1.821 -0.1092 -0.1697 -0.8103
 9501TIP3    H149994   1.227   2.746   1.912  1.7919 -0.5096 -0.3502
 9501TIP3    H249995   1.333   2.811   1.826  0.6835 -1.2899 -2.3819
 9502TIP3   OH249996   5.628   1.262   3.384  0.6051  0.5821 -0.3167
 9502TIP3    H149997   5.594   1.342   3.423  0.1025 -0.4929  1.5768
 9502TIP3    H249998   5.623   1.197   3.454  2.1340 -0.8148 -1.4233
 9503TIP3   OH249999   6.175   2.288  11.377 -0.2349  0.0260  0.3327
 9503TIP3    H150000   6.144   2.271  11.466  0.7352 -1.9379  0.3397
 9503TIP3    H250001   6.096   2.312  11.328 -0.9330  0.1255  1.4798
 9504TIP3   OH250002   2.619   1.650  16.556  0.2764  0.7877 -0.4687
 9504TIP3    H150003   2.677   1.611  16.490 -1.0907  0.6386 -1.6245
 9504TIP3    H250004   2.625   1.744  16.538 -1.4962  0.6458 -2.0784
 9505TIP3   OH250005   3.570   5.820   2.699 -0.0493 -0.4488 -1.0609
 9505TIP3    H150006   3.645   5.773   2.735 -0.0880 -0.0438 -0.4345
 9505TIP3    H250007   3.599   5.911   2.695 -1.1447  0.0661  1.0750
 9506TIP3   OH250008   6.362   4.279   3.276  0.3632 -0.3426  0.2033
 9506TIP3    H150009   6.382   4.260   3.368  0.1363 -0.1554  0.2920
 9506TIP3    H250010   6.273   4.313   3.277  1.0640  1.5997  0.1527
 9507TIP3   OH250011   0.891   3.337  11.657  0.2340  0.0702  0.2386
 9507TIP3    H150012   0.887   3.247  11.689 -0.1420  0.2893  0.8331
 9507TIP3    H250013   0.981   3.347  11.625  0.6397 -0.1689  1.2419
 9508TIP3   OH250014   5.770   1.878  13.916 -0.0520  0.0523 -0.2000
 9508TIP3    H150015   5.723   1.903  13.996 -0.1726 -0.4878 -0.0960
 9508TIP3    H250016   5.702   1.877  13.849  0.0706  0.6203 -0.3387
 9509TIP3   OH250017   0.520   3.839  10.900  0.3662  0.0576  0.3514
 9509TIP3    H150018   0.598   3.786  10.885 -0.0208 -1.0007  1.8164
 9509TIP3    H250019   0.537   3.922  10.855  1.8715 -0.5307 -0.2178
 9510TIP3   OH250020   1.747   0.120   1.232  0.5586  0.1285 -0.0162
 9510TIP3    H150021   1.834   0.081   1.231  0.7265  0.4282  0.9961
 9510TIP3    H250022   1.712   0.105   1.144  1.5423 -0.1882 -0.3668
 9511TIP3   OH250023   4.448   4.848   6.379  0.2419 -0.0389 -0.5725
 9511TIP3    H150024   4.361   4.851   6.419  0.1053  0.2117 -0.8802
 9511TIP3    H250025   4.496   4.920   6.420 -0.0849  0.5906 -1.2727
 9512TIP3   OH250026   2.750   0.907  14.946  0.0775 -0.1695 -0.0641
 9512TIP3    H150027   2.685   0.952  14.892  0.2732  0.3882  0.1568
 9512TIP3    H250028   2.826   0.897  14.888 -0.4703 -1.5643 -0.5891
 9513TIP3   OH250029   5.993   5.510  11.805 -0.8206  0.0931  0.1190
 9513TIP3    H150030   6.002   5.588  11.859 -1.0351 -0.2571  0.6621
 9513TIP3    H250031   6.013   5.540  11.716 -0.1533  0.5986  0.4326
 9514TIP3   OH250032   5.816   3.795   2.286 -0.0310  1.0027  0.4848
 9514TIP3    H150033   5.733   3.753   2.310  1.5151 -1.4933  1.9239
 9514TIP3    H250034   5.831   3.859   2.355 -0.8768  1.7442  0.0156
 9515TIP3   OH250035   0.175   5.574   2.446 -0.0197  0.4656  1.1697
 9515TIP3    H150036   0.178   5.540   2.356 -2.9742 -0.5124  1.3381
 9515TIP3    H250037   0.259   5.617   2.458  0.6116  0.3220 -1.9475
 9516TIP3   OH250038   2.686   5.143   4.538  0.4058 -0.6276 -0.0496
 9516TIP3    H150039   2.752   5.212   4.543 -0.7111  0.3605  1.8579
 9516TIP3    H250040   2.608   5.186   4.502 -0.0070 -1.1365  0.2140
 9517TIP3   OH250041   1.392   2.896  11.574  0.3704  0.0503  0.3265
 9517TIP3    H150042   1.306   2.884  11.613 -0.5966  0.6485 -1.4866
 9517TIP3    H250043   1.451   2.845  11.629 -0.8281  1.0242  2.6233
 9518TIP3   OH250044   0.074   1.667  15.488 -0.1724 -0.6758 -0.1386
 9518TIP3    H150045   0.068   1.612  15.566  0.2889  1.1568  1.2870
 9518TIP3    H250046  -0.014   1.667  15.451 -0.9601  0.0302  1.6147
 9519TIP3   OH250047   2.180   0.006  11.653  0.5721 -0.0229 -0.0535
 9519TIP3    H150048   2.194   0.093  11.616  1.1835  0.0894  0.4262
 9519TIP3    H250049   2.202  -0.054  11.582  1.1946  0.1972 -0.0506
 9520TIP3   OH250050   6.179   5.344  10.343  0.5753  0.1532 -0.2255
 9520TIP3    H150051   6.250   5.407  10.354 -0.3702  1.1218  0.4355
 9520TIP3    H250052   6.135   5.342  10.428  0.0664 -0.7720 -0.4927
 9521TIP3   OH250053   5.660   0.318  12.838 -0.1967  0.7548  0.3903
 9521TIP3    H150054   5.620   0.403  12.819  2.1650  1.3978 -2.3602
 9521TIP3    H250055   5.678   0.280  12.752  1.1330 -1.3958  1.5347
 9522TIP3   OH250056   3.321   0.015  15.831  0.3792 -0.2707 -0.0485
 9522TIP3    H150057   3.325   0.099  15.877  1.5636 -0.3460  0.0137
 9522TIP3    H250058   3.353  -0.049  15.895  1.3956 -0.4752 -0.7378
 9523TIP3   OH250059   0.328   5.015  11.467 -0.2580  0.0629 -0.4010
 9523TIP3    H150060   0.309   5.071  11.542  0.0450  0.0360 -0.3038
 9523TIP3    H250061   0.274   4.937  11.480  0.6346 -0.4452  0.3769
 9524TIP3   OH250062   1.467   4.753  14.012 -0.6182 -0.3447  0.1867
 9524TIP3    H150063   1.550   4.777  14.053 -0.6198 -1.3021  0.7825
 9524TIP3    H250064   1.464   4.658  14.017 -0.9139 -0.4558 -1.4930
 9525TIP3   OH250065   1.336   0.854   5.339 -0.2588  0.1539 -0.2187
 9525TIP3    H150066   1.283   0.819   5.410 -0.7869  0.9965 -0.1731
 9525TIP3    H250067   1.272   0.897   5.281  0.3489  1.0329 -0.2581
 9526TIP3   OH250068   3.346   6.076   5.240 -0.2120 -0.0083  0.1193
 9526TIP3    H150069   3.257   6.067   5.273 -0.2301 -0.7263 -0.1091
 9526TIP3    H250070   3.374   6.162   5.270 -0.0998 -0.7428  2.3398
 9527TIP3   OH250071   4.571   2.576  11.494 -0.7461  0.6776  0.4608
 9527TIP3    H150072   4.619   2.571  11.577 -1.9906 -0.1442  1.1855
 9527TIP3    H250073   4.480   2.593  11.521 -1.6517 -2.0489 -0.5154
 9528TIP3   OH250074   5.507   4.023  11.576 -0.0426 -0.4162 -0.1219
 9528TIP3    H150075   5.526   3.969  11.499  0.0859 -1.1366  0.4067
 9528TIP3    H250076   5.536   3.970  11.650 -1.0262 -0.1164  0.4882
 9529TIP3   OH250077   3.827   0.845  14.245  0.2756  0.6468 -0.1682
 9529TIP3    H150078   3.770   0.813  14.175  1.1754  0.7856 -0.9818
 9529TIP3    H250079   3.779   0.920  14.282  0.5251  1.6436 -1.7700
 9530TIP3   OH250080   2.376   3.988  12.130 -0.3024 -0.4597  0.1845
 9530TIP3    H150081   2.352   4.081  12.130  1.1681 -0.0568  0.3850
 9530TIP3    H250082   2.343   3.955  12.046  0.3081  0.5667 -0.4782
 9531TIP3   OH250083   5.350   4.272  14.415 -0.2553 -0.2539  0.0050
 9531TIP3    H150084   5.361   4.343  14.351 -0.8035  0.3210  0.5307
 9531TIP3    H250085   5.255   4.259  14.421 -0.1390 -1.7069 -0.7836
 9532TIP3   OH250086   0.410   3.908   5.605 -0.3562  0.1232  0.3963
 9532TIP3    H150087   0.499   3.923   5.637 -1.3613  3.1676  2.1970
 9532TIP3    H250088   0.359   3.888   5.683 -1.3105 -1.6816 -0.6177
 9533TIP3   OH250089   3.157   3.782   7.191  0.0222 -0.8266 -0.2857
 9533TIP3    H150090   3.201   3.801   7.108  0.6790 -2.2744 -0.3012
 9533TIP3    H250091   3.065   3.802   7.175  0.7423  4.6136  0.4305
 9534TIP3   OH250092   3.725   5.633  10.411 -0.0884  0.1551 -0.3050
 9534TIP3    H150093   3.807   5.646  10.459 -0.6280  2.2172  0.1812
 9534TIP3    H250094   3.663   5.691  10.455 -1.7504 -1.1236 -0.8579
 9535TIP3   OH250095   5.803   6.079  15.325 -0.3709 -0.4200  0.7645
 9535TIP3    H150096   5.842   6.102  15.241 -2.4643 -0.2223 -0.2145
 9535TIP3    H250097   5.722   6.130  15.329 -0.8368 -1.2133  2.4465
 9536TIP3   OH250098   0.021   2.891  12.083 -0.2201  1.0086  0.6437
 9536TIP3    H150099  -0.051   2.953  12.075  0.8316  2.2154  0.2499
 9536TIP3    H250100   0.027   2.849  11.997 -0.1770  1.2372  0.5336
 9537TIP3   OH250101   4.256   6.376   2.676  0.5817 -0.0109  0.1172
 9537TIP3    H150102   4.253   6.322   2.597  2.0854 -0.8977  0.6210
 9537TIP3    H250103   4.165   6.399   2.693  0.1778 -0.1735 -1.6145
 9538TIP3   OH250104   2.059   2.870  11.085  0.4505 -0.7721  0.1848
 9538TIP3    H150105   2.005   2.930  11.136  0.5181  0.0390 -0.6853
 9538TIP3    H250106   2.000   2.798  11.062  0.4701 -1.2568  1.5641
 9539TIP3   OH250107   6.843   6.211   1.689 -0.8176 -0.3204  0.0292
 9539TIP3    H150108   6.774   6.145   1.697 -0.0403 -1.3141 -1.0407
 9539TIP3    H250109   6.917   6.175   1.737 -0.6020  0.1044  0.0246
 9540TIP3   OH250110   1.831   4.454   0.043 -0.0984 -0.0024  0.0041
 9540TIP3    H150111   1.760   4.406   0.000  0.4439 -0.6151 -0.2252
 9540TIP3    H250112   1.907   4.440  -0.013  0.3934 -0.0110  0.6599
 9541TIP3   OH250113   2.483   1.124  15.530 -0.1410  0.1920 -0.5733
 9541TIP3    H150114   2.549   1.060  15.504 -0.4081 -0.3961  0.1526
 9541TIP3    H250115   2.533   1.199  15.563  0.1674 -0.2069 -0.1227
 9542TIP3   OH250116   0.891   1.631   3.887 -0.5240  1.3071 -0.2727
 9542TIP3    H150117   0.806   1.674   3.891 -0.6995  0.8994  0.3064
 9542TIP3    H250118   0.936   1.658   3.967 -0.2569  1.2103 -0.3882
 9543TIP3   OH250119   4.990   3.885   3.553 -0.1492  0.5631  0.2923
 9543TIP3    H150120   4.949   3.833   3.623 -0.6902  0.0234 -0.4107
 9543TIP3    H250121   4.945   3.857   3.474  2.2378 -0.7859 -0.7008
 9544TIP3   OH250122   1.260   6.162  16.513  0.0841  0.5052 -0.0399
 9544TIP3    H150123   1.214   6.245  16.525 -0.2858  0.2786  0.1229
 9544TIP3    H250124   1.232   6.131  16.426 -0.1787  0.2999  0.1172
 9545TIP3   OH250125   2.947   3.503   4.842  0.5025 -0.1419  0.4848
 9545TIP3    H150126   3.004   3.553   4.901  1.8560 -1.0982  0.0409
 9545TIP3    H250127   2.986   3.516   4.756 -0.0721 -0.6625  0.1461
 9546TIP3   OH250128   4.643   4.516   1.999 -0.3497  0.4048  0.4593
 9546TIP3    H150129   4.561   4.564   2.013  0.7726  2.6302 -0.1948
 9546TIP3    H250130   4.633   4.478   1.911 -0.5758  0.8763  0.2801
 9547TIP3   OH250131   5.017   3.195  15.930  0.8552 -0.5298 -0.0909
 9547TIP3    H150132   5.086   3.133  15.955  0.9168 -0.1063  0.8286
 9547TIP3    H250133   5.002   3.247  16.009  0.5812  0.4191 -0.7522
 9548TIP3   OH250134   5.484   4.442  11.414 -0.5677  0.1093 -0.1673
 9548TIP3    H150135   5.391   4.421  11.409 -0.2157 -2.4750  1.8571
 9548TIP3    H250136   5.514   4.442  11.323 -2.0574 -1.6617 -0.7090
 9549TIP3   OH250137   1.996   4.380  15.040  0.5140 -0.0295 -0.2889
 9549TIP3    H150138   1.943   4.459  15.046  2.3394  1.2403  0.1963
 9549TIP3    H250139   2.043   4.376  15.123  0.1445 -1.9003 -0.1315
 9550TIP3   OH250140   6.030   2.223   5.195  0.1867 -0.2626  0.2698
 9550TIP3    H150141   5.962   2.269   5.244 -1.2254 -1.1934 -0.7581
 9550TIP3    H250142   6.015   2.130   5.213  0.5047 -0.5420 -0.8184
 9551TIP3   OH250143   6.204   4.760  11.560 -0.7920  0.3463 -0.6598
 9551TIP3    H150144   6.300   4.760  11.563 -0.8064 -0.5558  2.0542
 9551TIP3    H250145   6.180   4.669  11.546 -1.2495  0.2176  0.8636
 9552TIP3   OH250146   5.460   0.296  15.427  0.9054 -0.7157  0.0995
 9552TIP3    H150147   5.550   0.272  15.447  0.7434 -1.9064 -0.4960
 9552TIP3    H250148   5.421   0.216  15.390 -0.3660 -0.2034  0.2666
 9553TIP3   OH250149   6.130   5.450  13.144  0.2257  0.3983  0.0057
 9553TIP3    H150150   6.131   5.446  13.048 -1.8141  0.3299 -0.0510
 9553TIP3    H250151   6.204   5.395  13.171  1.2849  1.0016 -1.5085
 9554TIP3   OH250152   2.507   5.974  14.121 -0.0581 -0.4863  0.2393
 9554TIP3    H150153   2.474   5.918  14.192  0.0043 -1.8488 -0.7649
 9554TIP3    H250154   2.429   6.008  14.078 -0.1085  1.2588  1.6018
 9555TIP3   OH250155   0.463   2.462   2.870 -0.2447  1.1656  0.2067
 9555TIP3    H150156   0.482   2.543   2.918 -1.8931  1.6773  0.0629
 9555TIP3    H250157   0.505   2.473   2.785 -1.8116  2.6365 -0.4355
 9556TIP3   OH250158   2.512   5.825   4.575  0.0509 -0.0836  0.3711
 9556TIP3    H150159   2.444   5.871   4.623  1.2831  0.9271  1.2276
 9556TIP3    H250160   2.478   5.737   4.563 -1.2473  0.3032  1.0642
 9557TIP3   OH250161   6.712   3.431  11.432  0.1149 -0.2708  0.0663
 9557TIP3    H150162   6.776   3.500  11.417  1.8195 -1.4702  1.3761
 9557TIP3    H250163   6.638   3.454  11.376  1.6847  1.1724 -1.5492
 9558TIP3   OH250164   3.558   5.453   4.034 -0.0002 -0.7617 -0.2483
 9558TIP3    H150165   3.505   5.426   4.108  1.6143  2.1591  2.2095
 9558TIP3    H250166   3.596   5.372   4.000  0.6148 -2.1127  3.3124
 9559TIP3   OH250167   3.077   0.436   3.895 -0.0236 -0.0910  0.0996
 9559TIP3    H150168   3.071   0.387   3.814  1.2338 -0.6098  0.3006
 9559TIP3    H250169   3.159   0.407   3.936 -1.6516 -1.5202  2.6533
 9560TIP3   OH250170   5.442   0.886  12.343  0.9809  0.4619 -0.1819
 9560TIP3    H150171   5.500   0.953  12.308  1.2178  0.1779 -0.3435
 9560TIP3    H250172   5.388   0.931  12.407  0.7046  0.9375 -0.7499
 9561TIP3   OH250173   6.749   0.853  12.504  0.3054  0.1663 -0.6539
 9561TIP3    H150174   6.688   0.910  12.551 -0.8122 -1.1823 -0.4088
 9561TIP3    H250175   6.693   0.788  12.461  1.4077  0.3701 -2.5092
 9562TIP3   OH250176   5.001   0.928   0.692 -0.1340  0.1489  0.6907
 9562TIP3    H150177   4.964   0.878   0.765  0.4303 -2.0664 -0.4642
 9562TIP3    H250178   5.089   0.892   0.680  0.1635  1.1725 -0.4431
 9563TIP3   OH250179   5.885   0.930  15.790  0.2015  0.0695  0.1582
 9563TIP3    H150180   5.952   0.901  15.851 -0.1263  0.9787  0.9830
 9563TIP3    H250181   5.911   0.893  15.706  1.3224 -0.2095  0.6090
 9564TIP3   OH250182   3.297   0.812   2.219  0.5246 -0.1943  0.5750
 9564TIP3    H150183   3.308   0.907   2.216 -1.6481  0.0911 -0.1219
 9564TIP3    H250184   3.232   0.798   2.288 -0.9400 -0.9275 -0.8904
 9565TIP3   OH250185   2.705   1.556   2.192 -0.5945 -0.3205  0.1974
 9565TIP3    H150186   2.704   1.580   2.285  0.6219 -0.8848  0.3845
 9565TIP3    H250187   2.632   1.605   2.153 -0.6064  0.5716  1.2886
 9566TIP3   OH250188   4.821   2.791   5.928 -0.0737  0.7089  0.0742
 9566TIP3    H150189   4.824   2.703   5.890 -1.0654 -0.0677  1.6798
 9566TIP3    H250190   4.907   2.803   5.969 -0.5655 -0.2894  1.4435
 9567TIP3   OH250191   2.289   1.262  14.249 -0.1931  0.1080 -0.1103
 9567TIP3    H150192   2.235   1.249  14.327 -0.2343 -0.9906 -0.3037
 9567TIP3    H250193   2.371   1.299  14.282 -0.7062  0.9083  0.2946
 9568TIP3   OH250194   2.109   4.602   3.303 -0.3457  0.2723  0.0515
 9568TIP3    H150195   2.070   4.678   3.260 -1.6791  0.1823  1.0377
 9568TIP3    H250196   2.052   4.530   3.280 -0.2444 -0.0453  0.7812
 9569TIP3   OH250197   5.362   0.741   0.187  0.2821  0.2174  0.2137
 9569TIP3    H150198   5.437   0.773   0.237  0.7498 -2.3570  1.2877
 9569TIP3    H250199   5.335   0.817   0.135  3.6726  1.2748 -0.3170
 9570TIP3   OH250200   2.689   1.957  16.044  0.0720 -0.3350 -0.0769
 9570TIP3    H150201   2.596   1.944  16.062  0.2642 -1.1944  0.3414
 9570TIP3    H250202   2.699   1.940  15.951 -0.1290 -0.5993 -0.0495
 9571TIP3   OH250203   0.902   4.233  12.953  0.1449  0.1331 -0.1079
 9571TIP3    H150204   0.979   4.225  13.009  0.2891 -1.4108 -0.4797
 9571TIP3    H250205   0.829   4.239  13.015  0.3054 -1.5713  0.2980
 9572TIP3   OH250206   4.698   4.012   1.321 -0.1996  0.1503 -0.2453
 9572TIP3    H150207   4.794   4.016   1.331 -0.4281  1.0075  2.8157
 9572TIP3    H250208   4.673   3.932   1.368 -0.9748 -0.2883 -1.3895
 9573TIP3   OH250209   1.099   3.564   2.975 -0.4938 -0.7011 -0.2637
 9573TIP3    H150210   1.047   3.536   2.900  0.1454  0.8617 -1.3309
 9573TIP3    H250211   1.161   3.628   2.940 -0.3891  0.3376  1.6427
 9574TIP3   OH250212   6.392   3.778   0.022  0.0328 -0.2398 -0.4908
 9574TIP3    H150213   6.428   3.858  -0.015 -0.4363  0.8436  1.2856
 9574TIP3    H250214   6.365   3.802   0.111 -0.5736 -2.2431 -0.0754
 9575TIP3   OH250215   2.173   4.583   3.993 -0.2130  0.1032  0.0431
 9575TIP3    H150216   2.251   4.555   4.040 -0.7123  0.6347  1.2195
 9575TIP3    H250217   2.127   4.640   4.054 -0.8518  0.8761 -1.1244
 9576TIP3   OH250218   3.043   4.154   6.674  0.0559 -0.0225  0.3646
 9576TIP3    H150219   3.034   4.246   6.650  0.5776  0.0703  0.4985
 9576TIP3    H250220   3.121   4.125   6.627  0.2014 -0.2484  0.7412
 9577TIP3   OH250221   3.527   4.769   5.577 -0.0298  1.0228  0.0491
 9577TIP3    H150222   3.438   4.796   5.600  0.4246  1.8389  0.9103
 9577TIP3    H250223   3.563   4.844   5.529  0.2452  0.7480 -0.1809
 9578TIP3   OH250224   4.153   3.474  15.554 -0.7038 -0.0574  0.3314
 9578TIP3    H150225   4.195   3.423  15.485 -1.2186  0.9965 -0.7787
 9578TIP3    H250226   4.215   3.469  15.627  0.1478 -0.6589 -0.4022
 9579TIP3   OH250227   0.941   3.382  13.640  0.6343  0.5174 -0.5104
 9579TIP3    H150228   1.004   3.377  13.712  0.8987 -2.5971 -0.8155
 9579TIP3    H250229   0.862   3.338  13.674  0.7243 -0.8996 -2.0049
 9580TIP3   OH250230   5.880   2.053   2.704 -0.5259 -0.3748  0.3330
 9580TIP3    H150231   5.903   2.139   2.738  0.0221 -0.4653  0.2094
 9580TIP3    H250232   5.826   2.013   2.773 -2.1380  0.6686 -0.2881
 9581TIP3   OH250233   2.388   5.487  10.999  0.1214 -0.1763  0.1145
 9581TIP3    H150234   2.406   5.437  10.919  0.5702  1.0943 -0.5959
 9581TIP3    H250235   2.422   5.575  10.981 -0.5758  0.3708  1.3754
 9582TIP3   OH250236   6.299   2.821  13.398 -0.4941  0.7746 -0.0765
 9582TIP3    H150237   6.238   2.805  13.326 -0.3264  2.6994 -0.6977
 9582TIP3    H250238   6.274   2.906  13.433  0.9662  0.9861  0.5384
 9583TIP3   OH250239   0.875   2.514   1.142  0.3406  0.4845  0.1484
 9583TIP3    H150240   0.845   2.602   1.164  0.8259  0.9006 -0.7670
 9583TIP3    H250241   0.926   2.486   1.218 -2.3060 -0.2649  1.7686
 9584TIP3   OH250242   4.574   5.470  12.880 -0.6161 -0.0055  0.2573
 9584TIP3    H150243   4.504   5.450  12.818  0.2316  0.3548 -0.8565
 9584TIP3    H250244   4.651   5.485  12.825  0.2443  0.0154  1.4256
 9585TIP3   OH250245   0.754   6.120   5.578 -0.0387 -0.0812  0.0033
 9585TIP3    H150246   0.773   6.214   5.574  0.9557 -0.3081 -1.7790
 9585TIP3    H250247   0.664   6.111   5.546 -0.0615  0.2456 -0.0214
 9586TIP3   OH250248   5.777   5.317  11.051  0.0624  0.1196  0.0483
 9586TIP3    H150249   5.773   5.347  11.141  0.8352  1.4034 -0.3114
 9586TIP3    H250250   5.686   5.306  11.024 -0.1826  0.3044  0.7950
 9587TIP3   OH250251   0.485   6.759  12.426 -0.0697 -0.2414  0.1598
 9587TIP3    H150252   0.533   6.839  12.445  0.5003 -0.7446  0.8744
 9587TIP3    H250253   0.491   6.706  12.505 -0.6415 -0.8985 -0.2119
 9588TIP3   OH250254   3.763   4.032  10.462  0.0393 -0.2562  0.7444
 9588TIP3    H150255   3.682   3.996  10.426  0.4672 -1.0213  0.5225
 9588TIP3    H250256   3.817   3.955  10.481  0.6148  0.2333  1.1259
 9589TIP3   OH250257   0.540   3.854   4.443  0.3196  0.5469  0.4322
 9589TIP3    H150258   0.595   3.886   4.514  3.4634 -0.7758 -1.2390
 9589TIP3    H250259   0.544   3.759   4.450 -0.8633  0.4104 -0.4151
 9590TIP3   OH250260   4.756   2.712  11.993 -0.5485 -0.1795  0.0551
 9590TIP3    H150261   4.808   2.633  11.976 -1.7122 -0.9339 -0.0955
 9590TIP3    H250262   4.811   2.764  12.052  0.4932 -0.8198 -0.3254
 9591TIP3   OH250263   3.767   1.891  11.355  0.8167  0.1448  0.3664
 9591TIP3    H150264   3.858   1.860  11.357  0.7841 -0.0464 -0.8151
 9591TIP3    H250265   3.771   1.974  11.308  0.5146  0.6655  1.2260
 9592TIP3   OH250266   3.498   0.032  11.023 -0.3062 -0.1806 -0.0722
 9592TIP3    H150267   3.485  -0.002  10.934  0.1797 -0.1385 -0.1607
 9592TIP3    H250268   3.571  -0.019  11.058  1.5045  1.7959 -0.7657
 9593TIP3   OH250269   3.861   1.149  15.722  0.2819  0.1978 -0.4545
 9593TIP3    H150270   3.826   1.100  15.648 -0.2824 -0.0612 -0.0266
 9593TIP3    H250271   3.933   1.094  15.755 -0.4784 -0.4716  0.1504
 9594TIP3   OH250272   3.371   5.992   4.966 -0.2603  0.5820 -0.1669
 9594TIP3    H150273   3.372   6.009   5.060  0.2500 -1.9319  0.3459
 9594TIP3    H250274   3.301   5.929   4.954  2.1653 -2.1838 -0.7910
 9595TIP3   OH250275   3.404   2.302   5.508  0.1909  0.3721 -0.8558
 9595TIP3    H150276   3.477   2.354   5.474 -0.6376  1.8187 -0.5067
 9595TIP3    H250277   3.426   2.288   5.600  0.1649  0.5440 -0.8240
 9596TIP3   OH250278   6.466   5.110   2.756  0.0975 -0.2478 -0.2269
 9596TIP3    H150279   6.520   5.064   2.820 -0.7374  1.4018  1.7718
 9596TIP3    H250280   6.530   5.154   2.699  0.8755  0.1958  0.9551
 9597TIP3   OH250281   0.343   4.430   1.572  0.3960  0.0900  0.2313
 9597TIP3    H150282   0.380   4.413   1.658 -1.0450  1.1744  1.1127
 9597TIP3    H250283   0.413   4.407   1.511  1.3088 -1.0836  1.6490
 9598TIP3   OH250284   1.677   3.241   4.856 -0.1746 -0.2246  1.0973
 9598TIP3    H150285   1.697   3.195   4.938  0.6028 -0.6950  0.6585
 9598TIP3    H250286   1.595   3.203   4.827 -0.6000  0.1367  1.7909
 9599TIP3   OH250287   3.194   4.108  11.284 -0.1673 -0.2134  0.1683
 9599TIP3    H150288   3.284   4.096  11.313  0.7369 -1.4743 -2.7924
 9599TIP3    H250289   3.156   4.020  11.285 -0.6764 -0.0164 -0.5600
 9600TIP3   OH250290   1.406   6.527   5.458  0.0521  0.3404  0.5506
 9600TIP3    H150291   1.352   6.472   5.514  1.5562 -0.7444  0.9983
 9600TIP3    H250292   1.442   6.593   5.517  0.0999  0.3782  0.4789
 9601TIP3   OH250293   5.190   5.230  16.489 -0.3308  0.1660  0.1706
 9601TIP3    H150294   5.200   5.224  16.394 -2.6080 -1.9196 -0.0413
 9601TIP3    H250295   5.120   5.293  16.502  0.9670  1.5740  0.6091
 9602TIP3   OH250296   6.677   1.542  15.135  0.4848  0.1546  0.0827
 9602TIP3    H150297   6.652   1.471  15.194  0.4106  1.0810  1.1851
 9602TIP3    H250298   6.624   1.528  15.057 -1.3715  0.3976  1.2412
 9603TIP3   OH250299   4.311   1.158   2.856  0.5761  0.1083 -0.3672
 9603TIP3    H150300   4.340   1.183   2.768 -1.0440 -0.3341 -1.0697
 9603TIP3    H250301   4.299   1.063   2.851  0.4537  0.0852  0.3186
 9604TIP3   OH250302   6.543   4.362   0.673  0.0624  0.0757  0.1017
 9604TIP3    H150303   6.619   4.419   0.662 -0.8676  1.1497 -1.2473
 9604TIP3    H250304   6.549   4.330   0.762  0.4671  2.6139  1.0775
 9605TIP3   OH250305   0.128   5.750   1.827  0.8927  0.3338 -0.0810
 9605TIP3    H150306   0.046   5.798   1.814  0.7241 -0.4334 -2.4319
 9605TIP3    H250307   0.123   5.718   1.917 -2.4374 -1.5020 -0.7443
 9606TIP3   OH250308   1.251   4.073  17.074  0.1491 -0.0463  0.0623
 9606TIP3    H150309   1.294   4.040  16.994  0.8205  1.1551 -0.0830
 9606TIP3    H250310   1.159   4.079  17.050  0.0078 -1.6896  0.0598
 9607TIP3   OH250311   6.091   4.181   1.521 -0.2387  0.2369  0.2053
 9607TIP3    H150312   6.090   4.090   1.494  0.0522  0.4196 -0.4524
 9607TIP3    H250313   6.120   4.229   1.443  0.1612  0.8304  0.7018
 9608TIP3   OH250314   4.723   5.987  13.937 -0.4348 -0.7416  0.7738
 9608TIP3    H150315   4.716   6.081  13.917  1.0283 -0.7694  0.0356
 9608TIP3    H250316   4.790   5.982  14.004  0.2101 -1.3356  0.0973
 9609TIP3   OH250317   0.495   1.850  16.507  0.5457  0.5320 -0.4755
 9609TIP3    H150318   0.424   1.808  16.556  2.2696  0.8287  2.4503
 9609TIP3    H250319   0.450   1.914  16.451 -1.5905 -0.3923  0.0769
 9610TIP3   OH250320   1.329   1.288   5.068 -0.0814 -0.1974 -0.1183
 9610TIP3    H150321   1.401   1.306   5.129 -1.2113  0.9535  0.9334
 9610TIP3    H250322   1.250   1.299   5.120 -1.1390  1.9742 -1.9937
 9611TIP3   OH250323   4.014   2.321   0.333 -0.1189  0.2606  0.1975
 9611TIP3    H150324   4.107   2.328   0.309 -0.3056  4.3657 -0.0614
 9611TIP3    H250325   3.975   2.402   0.299 -3.0650  0.3584  3.3514
 9612TIP3   OH250326   3.099   0.858   5.552  0.2758  0.0291 -0.1097
 9612TIP3    H150327   3.192   0.879   5.561  0.7242 -1.8121 -0.1376
 9612TIP3    H250328   3.088   0.774   5.597 -1.0184 -0.6520 -1.5935
 9613TIP3   OH250329   4.758   5.716  16.776  0.4434 -0.2168  0.3879
 9613TIP3    H150330   4.685   5.655  16.770  0.5797 -0.3794  0.3692
 9613TIP3    H250331   4.725   5.789  16.829  1.2243 -1.7053  3.0637
 9614TIP3   OH250332   4.049   2.623   2.623  0.3220 -0.1946 -0.3445
 9614TIP3    H150333   4.060   2.551   2.685  0.5227  0.1340  0.0064
 9614TIP3    H250334   4.134   2.667   2.623 -0.1564  0.7744  0.3752
 9615TIP3   OH250335   1.630   6.109  11.257 -0.5214 -0.1969 -0.1638
 9615TIP3    H150336   1.652   6.199  11.282 -1.1648 -0.0384 -0.1393
 9615TIP3    H250337   1.597   6.117  11.167 -2.8373 -0.0510  0.6518
 9616TIP3   OH250338   6.131   2.292  16.828  0.1927  0.3988  0.2438
 9616TIP3    H150339   6.202   2.346  16.863  0.8344  0.0560 -0.5028
 9616TIP3    H250340   6.172   2.240  16.758 -0.4727 -0.8327  0.7361
 9617TIP3   OH250341   4.141   3.858   0.460 -0.0019 -0.9492 -0.1210
 9617TIP3    H150342   4.120   3.936   0.511  0.0857 -1.7747  1.2339
 9617TIP3    H250343   4.169   3.891   0.375 -2.7241  0.3951 -0.5981
 9618TIP3   OH250344   3.738   5.757  13.340  0.1543  0.1438  0.1053
 9618TIP3    H150345   3.816   5.704  13.357 -1.1047 -1.8741 -0.0307
 9618TIP3    H250346   3.708   5.727  13.254 -1.4526 -0.0448  0.6973
 9619TIP3   OH250347   2.779   2.815   4.088 -0.1358 -0.2287 -0.2811
 9619TIP3    H150348   2.843   2.823   4.159 -1.0258  1.1740  0.3967
 9619TIP3    H250349   2.809   2.738   4.038  3.5639  1.7683 -1.5471
 9620TIP3   OH250350   5.332   2.423   4.931  0.0688  0.2018  0.5254
 9620TIP3    H150351   5.237   2.412   4.933  0.0818 -0.5874 -1.4881
 9620TIP3    H250352   5.360   2.404   5.021 -1.6526  0.4155  1.1411
 9621TIP3   OH250353   6.822   5.397  13.097  0.5895 -0.4515 -0.6870
 9621TIP3    H150354   6.848   5.322  13.151  2.5666 -1.0135 -2.3103
 9621TIP3    H250355   6.744   5.367  13.050 -0.2607 -0.4685  0.6539
 9622TIP3   OH250356   3.683   4.187  12.351 -0.0433  0.3211  0.3178
 9622TIP3    H150357   3.650   4.245  12.420 -2.9018  0.3807 -0.9578
 9622TIP3    H250358   3.611   4.181  12.288  0.5215 -3.6302 -0.2454
 9623TIP3   OH250359   2.663   0.531   3.881  0.2081  0.8468  0.0434
 9623TIP3    H150360   2.607   0.454   3.872  0.2879  0.6243  1.2956
 9623TIP3    H250361   2.669   0.567   3.792 -0.8844  0.1561 -0.3256
 9624TIP3   OH250362   0.101   2.533  11.486  0.4813  0.5245  0.3106
 9624TIP3    H150363   0.119   2.548  11.393  0.7599 -0.1997  0.2390
 9624TIP3    H250364   0.050   2.452  11.487 -0.7033  1.2477  0.6927
 9625TIP3   OH250365   5.172   5.145   5.038 -0.4464  0.4426  0.2530
 9625TIP3    H150366   5.226   5.119   4.963 -0.9468 -0.1170  0.0787
 9625TIP3    H250367   5.168   5.067   5.093 -2.5974 -0.1686 -0.6482
 9626TIP3   OH250368   2.476   3.876  10.920  0.3529  0.2803 -0.0591
 9626TIP3    H150369   2.408   3.908  10.861 -0.5271  1.3489  1.4723
 9626TIP3    H250370   2.556   3.876  10.867 -0.7947 -0.9878 -1.8810
 9627TIP3   OH250371   3.633   5.245  13.127  0.0127  0.2105  0.4991
 9627TIP3    H150372   3.541   5.219  13.130  0.4104 -1.1378  2.2968
 9627TIP3    H250373   3.670   5.193  13.055 -0.7087  1.2111 -0.6462
 9628TIP3   OH250374   1.596   4.597   4.959  0.2755 -0.7706 -0.4405
 9628TIP3    H150375   1.653   4.593   5.036  1.1595  1.4891 -0.9125
 9628TIP3    H250376   1.655   4.594   4.885 -0.1875  1.1947 -0.9487
 9629TIP3   OH250377   0.416   4.861  10.715 -0.6107 -0.2288  0.0157
 9629TIP3    H150378   0.426   4.895  10.626 -0.3623 -2.3679 -0.8475
 9629TIP3    H250379   0.327   4.886  10.741 -0.5913  0.6520 -0.7095
 9630TIP3   OH250380   2.532   2.246  17.019  0.6376 -0.1364 -0.0303
 9630TIP3    H150381   2.509   2.202  17.101 -1.1649 -0.0678 -0.4488
 9630TIP3    H250382   2.530   2.176  16.954  0.1359  0.1413 -0.3144
 9631TIP3   OH250383   5.748   5.819  15.114 -0.3740  0.3855 -0.3265
 9631TIP3    H150384   5.672   5.830  15.170 -1.1434  0.1456 -1.2906
 9631TIP3    H250385   5.764   5.906  15.078 -0.2898  0.4017 -0.2509
 9632TIP3   OH250386   2.886   1.977   1.737  0.3079  0.1046 -0.0837
 9632TIP3    H150387   2.815   1.945   1.793  0.4924 -1.1692 -0.5325
 9632TIP3    H250388   2.966   1.959   1.787  0.3603  0.8382  0.1006
 9633TIP3   OH250389   1.437   4.467   5.850 -0.1800 -1.0788  0.4007
 9633TIP3    H150390   1.375   4.435   5.916  1.3282  1.9102  3.5673
 9633TIP3    H250391   1.508   4.505   5.901  0.8299  2.0797 -2.9613
 9634TIP3   OH250392   6.115   5.553   1.077 -0.3647 -0.3305 -0.2317
 9634TIP3    H150393   6.140   5.635   1.035  1.1072 -0.5040  0.2519
 9634TIP3    H250394   6.197   5.504   1.084 -1.1648 -1.7158 -0.2231
 9635TIP3   OH250395   0.675   1.648  11.822  0.2787  0.2669 -0.1317
 9635TIP3    H150396   0.725   1.568  11.838 -0.4155  0.0244  0.9530
 9635TIP3    H250397   0.595   1.637  11.873 -0.4302  1.0924 -1.0259
 9636TIP3   OH250398   1.078   0.308   4.159  0.0869 -0.1063 -0.7434
 9636TIP3    H150399   1.063   0.290   4.066 -1.2811  0.6374 -0.6865
 9636TIP3    H250400   0.999   0.354   4.188  0.6530  0.0066  0.7024
 9637TIP3   OH250401   3.819   6.006   6.271  0.4813 -0.0353 -0.0986
 9637TIP3    H150402   3.788   6.032   6.358 -1.6644  0.9144 -1.0797
 9637TIP3    H250403   3.871   6.080   6.241  3.1077 -1.2484  1.1733
 9638TIP3   OH250404   0.637   5.716   0.322  0.6145 -0.1876 -0.2808
 9638TIP3    H150405   0.542   5.711   0.309  0.8211 -1.5074 -1.5585
 9638TIP3    H250406   0.670   5.755   0.241  1.1651  0.4405  0.2307
 9639TIP3   OH250407   3.859   3.520  12.924  0.2761 -0.0648 -0.1861
 9639TIP3    H150408   3.815   3.605  12.923  0.5706  0.0855 -1.2935
 9639TIP3    H250409   3.804   3.465  12.980 -0.5955  0.5004 -0.4713
 9640TIP3   OH250410   6.175   5.398  14.510 -0.4542  0.3430 -0.4759
 9640TIP3    H150411   6.081   5.384  14.521 -0.5903  1.3411 -0.2601
 9640TIP3    H250412   6.207   5.418  14.598 -0.0662  0.1571 -0.5737
 9641TIP3   OH250413   0.315   6.433   2.076  0.1353 -0.4586  0.8051
 9641TIP3    H150414   0.264   6.510   2.049  0.8507 -0.1135  0.4008
 9641TIP3    H250415   0.322   6.380   1.996  2.0355  0.4365  0.3334
 9642TIP3   OH250416   5.788   6.107  14.341  0.6505  0.1241 -0.0738
 9642TIP3    H150417   5.811   6.151  14.423  1.4990 -0.3714 -0.0409
 9642TIP3    H250418   5.812   6.015  14.356  0.5996 -0.0073 -0.7977
 9643TIP3   OH250419   3.220   5.751   3.025 -0.5289 -0.0613  0.0096
 9643TIP3    H150420   3.241   5.802   3.103 -0.2849  0.7748 -0.5973
 9643TIP3    H250421   3.142   5.700   3.050 -0.1573 -0.1862  0.9546
 9644TIP3   OH250422   3.033   2.802  13.313 -0.2722 -0.4036 -0.4407
 9644TIP3    H150423   3.106   2.863  13.316 -1.0743  0.5161  1.8607
 9644TIP3    H250424   3.068   2.726  13.266  1.5142  0.7823 -1.1351
 9645TIP3   OH250425   1.291   5.463  12.221  0.2189 -0.8694  0.7115
 9645TIP3    H150426   1.376   5.422  12.202  0.2382 -0.4287 -0.2144
 9645TIP3    H250427   1.289   5.541  12.164 -1.8956 -2.2575 -1.2761
 9646TIP3   OH250428   6.607   3.009  16.393 -0.2935  0.1005  0.2467
 9646TIP3    H150429   6.623   3.041  16.304  0.3973 -1.7907 -0.3479
 9646TIP3    H250430   6.516   3.033  16.411 -0.5669  0.1819 -1.1232
 9647TIP3   OH250431   1.825   3.142   1.534 -0.3853 -0.2293 -0.7006
 9647TIP3    H150432   1.783   3.101   1.610  1.4411  1.0101  1.0698
 9647TIP3    H250433   1.855   3.227   1.566  1.1193  0.0299 -2.6110
 9648TIP3   OH250434   6.351   0.414   6.698 -0.4130  0.5555 -0.0725
 9648TIP3    H150435   6.269   0.366   6.685 -1.4044  0.8715  3.7880
 9648TIP3    H250436   6.324   0.506   6.707  0.1749  0.5650  2.0455
 9649TIP3   OH250437   2.773   6.520  16.701  0.0360  0.2869  0.1348
 9649TIP3    H150438   2.818   6.519  16.785  0.0608 -1.9876  0.1664
 9649TIP3    H250439   2.718   6.441  16.703  0.4065 -0.0878 -2.1632
 9650TIP3   OH250440   4.332   1.087  15.880  0.1852  0.2619  0.1897
 9650TIP3    H150441   4.351   1.030  15.954  0.0716 -0.3987 -0.2771
 9650TIP3    H250442   4.321   1.027  15.806 -0.1340  0.8763 -0.2729
 9651TIP3   OH250443   4.104   1.599  14.059  0.4137  0.7720  0.7912
 9651TIP3    H150444   4.164   1.652  14.007 -1.2934  0.1783 -2.0440
 9651TIP3    H250445   4.051   1.663  14.107 -2.9890  2.2447 -4.0733
 9652TIP3   OH250446   4.724   3.979  12.610 -0.0680  0.1192 -0.5743
 9652TIP3    H150447   4.815   4.004  12.627 -0.3203 -0.5329  2.1460
 9652TIP3    H250448   4.678   4.062  12.601  0.1788  0.6466  2.0971
 9653TIP3   OH250449   4.674   4.439   4.727 -0.0374  0.2252  0.0717
 9653TIP3    H150450   4.683   4.472   4.817 -0.0595  1.5917 -0.3957
 9653TIP3    H250451   4.583   4.459   4.704  0.5259  1.8122 -0.9439
 9654TIP3   OH250452   1.235   5.627   5.826 -0.2012 -0.2788  0.2187
 9654TIP3    H150453   1.329   5.627   5.807  0.0230  0.8431  1.2122
 9654TIP3    H250454   1.222   5.551   5.883  0.1154 -0.4141  0.1147
 9655TIP3   OH250455   4.553   5.196   4.667 -0.4810 -0.1927  0.2114
 9655TIP3    H150456   4.482   5.261   4.674 -1.8341 -1.3910 -1.3903
 9655TIP3    H250457   4.523   5.137   4.598  2.0103 -0.8946 -0.3473
 9656TIP3   OH250458   3.975   0.029  11.310  0.8393  0.1884 -0.0135
 9656TIP3    H150459   3.899   0.086  11.296  0.6543  0.1184  0.6799
 9656TIP3    H250460   3.982  -0.021  11.229 -1.0389 -1.1768  0.5927
 9657TIP3   OH250461   4.534   0.119  15.026  0.4458  0.5282 -0.4011
 9657TIP3    H150462   4.511   0.199  15.073  1.1782  0.7699 -0.4460
 9657TIP3    H250463   4.619   0.092  15.063  1.0509  0.7460 -1.5987
 9658TIP3   OH250464   5.302   5.099   1.122 -0.6554  0.3729  0.6143
 9658TIP3    H150465   5.231   5.117   1.060 -1.3188 -0.4840  1.1087
 9658TIP3    H250466   5.354   5.180   1.122 -0.4807  0.3020 -1.2411
 9659TIP3   OH250467   0.069   6.122  15.509  0.1841 -0.3398 -0.0535
 9659TIP3    H150468   0.022   6.039  15.512 -1.9836  0.7353 -1.4074
 9659TIP3    H250469   0.060   6.158  15.597 -0.4096 -0.7625  0.0661
 9660TIP3   OH250470   4.638   5.214  16.291  0.2153  0.7360  0.5894
 9660TIP3    H150471   4.698   5.167  16.233 -1.4395 -2.9158  1.5666
 9660TIP3    H250472   4.694   5.258  16.354  1.8888 -0.3689 -0.0798
 9661TIP3   OH250473   1.003   5.935  11.567 -0.1212  0.5315  0.0092
 9661TIP3    H150474   1.017   6.023  11.532  1.2357  0.7458  0.9853
 9661TIP3    H250475   1.059   5.879  11.513 -3.4852 -0.4025 -2.8730
 9662TIP3   OH250476   4.802   5.115   2.561  0.3617  0.1063  0.5461
 9662TIP3    H150477   4.720   5.104   2.513 -0.2117  0.5072  1.4033
 9662TIP3    H250478   4.817   5.030   2.602  0.0669  0.1966  0.8465
 9663TIP3   OH250479   4.237   0.840  16.371 -0.3393  0.5913 -0.3069
 9663TIP3    H150480   4.238   0.802  16.459  0.6409  1.2895 -0.0008
 9663TIP3    H250481   4.184   0.919  16.380  1.5126  1.8450  0.2083
 9664TIP3   OH250482   6.284   4.780   4.182  0.0467  0.6431 -0.1166
 9664TIP3    H150483   6.264   4.873   4.178 -1.0567  0.3777 -1.7949
 9664TIP3    H250484   6.373   4.773   4.147  0.3597  1.0955  0.5587
 9665TIP3   OH250485   4.205   4.928   6.505 -0.6591  0.0434  0.0578
 9665TIP3    H150486   4.139   4.859   6.500  0.1190 -0.7457  0.4409
 9665TIP3    H250487   4.203   4.958   6.596 -0.3234 -0.1525  0.1315
 9666TIP3   OH250488   1.634   3.040   2.053 -0.1385 -0.4500 -0.5847
 9666TIP3    H150489   1.629   3.134   2.071 -0.5244 -0.3845 -1.0119
 9666TIP3    H250490   1.638   2.999   2.139 -0.2224 -0.0550 -0.3900
 9667TIP3   OH250491   6.184   5.082  14.399  0.1821 -0.1518  0.3563
 9667TIP3    H150492   6.245   5.016  14.368 -2.3182 -1.6504 -1.8541
 9667TIP3    H250493   6.231   5.165  14.389  2.2724 -1.3049  0.0650
 9668TIP3   OH250494   4.319   1.144  10.915 -0.3127 -0.2077  0.4116
 9668TIP3    H150495   4.231   1.127  10.883 -0.4586  0.1871  0.5946
 9668TIP3    H250496   4.368   1.171  10.838 -0.5184  0.1937  0.4182
 9669TIP3   OH250497   1.044   5.295  16.100  0.2915  0.1112 -0.1715
 9669TIP3    H150498   1.088   5.306  16.184 -0.7086 -1.0857  0.5426
 9669TIP3    H250499   1.115   5.290  16.036  1.1213 -0.1682  0.7575
 9670TIP3   OH250500   3.168   6.100  15.251 -0.1474 -0.1690  0.1151
 9670TIP3    H150501   3.166   6.097  15.155  0.0718  2.1863 -0.0207
 9670TIP3    H250502   3.195   6.012  15.277 -0.9635 -1.0924 -1.9373
 9671TIP3   OH250503   0.824   3.781   1.359 -0.1833  0.0982 -0.6674
 9671TIP3    H150504   0.849   3.860   1.311 -1.6590  2.1188  1.6018
 9671TIP3    H250505   0.774   3.729   1.296  0.3192  1.2535 -2.0728
 9672TIP3   OH250506   4.809   3.185  16.371  0.1411 -0.1972  0.5805
 9672TIP3    H150507   4.804   3.096  16.405  1.2732 -0.5086 -0.0415
 9672TIP3    H250508   4.873   3.181  16.300  2.7030  1.6807  2.5622
 9673TIP3   OH250509   0.112   2.904   4.610 -0.0384 -0.0397 -0.2179
 9673TIP3    H150510   0.034   2.934   4.564 -0.1212 -0.9463 -0.7022
 9673TIP3    H250511   0.082   2.830   4.663  0.4930 -0.4461 -0.4666
 9674TIP3   OH250512   3.479   4.443   2.145  0.2859 -0.3010  0.5573
 9674TIP3    H150513   3.564   4.482   2.124  0.5074 -0.0498  1.8517
 9674TIP3    H250514   3.500   4.358   2.183 -0.0707 -0.4983  0.3189
 9675TIP3   OH250515   4.327   2.946   1.025  0.0171 -0.5607  0.1081
 9675TIP3    H150516   4.326   2.864   1.075 -0.7633 -0.5174  0.1736
 9675TIP3    H250517   4.341   3.014   1.091 -1.4529 -0.4630  0.3562
 9676TIP3   OH250518   6.785   5.892   2.026  0.0839 -0.5824  0.1504
 9676TIP3    H150519   6.776   5.971   2.079  0.1234 -0.3875 -0.1322
 9676TIP3    H250520   6.865   5.851   2.059  0.2212 -0.3547  0.1080
 9677TIP3   OH250521   5.540   3.878  11.339 -0.1777  0.7864 -0.6293
 9677TIP3    H150522   5.513   3.916  11.255  2.8103  0.4678 -1.8273
 9677TIP3    H250523   5.635   3.879  11.337  0.0160  0.7180  2.7982
 9678TIP3   OH250524   6.521   0.927   3.231 -0.1752  0.2583  0.2293
 9678TIP3    H150525   6.426   0.923   3.238 -0.1383  0.4878  0.9142
 9678TIP3    H250526   6.538   1.003   3.176 -0.4165 -0.5665 -1.0400
 9679TIP3   OH250527   6.037   5.384  15.721  0.7385  0.5389  0.4604
 9679TIP3    H150528   6.055   5.394  15.814  2.6299  1.0117  0.0916
 9679TIP3    H250529   6.110   5.331  15.688 -0.2353 -0.1637 -0.6542
 9680TIP3   OH250530   0.613   0.044  13.084  0.2127 -0.1013  0.4286
 9680TIP3    H150531   0.563   0.024  13.005 -0.7487  1.5315  0.5735
 9680TIP3    H250532   0.681   0.105  13.054  0.2227  0.0478  0.7484
 9681TIP3   OH250533   4.231   5.510  15.350  0.9107  0.4115 -0.4714
 9681TIP3    H150534   4.303   5.508  15.413 -0.5411  1.0615  1.3252
 9681TIP3    H250535   4.222   5.602  15.326 -0.8719  0.7739  1.3253
 9682TIP3   OH250536   1.372   2.477   4.772 -0.1164  0.7520  0.2044
 9682TIP3    H150537   1.297   2.417   4.774  0.9501 -0.7523 -1.7761
 9682TIP3    H250538   1.358   2.534   4.848 -3.1350  0.4174  0.0359
 9683TIP3   OH250539   1.080   2.430   3.831 -0.6096 -0.2230 -0.0399
 9683TIP3    H150540   1.077   2.347   3.783 -1.8597 -0.4668  0.4169
 9683TIP3    H250541   1.128   2.410   3.911 -3.0081 -1.2215  1.2694
 9684TIP3   OH250542   6.435   5.066   4.739  0.1677  0.1364 -0.8085
 9684TIP3    H150543   6.502   5.113   4.788  1.3240 -0.9631 -1.2913
 9684TIP3    H250544   6.370   5.041   4.805  1.1458 -0.3626 -0.0272
 9685TIP3   OH250545   5.137   6.625   0.346 -0.6884 -0.1878 -0.0736
 9685TIP3    H150546   5.074   6.646   0.277 -0.3296 -0.5612 -0.5245
 9685TIP3    H250547   5.194   6.558   0.307 -0.3801 -0.2861  0.5290
 9686TIP3   OH250548   5.326   3.487  14.629 -0.1681 -0.2217 -0.4151
 9686TIP3    H150549   5.248   3.516  14.675 -0.0388 -1.8749  0.9621
 9686TIP3    H250550   5.303   3.492  14.536 -0.6542  2.5953 -0.2189
 9687TIP3   OH250551   2.168   3.768  12.867 -0.4072 -0.0701  0.1800
 9687TIP3    H150552   2.073   3.761  12.871 -0.4039  0.1331  0.6938
 9687TIP3    H250553   2.191   3.735  12.780 -1.0121  0.6126 -0.2461
 9688TIP3   OH250554   1.521   5.009  10.673 -0.0786 -0.1034 -0.6371
 9688TIP3    H150555   1.455   5.078  10.677 -0.6170 -0.6454  0.2482
 9688TIP3    H250556   1.472   4.930  10.651  0.1793 -0.5966  0.4689
 9689TIP3   OH250557   1.342   3.203  13.969  0.0944 -1.1021  0.0098
 9689TIP3    H150558   1.269   3.149  13.939  0.9442 -2.0945 -0.3145
 9689TIP3    H250559   1.417   3.173  13.918  0.9956 -0.9432  1.1826
 9690TIP3   OH250560   6.093   0.822   2.917 -0.0309  0.2205 -0.3152
 9690TIP3    H150561   6.055   0.907   2.940 -0.7449 -0.2790  0.3692
 9690TIP3    H250562   6.150   0.800   2.991  2.3113  1.3160 -1.6406
 9691TIP3   OH250563   3.729   3.863  12.067  0.3093 -0.3643  0.6426
 9691TIP3    H150564   3.740   3.769  12.085  0.3661 -0.3927  0.4573
 9691TIP3    H250565   3.644   3.869  12.023  0.4087 -0.3570  0.4488
 9692TIP3   OH250566   5.279   6.573  13.206  0.5824  0.2590 -0.0776
 9692TIP3    H150567   5.325   6.530  13.277 -2.5564 -1.0649  1.3516
 9692TIP3    H250568   5.226   6.640  13.248 -0.7874 -0.0517 -1.2179
 9693TIP3   OH250569   0.257   2.474  14.925  0.2854 -0.8012 -0.0012
 9693TIP3    H150570   0.233   2.567  14.922  2.4591 -0.2099 -1.1590
 9693TIP3    H250571   0.311   2.461  14.847 -0.0304 -3.0757  0.1040
 9694TIP3   OH250572   1.814   0.520   4.364  0.7235  0.3854  0.0045
 9694TIP3    H150573   1.758   0.464   4.311 -0.7523  2.7340 -1.0992
 9694TIP3    H250574   1.902   0.505   4.331  0.0251  0.6585 -2.1479
 9695TIP3   OH250575   2.771   6.197   0.705  0.8200 -1.0029 -0.6350
 9695TIP3    H150576   2.808   6.222   0.790  0.8023 -3.5634  0.2028
 9695TIP3    H250577   2.792   6.271   0.647  1.2042  0.6321  1.4615
 9696TIP3   OH250578   4.240   5.332  16.139  0.0143  0.1184  0.1245
 9696TIP3    H150579   4.158   5.377  16.157  0.2332  0.1658  1.0157
 9696TIP3    H250580   4.215   5.240  16.127 -0.3735  0.3765 -1.2721
 9697TIP3   OH250581   3.094   4.101  11.739 -0.0655 -0.5535  0.1378
 9697TIP3    H150582   3.163   4.163  11.716 -0.3170 -0.0602  0.6718
 9697TIP3    H250583   3.019   4.156  11.763 -0.5790 -1.0751 -0.2293
 9698TIP3   OH250584   2.441   5.100   5.920 -0.5341 -0.1877  0.2306
 9698TIP3    H150585   2.515   5.143   5.877 -1.2953 -0.4535 -1.4384
 9698TIP3    H250586   2.478   5.059   5.998  0.4040  2.6138  1.3604
 9699TIP3   OH250587   2.658   6.761  15.529 -0.2518 -0.0718 -0.2375
 9699TIP3    H150588   2.653   6.667  15.510 -0.6018  0.2162 -1.6807
 9699TIP3    H250589   2.570   6.794  15.511  0.0202  0.6368 -0.2876
 9700TIP3   OH250590   0.442   1.049   2.860 -0.1252 -0.6656  0.5633
 9700TIP3    H150591   0.535   1.043   2.879  0.3777 -1.2163 -1.7375
 9700TIP3    H250592   0.417   1.137   2.887  1.8230  0.6586 -1.5618
 9701TIP3   OH250593   6.500   3.058   1.398  0.4575  0.3909  0.2125
 9701TIP3    H150594   6.579   3.101   1.429  1.4215 -1.2217  0.1023
 9701TIP3    H250595   6.531   2.990   1.339 -0.5284 -3.3299  3.5552
 9702TIP3   OH250596   2.707   0.326   4.974 -0.0909 -0.4238  0.3468
 9702TIP3    H150597   2.728   0.362   5.060  0.2834 -0.0142  0.0942
 9702TIP3    H250598   2.612   0.332   4.967 -0.2465 -1.5775  1.2051
 9703TIP3   OH250599   4.528   0.570   5.229 -0.3052 -0.4827 -0.0290
 9703TIP3    H150600   4.495   0.487   5.196 -0.6995 -0.6728  0.8145
 9703TIP3    H250601   4.460   0.633   5.208  0.0881 -0.3147 -0.8626
 9704TIP3   OH250602   0.601   4.981  14.793 -0.5227 -0.5024  0.2716
 9704TIP3    H150603   0.641   5.064  14.819 -0.7949 -0.4990  0.6893
 9704TIP3    H250604   0.635   4.917  14.855  0.5753 -0.9291 -0.7441
 9705TIP3   OH250605   6.459   6.267   0.338 -0.6183 -0.0488  0.0202
 9705TIP3    H150606   6.520   6.197   0.312  1.0170  1.1423  0.4411
 9705TIP3    H250607   6.395   6.271   0.267  1.7458  0.8545 -2.2718
 9706TIP3   OH250608   5.771   0.470   2.377  0.1970  0.2186  0.0703
 9706TIP3    H150609   5.827   0.395   2.354 -0.9553 -0.1554 -1.6822
 9706TIP3    H250610   5.701   0.433   2.429 -0.5587 -0.0102 -1.0819
 9707TIP3   OH250611   5.114   6.829   6.476 -0.3966 -0.4294  0.2623
 9707TIP3    H150612   5.041   6.817   6.538  0.2876  0.0432  1.1928
 9707TIP3    H250613   5.176   6.884   6.524 -0.2493  0.7180 -1.1908
 9708TIP3   OH250614   1.094   1.705  15.990 -0.5587  0.0381  0.3562
 9708TIP3    H150615   1.124   1.636  16.048 -0.3102  0.3391  0.5845
 9708TIP3    H250616   1.007   1.728  16.023 -0.8433 -0.4808 -0.0021
 9709TIP3   OH250617   0.471   3.775  12.915 -0.2771 -0.0932 -0.4709
 9709TIP3    H150618   0.501   3.765  13.005 -0.9151 -0.8743 -0.3342
 9709TIP3    H250619   0.397   3.835  12.921  1.4869  2.2885 -0.8769
 9710TIP3   OH250620   3.658   0.996   4.501 -0.2846 -0.2325  0.1021
 9710TIP3    H150621   3.605   0.976   4.424 -2.0420  0.6853  1.0216
 9710TIP3    H250622   3.669   0.911   4.544 -0.9550 -0.4597 -0.1537
 9711TIP3   OH250623   1.635   1.273   5.786 -1.0457 -0.9021  0.5083
 9711TIP3    H150624   1.711   1.252   5.732 -1.9654  0.0252 -1.2124
 9711TIP3    H250625   1.671   1.288   5.873  0.8469  0.1786 -0.4038
 9712TIP3   OH250626   4.259   5.404   5.431  0.4115 -0.2118 -0.0408
 9712TIP3    H150627   4.312   5.477   5.400 -0.4384  1.0796  1.4052
 9712TIP3    H250628   4.189   5.445   5.482  0.2249 -2.0492  1.2931
 9713TIP3   OH250629   4.143   4.747  15.175  0.1266  0.2484 -0.5056
 9713TIP3    H150630   4.164   4.686  15.246 -1.2886 -0.1731 -0.4132
 9713TIP3    H250631   4.228   4.774  15.141  0.8136 -0.5574  0.4870
 9714TIP3   OH250632   2.765   0.294  13.985 -0.7379  0.0761  0.3653
 9714TIP3    H150633   2.831   0.353  14.021  0.2218  0.3256 -1.6831
 9714TIP3    H250634   2.809   0.248  13.914 -2.1740 -1.3438  0.3261
 9715TIP3   OH250635   3.828   2.302   0.082  0.4458 -0.0220  0.1378
 9715TIP3    H150636   3.757   2.356   0.049 -1.2887 -0.4212  2.8510
 9715TIP3    H250637   3.907   2.353   0.066 -0.7264  1.6564 -0.6143
 9716TIP3   OH250638   5.471   0.043  15.702 -0.7013  0.1373 -0.8009
 9716TIP3    H150639   5.534   0.093  15.649 -0.2242 -0.1365 -0.4944
 9716TIP3    H250640   5.490   0.069  15.792 -1.0684  0.0945 -0.7103
 9717TIP3   OH250641   5.191   4.275  17.068 -0.4393  0.0160 -0.2732
 9717TIP3    H150642   5.257   4.263  17.136 -1.0226  1.4242  0.5720
 9717TIP3    H250643   5.221   4.351  17.018 -0.2914 -0.6840 -1.3093
 9718TIP3   OH250644   5.551   6.431   0.277  0.5703  0.4166 -0.0207
 9718TIP3    H150645   5.568   6.393   0.364  1.1025 -1.9912 -1.0907
 9718TIP3    H250646   5.471   6.482   0.288 -0.3595 -1.2693  1.5198
 9719TIP3   OH250647   3.082   2.953   0.524  0.2240  0.2292 -0.2562
 9719TIP3    H150648   3.084   2.918   0.613 -0.2947 -0.1371 -0.3835
 9719TIP3    H250649   3.089   2.875   0.468  4.7776  0.6088 -0.6035
 9720TIP3   OH250650   4.354   3.029  14.855 -0.3780  0.0051  0.1154
 9720TIP3    H150651   4.343   2.994  14.943 -0.3323  0.1423  0.1760
 9720TIP3    H250652   4.284   3.094  14.846  0.7165  1.3183  0.7239
 9721TIP3   OH250653   0.548   4.663  14.208 -0.0952 -0.7848  0.2485
 9721TIP3    H150654   0.631   4.694  14.243  0.0856 -2.5840  1.5417
 9721TIP3    H250655   0.571   4.587  14.154 -0.5765  0.8012 -2.3939
 9722TIP3   OH250656   1.672   2.309   5.548 -0.3345  0.4808 -0.3755
 9722TIP3    H150657   1.587   2.289   5.508  0.1983 -1.3548 -0.6896
 9722TIP3    H250658   1.658   2.300   5.642 -0.8614  1.8158 -0.3085
 9723TIP3   OH250659   1.253   3.699  12.413 -0.2082  0.4580 -0.4878
 9723TIP3    H150660   1.279   3.777  12.365  0.5494  1.1171  0.9070
 9723TIP3    H250661   1.179   3.727  12.467 -1.7801 -0.5553 -1.9991
 9724TIP3   OH250662   1.820   3.132  12.382  0.1590 -0.7378 -0.2637
 9724TIP3    H150663   1.793   3.124  12.474  1.7665 -2.9989  0.0869
 9724TIP3    H250664   1.802   3.223  12.360  0.3803  0.0704  2.5259
 9725TIP3   OH250665   3.272   4.512   4.685  0.0633  0.2947  0.1899
 9725TIP3    H150666   3.205   4.446   4.699 -0.6410  1.0397  0.3821
 9725TIP3    H250667   3.353   4.471   4.715 -0.5190 -0.1427  1.1916
 9726TIP3   OH250668   4.422   0.611   5.500 -0.9003 -0.1084  0.0544
 9726TIP3    H150669   4.432   0.622   5.405 -0.7095 -1.6854 -0.1286
 9726TIP3    H250670   4.446   0.696   5.536  2.5393 -0.4261 -1.1109
 9727TIP3   OH250671   1.450   1.338  13.271  0.3519 -0.5591  0.1014
 9727TIP3    H150672   1.471   1.287  13.349  1.6795 -0.8567 -0.4122
 9727TIP3    H250673   1.528   1.392  13.256 -0.8029  1.2540  0.3267
 9728TIP3   OH250674   5.002   2.809   5.017 -0.7724 -0.3937  0.3470
 9728TIP3    H150675   5.055   2.802   4.937  0.5122  2.6926  0.7754
 9728TIP3    H250676   5.051   2.758   5.082 -0.8560 -1.4085 -0.3517
 9729TIP3   OH250677   6.298   6.786  14.001 -0.3710 -0.2287  0.0232
 9729TIP3    H150678   6.210   6.808  13.969 -0.5997 -0.1252  0.6903
 9729TIP3    H250679   6.299   6.690  14.001 -0.1659 -0.2258 -0.8174
 9730TIP3   OH250680   2.582   1.540  16.801  0.1303  0.4071  0.6158
 9730TIP3    H150681   2.580   1.574  16.712 -2.1148  3.7277  1.7737
 9730TIP3    H250682   2.527   1.462  16.798 -0.3232  0.7535 -0.7921
 9731TIP3   OH250683   0.584   1.231   4.046  0.4406  0.1190 -0.6239
 9731TIP3    H150684   0.623   1.201   3.964 -0.7368 -2.0491 -0.4549
 9731TIP3    H250685   0.644   1.298   4.078  1.9421 -0.3714 -2.2723
 9732TIP3   OH250686   2.506   4.277  11.815  0.2890 -0.7750  0.3128
 9732TIP3    H150687   2.570   4.325  11.762  0.4378 -2.3594 -1.0206
 9732TIP3    H250688   2.553   4.255  11.895  0.6008  0.2160  0.4138
 9733TIP3   OH250689   2.793   4.130   2.089 -0.0292  0.0473 -0.5090
 9733TIP3    H150690   2.880   4.162   2.065  0.6056 -0.9522  0.3654
 9733TIP3    H250691   2.748   4.117   2.005 -0.9425  4.5652 -0.9952
 9734TIP3   OH250692   2.384   2.932   5.503 -0.1029 -0.5653 -0.2329
 9734TIP3    H150693   2.333   3.009   5.479  0.9638  0.4515  0.6233
 9734TIP3    H250694   2.475   2.959   5.493  0.3317 -2.4651 -2.1267
 9735TIP3   OH250695   6.663   0.533  10.482 -0.0951 -0.1498  0.1164
 9735TIP3    H150696   6.748   0.493  10.464 -0.7674 -1.2048 -0.8433
 9735TIP3    H250697   6.615   0.467  10.532  0.0829  0.9528  1.8219
 9736TIP3   OH250698   3.803   6.590  14.821 -0.2196  0.2058 -0.2041
 9736TIP3    H150699   3.781   6.497  14.819 -0.1620 -0.0431  3.6989
 9736TIP3    H250700   3.896   6.593  14.795 -1.0519 -0.2770 -3.6984
 9737TIP3   OH250701   0.734   0.056  15.704  0.8830 -0.0273 -0.0201
 9737TIP3    H150702   0.663  -0.007  15.703  1.9840 -1.3426  0.6956
 9737TIP3    H250703   0.745   0.078  15.797 -0.9895  3.0848 -0.3842
 9738TIP3   OH250704   1.576   5.468   1.177 -0.0420  0.4555  0.0751
 9738TIP3    H150705   1.518   5.398   1.146 -0.1210  0.1343  0.9314
 9738TIP3    H250706   1.545   5.546   1.131 -0.6456  0.1367 -0.0762
 9739TIP3   OH250707   1.924   6.288  14.823 -0.4981 -0.1550 -0.1647
 9739TIP3    H150708   1.901   6.337  14.902  0.8672 -0.0302  0.1864
 9739TIP3    H250709   1.845   6.239  14.802 -0.2929 -1.8965  2.5680
 9740TIP3   OH250710   3.725   1.393   0.836  0.2632  0.3230 -0.0751
 9740TIP3    H150711   3.667   1.463   0.805  1.0552  1.1617  0.2728
 9740TIP3    H250712   3.666   1.320   0.856 -0.7364  1.3395  0.8076
 9741TIP3   OH250713   4.100   3.633   5.750  0.0169 -0.1503  1.0584
 9741TIP3    H150714   4.066   3.543   5.749 -0.3763 -0.0165 -0.4314
 9741TIP3    H250715   4.028   3.685   5.787 -1.0867 -0.0251 -1.0873
 9742TIP3   OH250716   2.666   1.604  15.230 -0.0667  0.5829  0.0109
 9742TIP3    H150717   2.678   1.516  15.267 -2.1857  1.3397  2.8694
 9742TIP3    H250718   2.582   1.600  15.185  0.7276  0.7137 -1.5609
 9743TIP3   OH250719   3.995   3.930   3.816 -0.2678 -0.6810  0.2144
 9743TIP3    H150720   4.002   4.017   3.776 -0.2573 -0.9927 -0.4732
 9743TIP3    H250721   3.942   3.944   3.894 -0.9906 -0.1940 -0.3519
 9744TIP3   OH250722   6.815   1.659   2.436 -0.3189 -0.1416  0.0020
 9744TIP3    H150723   6.806   1.754   2.442 -1.1593 -0.2651  0.8231
 9744TIP3    H250724   6.902   1.641   2.470 -0.9829  0.1543  1.9762
 9745TIP3   OH250725   4.499   4.194   3.702 -0.7697 -0.2775 -0.1415
 9745TIP3    H150726   4.495   4.107   3.741 -1.7477 -0.6224 -0.9415
 9745TIP3    H250727   4.551   4.182   3.622 -0.8781 -0.1295 -0.2360
 9746TIP3   OH250728   1.484   2.289   3.368  0.0955 -0.0694  0.3773
 9746TIP3    H150729   1.478   2.196   3.387 -0.3354 -0.2379 -0.5346
 9746TIP3    H250730   1.394   2.321   3.377  0.2348  0.2551  0.6483
 9747TIP3   OH250731   5.795   1.320  14.800  0.1595  0.0195 -0.1236
 9747TIP3    H150732   5.778   1.308  14.893  0.6630  0.7338  0.0738
 9747TIP3    H250733   5.891   1.320  14.794  0.1914 -2.4679 -0.9866
 9748TIP3   OH250734   5.891   5.863  15.977  0.1772  0.1409 -0.1766
 9748TIP3    H150735   5.915   5.795  15.914 -1.0660 -0.4124 -0.0726
 9748TIP3    H250736   5.962   5.861  16.042  0.8978 -0.0391 -0.9501
 9749TIP3   OH250737   3.762   4.219   2.071 -0.1597  0.6572  0.0555
 9749TIP3    H150738   3.683   4.164   2.070  0.2556  0.0390 -1.8983
 9749TIP3    H250739   3.729   4.309   2.069 -0.8023  0.4378  0.3610
 9750TIP3   OH250740   2.219   3.638  16.255  0.1664 -0.5074  0.1016
 9750TIP3    H150741   2.203   3.694  16.179  2.4415 -1.6583 -1.3196
 9750TIP3    H250742   2.133   3.599  16.274 -0.4680 -0.2011 -1.8960
 9751TIP3   OH250743   2.369   0.342   2.486 -0.2744 -0.1181 -0.1278
 9751TIP3    H150744   2.313   0.288   2.430 -1.8800  2.3203 -1.0583
 9751TIP3    H250745   2.416   0.279   2.541  0.9297 -2.7055 -3.6672
 9752TIP3   OH250746   3.910   6.167   2.531  0.4138  0.1834 -0.5528
 9752TIP3    H150747   3.829   6.180   2.482 -0.1971  1.6628  0.7692
 9752TIP3    H250748   3.963   6.109   2.475 -1.7021 -1.2153 -1.2299
 9753TIP3   OH250749   4.273   5.891   5.044 -0.6192 -0.0493  0.0729
 9753TIP3    H150750   4.185   5.922   5.065 -0.4345  2.7807 -2.6305
 9753TIP3    H250751   4.331   5.963   5.069  0.3802  0.0240 -2.1879
 9754TIP3   OH250752   0.173   1.195   4.325  0.0447 -0.1880 -0.0074
 9754TIP3    H150753   0.119   1.201   4.404 -0.6594  0.6977 -0.5292
 9754TIP3    H250754   0.213   1.109   4.329 -0.6063 -0.4596  0.9226
 9755TIP3   OH250755   4.232   2.298  11.846 -0.8554 -0.2949  0.4637
 9755TIP3    H150756   4.255   2.226  11.903  0.5304 -0.6804 -0.5316
 9755TIP3    H250757   4.172   2.260  11.782  1.0893 -1.0225 -1.0147
 9756TIP3   OH250758   1.343   4.899   6.453 -0.2943 -0.1867 -0.0275
 9756TIP3    H150759   1.311   4.985   6.426 -1.9124 -0.5862  0.4681
 9756TIP3    H250760   1.302   4.884   6.538  1.5258 -0.6357  0.8247
 9757TIP3   OH250761   3.784   0.991   5.127  0.1971  0.3483 -0.0055
 9757TIP3    H150762   3.729   0.915   5.110  1.1509 -0.5879  0.9695
 9757TIP3    H250763   3.739   1.039   5.197 -0.4362  0.7215 -0.6656
 9758TIP3   OH250764   3.454   0.824   3.198  0.0401  0.3005  0.3660
 9758TIP3    H150765   3.364   0.824   3.229 -0.1490 -1.4523 -0.0947
 9758TIP3    H250766   3.466   0.739   3.157  1.6933  0.7747 -0.2414
 9759TIP3   OH250767   0.655   3.773  11.746 -0.0096  0.3355  0.4701
 9759TIP3    H150768   0.638   3.685  11.712 -0.6751  0.3000  0.8704
 9759TIP3    H250769   0.611   3.832  11.685 -0.7554  0.3018  0.9596
 9760TIP3   OH250770   2.906   4.445   1.438  0.4767  0.0871  0.1191
 9760TIP3    H150771   2.941   4.439   1.349  1.0240 -0.4583  0.3612
 9760TIP3    H250772   2.975   4.407   1.493  1.3221  2.8565  1.1124
 9761TIP3   OH250773   1.460   5.785  16.051 -0.0731  0.0429 -0.6584
 9761TIP3    H150774   1.442   5.844  16.125  0.4331 -2.5082  1.6531
 9761TIP3    H250775   1.397   5.812  15.984 -2.7425  0.5528  1.8410
 9762TIP3   OH250776   6.258   4.938  11.361  0.1302 -0.1516  0.0164
 9762TIP3    H150777   6.238   4.921  11.453  2.0382 -0.2606  0.4612
 9762TIP3    H250778   6.305   4.859  11.332 -0.3856 -0.0804 -1.0261
 9763TIP3   OH250779   5.114   4.574  17.029  0.1361 -0.2262 -0.0165
 9763TIP3    H150780   5.066   4.558  16.947  0.4171 -1.1167 -0.0079
 9763TIP3    H250781   5.206   4.577  17.002  0.3112 -1.5480  0.4180
 9764TIP3   OH250782   5.482   0.352   0.159 -0.4106  0.1863  0.4973
 9764TIP3    H150783   5.574   0.377   0.171 -0.2942  0.0149 -0.0103
 9764TIP3    H250784   5.452   0.408   0.087 -0.9667  0.8903  1.2672
 9765TIP3   OH250785   3.340   4.693  15.105  0.4757 -0.7007 -0.6540
 9765TIP3    H150786   3.404   4.633  15.143  1.0147 -0.1565 -0.6838
 9765TIP3    H250787   3.371   4.707  15.016  1.7999  1.5568  0.0742
 9766TIP3   OH250788   0.217   4.368  16.884 -0.0251 -0.0045 -0.0196
 9766TIP3    H150789   0.305   4.404  16.881  0.1354 -0.4184 -1.2422
 9766TIP3    H250790   0.222   4.297  16.947  0.2780  0.5567  0.5910
 9767TIP3   OH250791   2.502   0.127  13.454  0.7292  0.2342  0.5443
 9767TIP3    H150792   2.417   0.084  13.454  0.2633  1.0336  2.5089
 9767TIP3    H250793   2.533   0.120  13.363 -1.3179 -0.2492 -0.1663
 9768TIP3   OH250794   6.184   0.895   4.165 -0.0526  0.1286 -1.2730
 9768TIP3    H150795   6.126   0.874   4.092 -0.6638  0.5023 -0.8987
 9768TIP3    H250796   6.126   0.908   4.240  0.4143  1.5301 -1.1245
 9769TIP3   OH250797   6.196   0.790  14.756  0.1025  0.0264 -0.1354
 9769TIP3    H150798   6.171   0.860  14.817  1.7801 -0.0316  0.6831
 9769TIP3    H250799   6.203   0.712  14.810 -1.0092 -0.6372 -0.9127
 9770TIP3   OH250800   4.288   2.165   6.119  0.0255 -0.7027 -0.3960
 9770TIP3    H150801   4.368   2.216   6.128 -1.1063  0.6920  3.3240
 9770TIP3    H250802   4.307   2.082   6.163 -0.4696 -0.4701  0.2668
 9771TIP3   OH250803   5.161   3.176   0.671  0.4370  0.1517  0.2216
 9771TIP3    H150804   5.239   3.191   0.724 -0.7835 -0.5169  2.3128
 9771TIP3    H250805   5.147   3.082   0.674  0.3417  0.0786 -1.3938
 9772TIP3   OH250806   0.320   2.887  14.544 -0.2337 -0.6540 -0.1977
 9772TIP3    H150807   0.244   2.944  14.531  1.7987  1.5045 -5.3590
 9772TIP3    H250808   0.291   2.800  14.517 -1.6963 -0.7356  1.4733
 9773TIP3   OH250809   0.123   4.266  12.709 -0.0837  0.3918  0.2727
 9773TIP3    H150810   0.076   4.250  12.628  0.5190 -0.3693  0.0513
 9773TIP3    H250811   0.108   4.358  12.729 -1.4571  0.2241  0.0953
 9774TIP3   OH250812   2.572   0.718   3.603  0.0687 -0.4643 -0.1567
 9774TIP3    H150813   2.477   0.708   3.611  0.2676 -1.2430  1.5782
 9774TIP3    H250814   2.603   0.631   3.580  0.3513 -0.1315 -1.0752
 9775TIP3   OH250815   4.450   0.271  17.026  0.2100 -0.6441 -0.3026
 9775TIP3    H150816   4.411   0.346  16.982 -0.4406 -0.5162  0.4836
 9775TIP3    H250817   4.403   0.195  16.990 -0.2286 -0.5504  0.0770
 9776TIP3   OH250818   0.788   3.157   2.916  0.0720 -0.1014 -0.3947
 9776TIP3    H150819   0.846   3.093   2.875 -1.5645 -1.3696 -0.8155
 9776TIP3    H250820   0.711   3.159   2.859  0.2634  2.6457 -0.6760
 9777TIP3   OH250821   2.791   2.484  11.467  0.0860  0.4739 -0.3490
 9777TIP3    H150822   2.786   2.458  11.375  0.5765  0.5892 -0.4121
 9777TIP3    H250823   2.747   2.569  11.470  0.9291  0.9279 -0.6627
 9778TIP3   OH250824   3.093   3.521  14.444 -0.0412 -0.4023 -0.2336
 9778TIP3    H150825   3.049   3.606  14.436 -0.7972 -0.5481  1.7090
 9778TIP3    H250826   3.056   3.468  14.373  0.6256  0.9310 -1.6280
 9779TIP3   OH250827   6.215   4.629   1.401  0.5757 -0.4254 -0.1594
 9779TIP3    H150828   6.137   4.595   1.444  0.9854  0.5865  1.4856
 9779TIP3    H250829   6.257   4.552   1.363 -0.2045 -1.2539  0.6214
 9780TIP3   OH250830   3.389   0.540   2.877  0.1409  0.3539  0.2007
 9780TIP3    H150831   3.348   0.597   2.811  0.6289 -0.6955 -1.0654
 9780TIP3    H250832   3.426   0.468   2.826  1.9707  0.3156  1.4803
 9781TIP3   OH250833   4.710   4.276  15.514 -0.7437  0.4240 -0.0071
 9781TIP3    H150834   4.635   4.328  15.486 -0.3863  1.1838  0.4170
 9781TIP3    H250835   4.757   4.256  15.434 -1.6924 -0.5462 -0.3487
 9782TIP3   OH250836   1.128   2.837  11.694  0.1919  0.0135 -0.3310
 9782TIP3    H150837   1.101   2.768  11.634 -1.8843  0.8203 -0.3970
 9782TIP3    H250838   1.081   2.817  11.775 -0.0243  1.0397 -0.1896
 9783TIP3   OH250839   5.731   3.645  10.861  0.0033 -0.8349  0.6425
 9783TIP3    H150840   5.656   3.600  10.821  0.2326 -2.4639  1.9708
 9783TIP3    H250841   5.792   3.658  10.788 -0.5706 -1.6296  0.0016
 9784TIP3   OH250842   1.061   4.835  14.956 -0.2706 -0.0536 -0.0676
 9784TIP3    H150843   1.110   4.856  15.035  0.9857  0.7848 -1.0268
 9784TIP3    H250844   1.124   4.787  14.901 -0.1870  1.8045 -1.6958
 9785TIP3   OH250845   1.890   3.017   0.875 -0.1876  0.0638 -0.6194
 9785TIP3    H150846   1.821   3.059   0.926 -0.3107  0.4550 -1.0965
 9785TIP3    H250847   1.860   3.025   0.784  0.2293 -0.2450 -0.7861
 9786TIP3   OH250848   2.613   5.148  11.054 -0.1052 -0.7492 -0.0652
 9786TIP3    H150849   2.632   5.069  11.105  0.6518 -0.9296 -0.6030
 9786TIP3    H250850   2.646   5.127  10.966  1.3088  0.6619  0.0997
 9787TIP3   OH250851   3.291   2.390  13.151 -0.1847 -0.2432  0.5586
 9787TIP3    H150852   3.362   2.336  13.116 -2.5207 -2.7924 -0.7282
 9787TIP3    H250853   3.280   2.361  13.241  0.0217 -0.2837  0.5705
 9788TIP3   OH250854   6.795   5.638   5.716  0.2504  0.6237  0.6809
 9788TIP3    H150855   6.754   5.715   5.756  0.0599  0.9703 -0.1647
 9788TIP3    H250856   6.823   5.668   5.630  0.1406 -0.2685  0.3242
 9789TIP3   OH250857   3.687   6.407  11.693 -0.2774 -0.4414  0.4288
 9789TIP3    H150858   3.703   6.497  11.662  0.8691 -1.1298 -1.0882
 9789TIP3    H250859   3.714   6.408  11.785  0.4815  0.5676  0.2110
 9790TIP3   OH250860   5.027   3.772  13.649 -0.5897  0.2218 -0.0476
 9790TIP3    H150861   5.064   3.766  13.560  0.6807  0.3326  0.4566
 9790TIP3    H250862   5.058   3.856  13.682  3.2183 -1.8246  2.2823
 9791TIP3   OH250863   5.095   6.181  12.380  0.1296  0.4579  0.1875
 9791TIP3    H150864   5.130   6.096  12.354 -0.4076  0.2023  0.2942
 9791TIP3    H250865   5.070   6.223  12.297  0.6258  0.6200  0.1147
 9792TIP3   OH250866   1.802   3.146  15.685 -0.4532  0.0975 -0.3168
 9792TIP3    H150867   1.794   3.059  15.645  0.4888  0.1172 -0.5746
 9792TIP3    H250868   1.810   3.206  15.611 -0.6268  0.3538 -0.1306
 9793TIP3   OH250869   0.978   1.328   4.931  0.8174  0.4903 -1.0716
 9793TIP3    H150870   0.973   1.378   4.850  1.1524  0.0160 -1.3928
 9793TIP3    H250871   0.887   1.313   4.957  0.6708 -0.5290 -2.1036
 9794TIP3   OH250872   5.950   4.815   3.047 -0.1026  0.1453  0.2008
 9794TIP3    H150873   5.965   4.778   3.134 -0.3204  0.4174  0.3556
 9794TIP3    H250874   5.949   4.739   2.989 -3.4815 -0.5052  0.8717
 9795TIP3   OH250875   6.178   2.692   2.729  0.3511  0.1884  0.3515
 9795TIP3    H150876   6.239   2.753   2.769 -0.6038  0.9600  0.6682
 9795TIP3    H250877   6.102   2.745   2.705 -0.7908 -0.9657  1.2632
 9796TIP3   OH250878   6.415   3.541  11.382 -0.2611 -0.1993 -0.2380
 9796TIP3    H150879   6.392   3.492  11.302  0.8932 -1.1087 -0.0381
 9796TIP3    H250880   6.458   3.620  11.350 -0.8268 -0.0106 -0.5385
 9797TIP3   OH250881   2.674   3.678  15.318 -0.3959 -0.1775 -0.1910
 9797TIP3    H150882   2.618   3.755  15.329 -0.7218 -0.2228 -1.4393
 9797TIP3    H250883   2.694   3.650  15.408 -2.5888 -0.3257  0.2900
 9798TIP3   OH250884   1.746   1.050   6.041  0.1270  0.2150 -0.0417
 9798TIP3    H150885   1.764   1.021   6.131 -1.2962  0.3723  0.3104
 9798TIP3    H250886   1.784   0.982   5.986 -1.2023 -1.2280  0.7414
 9799TIP3   OH250887   0.037   5.637   3.899  0.0423 -0.6833 -1.0359
 9799TIP3    H150888   0.056   5.714   3.846 -0.6950 -0.2686 -0.7245
 9799TIP3    H250889  -0.057   5.623   3.887 -0.1864 -0.4567  0.2996
 9800TIP3   OH250890   4.077   2.530   6.079  0.0888  0.0937 -0.6669
 9800TIP3    H150891   4.094   2.455   6.023 -1.2843 -0.5467 -0.2819
 9800TIP3    H250892   3.984   2.521   6.104  0.0606  1.5725 -0.1120
 9801TIP3   OH250893   4.226   2.611  14.248 -0.7234  0.0691 -0.3396
 9801TIP3    H150894   4.255   2.653  14.329 -2.2235 -0.3624  0.4582
 9801TIP3    H250895   4.176   2.679  14.203 -3.1864 -0.7529  0.9699
 9802TIP3   OH250896   2.383   2.193  12.323 -0.4046 -0.1241 -0.2074
 9802TIP3    H150897   2.476   2.196  12.346 -0.8107  2.2649  1.5014
 9802TIP3    H250898   2.364   2.278  12.285 -1.7819 -0.7926 -1.1050
 9803TIP3   OH250899   6.605   3.371  11.109  0.4387 -0.5061  0.2796
 9803TIP3    H150900   6.536   3.429  11.079  0.0587  0.1819  2.2977
 9803TIP3    H250901   6.562   3.312  11.171  1.8096  0.8596  2.7066
 9804TIP3   OH250902   4.352   6.201   5.832  0.3038  0.0905  0.2529
 9804TIP3    H150903   4.414   6.192   5.905  0.2723 -1.9969  0.0838
 9804TIP3    H250904   4.373   6.128   5.774 -2.3794 -0.7628  0.2493
 9805TIP3   OH250905   2.153   3.713   2.130 -0.7655 -0.2410 -0.2851
 9805TIP3    H150906   2.196   3.630   2.110 -0.6378 -0.0391 -0.8581
 9805TIP3    H250907   2.218   3.762   2.180 -1.2859 -0.9640  1.1654
 9806TIP3   OH250908   5.323   3.035  17.094 -0.0240 -0.3326  0.0760
 9806TIP3    H150909   5.235   3.019  17.128  0.3851 -0.9170  0.8709
 9806TIP3    H250910   5.377   2.966  17.131  0.8488  0.2164 -0.1324
 9807TIP3   OH250911   3.000   0.419  11.281 -0.4031  0.0622 -0.3134
 9807TIP3    H150912   2.966   0.430  11.370 -1.0928  1.2138 -0.6967
 9807TIP3    H250913   2.928   0.447  11.224  0.5476  0.7847 -1.1990
 9808TIP3   OH250914   2.624   3.177   1.651 -0.4351 -0.1345  0.0347
 9808TIP3    H150915   2.586   3.242   1.709  0.2501 -0.3821  0.7893
 9808TIP3    H250916   2.669   3.116   1.710  0.6392 -0.1614 -0.7670
 9809TIP3   OH250917   4.697   0.461   4.356 -0.2290 -0.1812 -0.4827
 9809TIP3    H150918   4.699   0.411   4.274 -0.1035 -0.5986 -0.2240
 9809TIP3    H250919   4.742   0.406   4.419 -2.7746 -1.1556  0.6168
 9810TIP3   OH250920   3.564   2.376   1.983  0.0397 -0.3968  0.1308
 9810TIP3    H150921   3.534   2.376   2.074 -4.3179  1.1005 -1.0541
 9810TIP3    H250922   3.608   2.461   1.973 -2.5275  1.0181  0.1229
 9811TIP3   OH250923   3.829   6.050   4.805  0.0944  0.1783  0.0457
 9811TIP3    H150924   3.924   6.052   4.799  0.0935 -0.1187 -0.1034
 9811TIP3    H250925   3.810   6.001   4.885  0.0701  0.7191  0.3748
 9812TIP3   OH250926   6.269   5.002  15.322  0.6207  0.3139  0.0323
 9812TIP3    H150927   6.296   4.922  15.276  0.9174 -0.4203  1.4072
 9812TIP3    H250928   6.318   4.999  15.404  0.0504  1.5344  0.4362
 9813TIP3   OH250929   2.042   2.521   1.441 -0.4483 -0.2628 -0.0189
 9813TIP3    H150930   2.062   2.605   1.399  1.5761 -1.1503 -0.9717
 9813TIP3    H250931   2.068   2.533   1.532 -1.5547  0.5668  0.2149
 9814TIP3   OH250932   5.916   5.810   5.475  0.1134  1.1141 -0.0220
 9814TIP3    H150933   5.955   5.784   5.392  0.0891 -2.1990  0.8516
 9814TIP3    H250934   5.985   5.793   5.540 -0.5382  1.7212  0.8528
 9815TIP3   OH250935   4.387   0.712  14.243 -0.0743 -0.2736  0.1684
 9815TIP3    H150936   4.397   0.784  14.181  2.1456 -3.0347 -3.1295
 9815TIP3    H250937   4.467   0.715  14.296  0.0341 -0.2448  0.0082
 9816TIP3   OH250938   6.465   0.382   2.545  0.6819  0.8330  0.1002
 9816TIP3    H150939   6.391   0.375   2.485  0.5023  1.1562  0.2809
 9816TIP3    H250940   6.481   0.293   2.574 -0.6186  0.9363  1.2330
 9817TIP3   OH250941   6.474   5.482  14.634 -0.1078  0.1212  0.0690
 9817TIP3    H150942   6.436   5.445  14.713 -2.7959  1.4409 -0.5028
 9817TIP3    H250943   6.454   5.418  14.565  1.3308 -0.5404  0.2285
 9818TIP3   OH250944   4.481   0.983   0.046 -0.3724 -0.2099 -0.1878
 9818TIP3    H150945   4.448   1.058   0.095 -2.7817 -1.2238 -0.1424
 9818TIP3    H250946   4.489   0.913   0.111  3.4056  0.2840  0.1179
 9819TIP3   OH250947   2.675   0.296   1.683 -0.6128  0.5602 -0.2315
 9819TIP3    H150948   2.580   0.295   1.695 -0.9049  3.2443 -1.5403
 9819TIP3    H250949   2.708   0.355   1.751  0.1761 -0.5007  0.3370
 9820TIP3   OH250950   3.792   6.158  15.408 -0.1543 -0.3898  0.6282
 9820TIP3    H150951   3.757   6.180  15.321 -0.5432 -3.7790 -0.1872
 9820TIP3    H250952   3.714   6.154  15.464 -0.2234 -0.9099  0.4933
 9821TIP3   OH250953   6.747   2.867   3.691 -0.0941 -0.4860 -1.0411
 9821TIP3    H150954   6.680   2.817   3.643  0.3058 -2.8917  0.7538
 9821TIP3    H250955   6.699   2.940   3.730 -1.6110 -1.8201 -0.2940
 9822TIP3   OH250956   4.016   6.076   2.792  0.3021 -0.4048 -0.0219
 9822TIP3    H150957   3.974   6.121   2.718 -0.6128  0.0830  0.7714
 9822TIP3    H250958   3.975   6.114   2.869  0.1403 -1.9790  0.6987
 9823TIP3   OH250959   4.618   3.738   0.410 -0.2500 -0.0511  0.1580
 9823TIP3    H150960   4.644   3.819   0.365 -0.5416  0.3194  0.6391
 9823TIP3    H250961   4.597   3.677   0.340  0.9495 -0.0408 -0.2316
 9824TIP3   OH250962   5.720   0.206  11.611  0.3819 -0.2322  0.5811
 9824TIP3    H150963   5.730   0.171  11.522  0.2858 -1.5695  1.0688
 9824TIP3    H250964   5.646   0.157  11.647 -0.6041  1.4067  0.8900
 9825TIP3   OH250965   6.143   5.916   4.987  0.2777  0.2180 -0.5123
 9825TIP3    H150966   6.207   5.901   5.057 -0.2797 -0.9501 -0.2242
 9825TIP3    H250967   6.113   6.006   5.001 -0.6838 -0.3384  1.5248
 9826TIP3   OH250968   2.634   5.615  16.674  0.4688 -0.2284  1.0510
 9826TIP3    H150969   2.638   5.700  16.630  3.1146 -0.6124  0.3328
 9826TIP3    H250970   2.693   5.624  16.749  0.1410 -1.1888  1.4349
 9827TIP3   OH250971   4.193   3.611  11.543  0.9550 -0.2914  0.2044
 9827TIP3    H150972   4.237   3.589  11.461 -2.2523 -0.0216 -1.7482
 9827TIP3    H250973   4.110   3.562  11.539 -0.6301  2.0703  1.8327
 9828TIP3   OH250974   4.783   6.118   5.174 -0.7336 -0.1271  0.0928
 9828TIP3    H150975   4.813   6.205   5.148 -0.4603  0.5280  2.4250
 9828TIP3    H250976   4.862   6.065   5.175 -0.3457  0.4217  1.6710
 9829TIP3   OH250977   6.105   4.080  11.997  0.2153  0.0154  0.0592
 9829TIP3    H150978   6.032   4.141  12.000  0.5628  0.4024  1.3204
 9829TIP3    H250979   6.111   4.045  12.086 -0.3590 -2.3621 -0.7412
 9830TIP3   OH250980   3.426   3.817   3.879  0.8166  0.3779 -0.4401
 9830TIP3    H150981   3.481   3.818   3.957  0.7688 -3.2928 -0.1855
 9830TIP3    H250982   3.337   3.831   3.911  0.9561  0.3367 -0.0347
 9831TIP3   OH250983   5.823   4.839  16.238 -0.4436 -0.1401 -0.1932
 9831TIP3    H150984   5.849   4.776  16.305 -2.6424  0.0134  0.9015
 9831TIP3    H250985   5.729   4.824  16.226 -0.3527  0.7032 -2.3419
 9832TIP3   OH250986   0.709   1.330   4.452 -0.6461 -0.2165 -0.4350
 9832TIP3    H150987   0.727   1.382   4.374 -1.5208 -0.5877 -0.8953
 9832TIP3    H250988   0.783   1.270   4.459 -0.7918 -0.5056 -1.2574
 9833TIP3   OH250989   5.482   4.388  15.152 -0.1713  0.5500 -0.7785
 9833TIP3    H150990   5.519   4.427  15.073 -2.0439  0.3180 -1.8078
 9833TIP3    H250991   5.471   4.295  15.130  2.2456 -0.2611  0.9052
 9834TIP3   OH250992   0.083   0.782   0.206  0.9631  0.0140 -0.0660
 9834TIP3    H150993   0.034   0.799   0.126  0.9929  1.6082  0.2296
 9834TIP3    H250994   0.133   0.702   0.187  1.6341  0.8467 -1.9519
 9835TIP3   OH250995   0.514   3.988  11.605 -0.0882  0.8791 -0.5536
 9835TIP3    H150996   0.500   4.081  11.622 -0.0822  0.7155  0.3696
 9835TIP3    H250997   0.426   3.951  11.603 -0.1072  0.9435 -1.2054
 9836TIP3   OH250998   4.972   0.386  14.384  0.2237  0.2161  0.0286
 9836TIP3    H150999   4.953   0.477  14.362 -0.0719 -0.2130 -1.5517
 9836TIP3    H251000   4.887   0.345  14.397  0.2910 -0.1810 -0.7326
 9837TIP3   OH251001   2.181   4.832  16.662  0.0801  0.2321 -0.4355
 9837TIP3    H151002   2.119   4.759  16.669 -1.4214  1.5411  0.5503
 9837TIP3    H251003   2.255   4.805  16.717 -1.0574  0.0147  1.0539
 9838TIP3   OH251004   1.342   1.019  11.776  0.2503 -0.3323 -0.3321
 9838TIP3    H151005   1.389   1.073  11.840  3.1361 -1.8606 -0.9900
 9838TIP3    H251006   1.289   0.960  11.830  1.8040 -0.8819  0.6792
 9839TIP3   OH251007   5.776   2.816  15.206 -0.1589 -0.7109 -0.3515
 9839TIP3    H151008   5.750   2.894  15.255 -1.3006 -0.4137 -1.3962
 9839TIP3    H251009   5.768   2.744  15.270 -1.2200 -0.2781  0.0132
 9840TIP3   OH251010   1.583   3.829  14.617  0.2133 -0.4110  1.0053
 9840TIP3    H151011   1.551   3.906  14.572 -1.2233 -1.1135  0.7732
 9840TIP3    H251012   1.510   3.767  14.616  1.2417 -1.7021  1.3761
 9841TIP3   OH251013   1.538   2.083   5.162  0.6749  0.3520  0.1737
 9841TIP3    H151014   1.487   2.002   5.170  0.5579  0.2675 -1.1971
 9841TIP3    H251015   1.498   2.129   5.088  2.3085  0.4873 -0.6685
 9842TIP3   OH251016   4.198   6.185  13.366  0.1946 -0.4886 -0.5409
 9842TIP3    H151017   4.130   6.133  13.410 -0.8944  0.5896 -0.8875
 9842TIP3    H251018   4.215   6.258  13.427  0.8313 -0.5905 -0.5917
 9843TIP3   OH251019   1.949   3.442   2.636 -0.0913 -0.0579  0.1251
 9843TIP3    H151020   1.881   3.379   2.658 -0.1185 -0.1355 -0.1835
 9843TIP3    H251021   1.924   3.521   2.685  0.2470 -0.4498  0.9521
 9844TIP3   OH251022   6.319   4.253  12.066 -0.7172 -0.6876 -0.1474
 9844TIP3    H151023   6.289   4.163  12.062 -1.6034 -0.3624 -1.8898
 9844TIP3    H251024   6.240   4.305  12.047 -0.4173  0.5173  1.6233
 9845TIP3   OH251025   5.574   6.591   5.451 -0.2959 -0.1878 -0.2147
 9845TIP3    H151026   5.508   6.521   5.446 -0.6135  0.0799  0.1697
 9845TIP3    H251027   5.536   6.663   5.401 -0.8840  0.4277  1.0763
 9846TIP3   OH251028   1.247   0.969  14.198  0.1350 -0.3876  0.0106
 9846TIP3    H151029   1.197   0.889  14.209  0.2720 -0.5755 -0.6919
 9846TIP3    H251030   1.201   1.017  14.130 -0.1780  0.3254  0.7101
 9847TIP3   OH251031   6.737   0.398   0.293 -0.0383  0.4604 -0.5977
 9847TIP3    H151032   6.798   0.455   0.246 -0.9096  0.2807 -2.0417
 9847TIP3    H251033   6.689   0.352   0.223  0.6494 -2.0996  0.5008
 9848TIP3   OH251034   1.442   1.385   2.530 -0.5132  0.2599  0.3616
 9848TIP3    H151035   1.526   1.384   2.575 -0.8484 -0.8093  0.9884
 9848TIP3    H251036   1.398   1.305   2.558 -0.1227 -1.2976 -3.0194
 9849TIP3   OH251037   6.747   0.757   1.535 -0.3023 -0.0411 -0.3249
 9849TIP3    H151038   6.816   0.695   1.560  0.7573  0.3034 -2.2106
 9849TIP3    H251039   6.738   0.747   1.441 -3.0138 -0.1844 -0.1075
 9850TIP3   OH251040   1.946   5.316   2.015  0.1236 -1.0387  0.5691
 9850TIP3    H151041   1.934   5.221   2.014 -1.9710 -0.8291 -1.7700
 9850TIP3    H251042   1.858   5.352   2.027  0.7842  0.6449  0.6899
 9851TIP3   OH251043   4.597   1.272   0.802 -0.6595 -0.5514 -0.4388
 9851TIP3    H151044   4.559   1.359   0.786 -0.5987 -0.3525  0.4366
 9851TIP3    H251045   4.577   1.222   0.722 -1.9449 -0.1679 -0.3879
 9852TIP3   OH251046   6.418   3.882   5.808 -0.2915  0.1773 -0.5433
 9852TIP3    H151047   6.444   3.893   5.899  2.7824 -1.0320 -1.1858
 9852TIP3    H251048   6.345   3.820   5.811 -3.3010  3.4074  1.3007
 9853TIP3   OH251049   0.826   5.391  12.130 -0.2605  0.5193 -0.1825
 9853TIP3    H151050   0.740   5.357  12.154  0.3378 -0.5929  0.4508
 9853TIP3    H251051   0.833   5.376  12.036  0.1084 -1.4642  0.1186
 9854TIP3   OH251052   6.758   0.009   0.001 -1.0063  0.5913  0.0930
 9854TIP3    H151053   6.668  -0.013  -0.023 -0.2807 -1.5204 -0.9211
 9854TIP3    H251054   6.750   0.048   0.088 -2.8540 -0.0534  0.2645
 9855TIP3   OH251055   4.950   5.909  16.264 -0.3847 -0.4271 -0.9448
 9855TIP3    H151056   4.943   5.863  16.347  2.3938  1.4230  0.4462
 9855TIP3    H251057   4.887   5.981  16.272  1.5329  1.1703  0.6763
 9856TIP3   OH251058   5.097   1.929   3.535 -0.0847 -0.2473  0.3421
 9856TIP3    H151059   5.036   1.923   3.608  1.1191  1.6968  1.5883
 9856TIP3    H251060   5.178   1.889   3.568 -0.3313 -1.8834 -0.9350
 9857TIP3   OH251061   3.405   3.185  10.640  0.0326  0.7871 -0.0944
 9857TIP3    H151062   3.449   3.207  10.558 -0.4487  0.2353 -0.5064
 9857TIP3    H251063   3.390   3.270  10.682  1.2493  1.0043 -0.0605
 9858TIP3   OH251064   1.215   4.537   2.078  0.4788 -0.1982  0.2149
 9858TIP3    H151065   1.240   4.567   1.990 -0.9234  0.5715  0.0452
 9858TIP3    H251066   1.291   4.555   2.132  0.3025  2.2637 -0.2276
 9859TIP3   OH251067   6.342   2.328  14.125  0.5709  0.0006  0.1709
 9859TIP3    H151068   6.430   2.301  14.098  0.0116 -0.1396 -1.6671
 9859TIP3    H251069   6.314   2.260  14.187  1.1161 -0.9109 -0.5510
 9860TIP3   OH251070   1.208   1.969   0.749  0.6927  0.1956 -0.1655
 9860TIP3    H151071   1.287   1.943   0.702 -0.0817 -1.9674 -0.3978
 9860TIP3    H251072   1.236   1.980   0.839  1.5804  1.2218 -0.5520
 9861TIP3   OH251073   3.473   2.402  16.278  0.2104  0.1281  0.2609
 9861TIP3    H151074   3.431   2.472  16.227 -2.6047 -1.2234  0.5071
 9861TIP3    H251075   3.459   2.427  16.369 -1.1104 -0.8338  0.3572
 9862TIP3   OH251076   4.525   1.361  11.718 -0.1548  0.2848  0.0394
 9862TIP3    H151077   4.530   1.419  11.642  1.7103  1.7427  1.1753
 9862TIP3    H251078   4.597   1.299  11.706  0.0313  0.4061  0.5061
 9863TIP3   OH251079   0.049   3.749  12.586  0.0177  0.0706  0.5508
 9863TIP3    H151080   0.121   3.696  12.551 -1.5289 -2.0504  0.3365
 9863TIP3    H251081  -0.030   3.709  12.548 -1.2559  4.2755 -1.9630
 9864TIP3   OH251082   4.404   0.536  15.366 -0.3407 -0.3423 -0.3669
 9864TIP3    H151083   4.400   0.552  15.271  1.4409  0.0479 -0.4061
 9864TIP3    H251084   4.438   0.447  15.373 -3.8702 -1.8188 -0.0687
 9865TIP3   OH251085   0.978   3.281   0.192  0.4700 -0.7352 -0.0101
 9865TIP3    H151086   0.887   3.311   0.184  0.6329 -0.0851  0.4431
 9865TIP3    H251087   0.978   3.193   0.156 -0.2305 -0.5351 -0.5226
 9866TIP3   OH251088   4.763   1.781  11.671 -0.2192 -0.7786  0.3786
 9866TIP3    H151089   4.742   1.721  11.742 -0.1612 -1.5475 -0.2473
 9866TIP3    H251090   4.679   1.821  11.647 -0.2959 -0.7866  0.6354
 9867TIP3   OH251091   6.726   0.525   3.872  0.1047  0.3314  0.7032
 9867TIP3    H151092   6.713   0.596   3.809  1.2981 -0.2234 -0.2094
 9867TIP3    H251093   6.738   0.447   3.818  2.1640  0.0083  1.5370
 9868TIP3   OH251094   2.374   0.021  10.783 -0.4194  0.3528 -0.0630
 9868TIP3    H151095   2.446   0.060  10.733 -1.4607  1.5497 -0.6826
 9868TIP3    H251096   2.318  -0.021  10.717 -1.1466  0.8553  0.2216
 9869TIP3   OH251097   0.066   0.415   2.989  0.2593 -0.0762  0.2318
 9869TIP3    H151098  -0.019   0.406   2.947  1.2096  1.3905 -2.2083
 9869TIP3    H251099   0.088   0.508   2.980  0.8290  0.2706  3.6157
 9870TIP3   OH251100   3.752   6.748   1.934  0.3656 -0.0397  0.2056
 9870TIP3    H151101   3.666   6.786   1.947 -0.1664 -0.3310 -2.0982
 9870TIP3    H251102   3.741   6.688   1.860  2.3113 -0.8674  0.5236
 9871TIP3   OH251103   4.199   1.386   0.721  0.3782 -0.4007 -0.0179
 9871TIP3    H151104   4.259   1.312   0.711 -1.9336 -2.2280 -1.7002
 9871TIP3    H251105   4.227   1.449   0.656  0.7214 -1.0481 -0.5126
 9872TIP3   OH251106   3.413   0.511   3.935  0.0596 -0.6220  0.2719
 9872TIP3    H151107   3.427   0.417   3.939 -1.1902 -0.7789  2.3881
 9872TIP3    H251108   3.371   0.533   4.018 -0.0819  1.7400 -0.3428
 9873TIP3   OH251109   4.551   4.054   0.634  0.1988 -0.0709  0.6152
 9873TIP3    H151110   4.597   3.991   0.579  0.9741  0.5905  0.4923
 9873TIP3    H251111   4.471   4.076   0.585  0.2029 -0.5251  0.4056
 9874TIP3   OH251112   6.609   2.001   0.029 -0.8451  0.1047  0.0416
 9874TIP3    H151113   6.597   2.073   0.090 -0.6300  1.0328 -0.9780
 9874TIP3    H251114   6.535   2.009  -0.031 -0.8469 -0.5600 -0.0485
 9875TIP3   OH251115   1.833   4.642   5.621  0.1454 -0.3510 -0.1613
 9875TIP3    H151116   1.839   4.720   5.566 -0.1452 -0.4021 -0.2633
 9875TIP3    H251117   1.810   4.571   5.562  0.4417 -0.5252 -0.0734
 9876TIP3   OH251118   1.684   6.704  11.317  0.2999  0.4286 -0.3447
 9876TIP3    H151119   1.757   6.708  11.256  0.3226  1.1203 -0.2718
 9876TIP3    H251120   1.725   6.681  11.401  0.2894 -0.3382 -0.5385
 9877TIP3   OH251121   3.001   6.342  12.861 -0.2911  0.2787 -0.2785
 9877TIP3    H151122   2.943   6.411  12.831 -2.7144 -1.4903  0.0051
 9877TIP3    H251123   2.955   6.302  12.935  1.3006 -1.2108 -0.0115
 9878TIP3   OH251124   5.762   0.047   0.595  0.4388 -0.3427  0.1423
 9878TIP3    H151125   5.794   0.105   0.526  2.3710 -1.7487 -0.2034
 9878TIP3    H251126   5.667   0.048   0.584  0.6365  0.2366 -1.9256
 9879TIP3   OH251127   6.141   1.013  16.237  0.3718 -0.5851 -0.1218
 9879TIP3    H151128   6.232   1.032  16.214  0.7439 -1.6957  0.3685
 9879TIP3    H251129   6.147   0.949  16.308 -0.7909 -0.0839  0.4591
 9880TIP3   OH251130   0.511   4.851   2.265  0.1639  0.5885 -0.3484
 9880TIP3    H151131   0.469   4.898   2.336 -0.6686 -1.2296  0.4318
 9880TIP3    H251132   0.533   4.918   2.201 -1.0175  1.9996  0.6683
 9881TIP3   OH251133   2.210   1.814   4.300  0.2426 -0.5083 -0.3442
 9881TIP3    H151134   2.273   1.767   4.246  1.0660  0.0015  0.1514
 9881TIP3    H251135   2.171   1.747   4.356  0.2438 -0.8412 -0.7327
 9882TIP3   OH251136   3.347   2.914   1.238  0.1598 -0.2083 -0.1724
 9882TIP3    H151137   3.442   2.913   1.224  0.1794 -3.4197 -0.7466
 9882TIP3    H251138   3.336   2.886   1.329 -0.2584  0.1178 -0.1203
 9883TIP3   OH251139   1.520   6.210   0.221  0.1208 -0.0166 -0.1117
 9883TIP3    H151140   1.601   6.216   0.273  1.4275 -0.2232 -2.0030
 9883TIP3    H251141   1.485   6.299   0.222  0.6304  0.1902  0.3280
 9884TIP3   OH251142   6.305   1.449  12.663  0.0035 -0.5825  0.4659
 9884TIP3    H151143   6.211   1.446  12.645 -0.2537  1.2526  1.2008
 9884TIP3    H251144   6.319   1.384  12.732 -0.7056 -0.9871  0.2316
 9885TIP3   OH251145   6.837   0.939   0.918  0.2206  0.2582 -0.9897
 9885TIP3    H151146   6.847   0.886   0.997  1.1867  0.4833 -0.9576
 9885TIP3    H251147   6.796   0.880   0.855 -2.1206  0.5242  0.1491
 9886TIP3   OH251148   1.521   3.904  11.896 -0.6386 -0.1530 -0.0276
 9886TIP3    H151149   1.503   3.971  11.830 -2.7085  1.0739  1.6391
 9886TIP3    H251150   1.512   3.821  11.850  0.0201  0.6656 -1.7138
 9887TIP3   OH251151   0.291   1.724  16.635 -0.4668  0.6822 -0.4572
 9887TIP3    H151152   0.303   1.630  16.651 -0.2335  0.9960  1.4463
 9887TIP3    H251153   0.198   1.733  16.615 -0.2695 -0.0754 -1.8547
 9888TIP3   OH251154   5.970   2.724  12.557 -0.2058 -0.1341  0.1306
 9888TIP3    H151155   5.978   2.756  12.467 -0.7228  1.3106  0.5554
 9888TIP3    H251156   5.993   2.800  12.611 -0.6792 -0.7340  1.2109
 9889TIP3   OH251157   0.808   5.839   0.493 -0.3310 -0.2882  0.3944
 9889TIP3    H151158   0.786   5.910   0.552  1.3000 -0.0376  0.7593
 9889TIP3    H251159   0.730   5.827   0.438 -0.5250  1.9985  0.0914
 9890TIP3   OH251160   2.165   0.480   1.070  0.0474  0.9042 -0.0625
 9890TIP3    H151161   2.229   0.549   1.089  0.2194  1.3825 -2.1630
 9890TIP3    H251162   2.095   0.524   1.023 -2.5028  0.6212  3.1200
 9891TIP3   OH251163   3.921   5.735  15.850 -0.6594 -0.2358 -0.3466
 9891TIP3    H151164   3.909   5.693  15.764 -0.2508 -0.2806 -0.3819
 9891TIP3    H251165   3.833   5.766  15.873 -0.4168  1.6864 -1.7705
 9892TIP3   OH251166   4.935   0.311   3.999  0.1283  0.0847  0.1834
 9892TIP3    H151167   5.011   0.254   4.007  0.7485  1.1444  2.7130
 9892TIP3    H251168   4.928   0.328   3.905  1.3004 -2.2428 -0.4060
 9893TIP3   OH251169   3.157   1.685  13.775 -0.5130 -0.0874  0.6820
 9893TIP3    H151170   3.102   1.724  13.708 -1.4016 -2.2068  0.1019
 9893TIP3    H251171   3.229   1.644  13.727  1.0093  1.6469  1.3513
 9894TIP3   OH251172   3.974   3.043   4.055  0.1193  0.3281 -0.4591
 9894TIP3    H151173   4.029   3.065   3.980  1.5828  0.2123  0.5436
 9894TIP3    H251174   3.954   3.127   4.097  0.2648  0.2978 -0.3280
 9895TIP3   OH251175   0.614   2.167   0.114 -0.0947  0.2448  0.7457
 9895TIP3    H151176   0.674   2.227   0.158  0.0801 -0.0435  0.9017
 9895TIP3    H251177   0.599   2.097   0.177 -0.4471  0.2185  0.6364
 9896TIP3   OH251178   5.652   4.465   1.110  0.0145 -0.2789 -0.1076
 9896TIP3    H151179   5.557   4.466   1.122  0.0476  0.2121  0.1496
 9896TIP3    H251180   5.669   4.384   1.062 -0.6613  0.2377 -1.2592
 9897TIP3   OH251181   3.206   0.954   5.837  0.2200 -0.3747 -0.4749
 9897TIP3    H151182   3.256   0.964   5.918  0.5870  1.7545 -0.8921
 9897TIP3    H251183   3.270   0.972   5.768 -0.4984 -0.3545 -1.1467
 9898TIP3   OH251184   2.608   1.272   0.320 -0.1960  0.8409 -0.3439
 9898TIP3    H151185   2.622   1.366   0.327 -1.1130  0.9017  1.1106
 9898TIP3    H251186   2.522   1.257   0.360 -0.8013 -0.4246 -1.9860
 9899TIP3   OH251187   3.998   0.975   4.730  0.2769 -0.4630  0.0315
 9899TIP3    H151188   4.007   1.004   4.639 -0.8504 -1.3580 -0.3846
 9899TIP3    H251189   3.938   1.039   4.769  0.2314 -0.4576 -0.0456
 9900TIP3   OH251190   5.080   3.403  14.356  0.1977 -0.3772  0.2437
 9900TIP3    H151191   5.067   3.343  14.282 -1.4787 -2.5520  2.1533
 9900TIP3    H251192   4.993   3.413  14.394  0.9250  1.1009  1.6269
 9901TIP3   OH251193   1.798   0.437   2.357 -0.4597  0.2981 -0.3155
 9901TIP3    H151194   1.877   0.482   2.385 -2.1589  2.8905  0.7513
 9901TIP3    H251195   1.752   0.417   2.438 -1.4810  0.0258 -0.9398
 9902TIP3   OH251196   1.204   2.305   3.364  0.2457  0.4874 -0.5306
 9902TIP3    H151197   1.181   2.246   3.292  0.1665  0.4796 -0.4983
 9902TIP3    H251198   1.141   2.285   3.433  0.5411  0.2522 -0.3317
 9903TIP3   OH251199   1.976   0.051  14.088  0.1958  0.5253  0.3004
 9903TIP3    H151200   1.978   0.091  14.175  1.7685  0.9493  0.0888
 9903TIP3    H251201   2.068   0.039  14.064 -0.1651  1.2665 -1.6913
 9904TIP3   OH251202   4.857   1.624  14.156 -0.2360  0.3848 -0.5349
 9904TIP3    H151203   4.800   1.609  14.232 -0.3098 -0.0271 -0.6718
 9904TIP3    H251204   4.816   1.697  14.110 -1.0331 -0.3326 -0.9935
 9905TIP3   OH251205   3.910   5.741   1.384 -0.0464  0.0007 -0.8398
 9905TIP3    H151206   3.943   5.831   1.389  0.0918 -0.0899  0.1034
 9905TIP3    H251207   3.900   5.725   1.291  2.2696  0.1641 -1.1906
 9906TIP3   OH251208   6.684   0.346   2.875  0.0071 -0.5651 -0.6865
 9906TIP3    H151209   6.694   0.306   2.789 -1.9436  0.3439 -1.3876
 9906TIP3    H251210   6.592   0.370   2.880  0.0306 -0.7535  1.7551
 9907TIP3   OH251211   1.841   2.813   1.355  0.3847  0.1241 -0.3138
 9907TIP3    H151212   1.842   2.882   1.289 -1.6624 -0.0396 -0.5954
 9907TIP3    H251213   1.903   2.843   1.422 -0.2524  2.1372 -0.5554
 9908TIP3   OH251214   2.793   5.337   4.033 -0.3474  0.4249 -0.0656
 9908TIP3    H151215   2.762   5.269   4.093 -0.3087 -0.4252 -0.9940
 9908TIP3    H251216   2.847   5.291   3.969  0.7175  1.5099  0.0070
 9909TIP3   OH251217   2.428   3.206   3.332 -0.6776 -0.5623  0.0604
 9909TIP3    H151218   2.508   3.217   3.281 -0.9956 -0.3653 -0.4026
 9909TIP3    H251219   2.390   3.294   3.335 -0.7361 -0.6032  0.5120
 9910TIP3   OH251220   4.449   4.858  16.655  0.2292 -0.1615  0.6928
 9910TIP3    H151221   4.417   4.780  16.611  0.6645 -0.5484  1.0391
 9910TIP3    H251222   4.517   4.825  16.714 -0.3070  0.3428  1.6158
 9911TIP3   OH251223   2.413   0.024  12.716  0.0177  0.2197  0.1011
 9911TIP3    H151224   2.344   0.002  12.654  0.2138 -0.5068  0.1364
 9911TIP3    H251225   2.367   0.048  12.796 -0.2048  0.1517 -0.0050
 9912TIP3   OH251226   5.755   1.455   0.465  0.2993 -0.6345 -0.0738
 9912TIP3    H151227   5.794   1.381   0.419 -0.2017  0.3424 -2.1969
 9912TIP3    H251228   5.672   1.471   0.419 -0.8684 -0.3624  1.9927
 9913TIP3   OH251229   6.324   3.188  10.312  0.1288  0.5206 -0.2312
 9913TIP3    H151230   6.264   3.224  10.246 -0.1201  1.2901  0.3865
 9913TIP3    H251231   6.325   3.094  10.296 -0.2829  0.6450 -1.0368
 9914TIP3   OH251232   2.307   4.527  13.374 -0.0817 -0.3950  0.2061
 9914TIP3    H151233   2.237   4.572  13.421 -1.2751 -0.9826 -0.9135
 9914TIP3    H251234   2.264   4.449  13.337  1.4297 -1.3627  0.3973
 9915TIP3   OH251235   3.249   0.303   3.456  0.4436  0.2684 -0.2755
 9915TIP3    H151236   3.258   0.398   3.448 -3.1204  0.9216  1.5488
 9915TIP3    H251237   3.214   0.275   3.371 -1.3098  1.1179  0.1294
 9916TIP3   OH251238   4.462   1.672   3.600 -0.3439  0.0034  0.9643
 9916TIP3    H151239   4.410   1.747   3.629 -0.1845  0.7013 -0.4501
 9916TIP3    H251240   4.404   1.597   3.612 -1.2989  0.6261  0.4138
 9917TIP3   OH251241   3.944   1.009   5.393  0.0253 -0.3861 -0.4232
 9917TIP3    H151242   3.881   0.941   5.371  0.0491 -0.1707 -1.1686
 9917TIP3    H251243   3.897   1.091   5.380  0.6208 -0.2063 -1.5267
 9918TIP3   OH251244   0.277   2.336  11.355 -0.1020 -0.0955 -0.5732
 9918TIP3    H151245   0.203   2.320  11.414  0.4123  1.2165  0.4687
 9918TIP3    H251246   0.327   2.406  11.396  0.6928  0.3678 -2.2182
 9919TIP3   OH251247   6.476   5.107  12.320 -0.1953  0.2014  0.4395
 9919TIP3    H151248   6.515   5.112  12.233 -0.8083 -0.3050  0.1305
 9919TIP3    H251249   6.387   5.141  12.309 -0.5134 -0.5214  0.7079
 9920TIP3   OH251250   0.604   6.415  14.738 -0.0296  0.1585 -0.0227
 9920TIP3    H151251   0.584   6.326  14.706 -0.9774  0.7262 -1.0928
 9920TIP3    H251252   0.545   6.471  14.688  0.6613  1.4143  0.5500
 9921TIP3   OH251253   6.057   4.569  15.834 -0.4893 -0.0035 -0.9527
 9921TIP3    H151254   5.962   4.571  15.841 -0.4048 -0.0895  0.4701
 9921TIP3    H251255   6.074   4.510  15.760 -1.5252 -0.2999 -0.9743
 9922TIP3   OH251256   1.547   5.556   3.452 -0.3765 -0.0836  1.0139
 9922TIP3    H151257   1.607   5.490   3.487 -0.8369 -0.7249  0.6153
 9922TIP3    H251258   1.475   5.558   3.515 -1.3736 -1.4872 -0.0256
 9923TIP3   OH251259   4.199   3.366  11.953  1.0119  0.2264  0.2336
 9923TIP3    H151260   4.148   3.401  12.026 -0.1864 -0.0604 -0.4397
 9923TIP3    H251261   4.291   3.377  11.980  0.5933 -0.1225  1.8805
 9924TIP3   OH251262   6.674   2.844  17.038 -0.6650  0.4326  0.5451
 9924TIP3    H151263   6.691   2.882  17.124  0.4289  0.5243  0.3003
 9924TIP3    H251264   6.712   2.907  16.976  0.1719 -0.4854  0.0846
 9925TIP3   OH251265   2.687   0.143  16.763 -0.5896  0.0538  0.4902
 9925TIP3    H151266   2.681   0.232  16.728 -2.7900  0.2348  1.1701
 9925TIP3    H251267   2.666   0.152  16.856  0.1408 -1.0643  0.7798
 9926TIP3   OH251268   6.337   1.009   5.766  1.2433  0.1307 -0.1077
 9926TIP3    H151269   6.314   1.058   5.687  0.8098 -1.1122 -0.7824
 9926TIP3    H251270   6.377   1.074   5.824  1.6554  1.0549 -1.3795
 9927TIP3   OH251271   1.919   4.429  12.043  0.2224  0.2955  0.0912
 9927TIP3    H151272   1.881   4.500  12.096 -0.4548 -0.6849  0.9562
 9927TIP3    H251273   1.908   4.459  11.953 -0.2110  1.2152  0.4287
 9928TIP3   OH251274   0.270   4.532  12.924  0.3433  0.4536 -0.1242
 9928TIP3    H151275   0.260   4.611  12.977  2.0141 -0.0942  1.1107
 9928TIP3    H251276   0.182   4.495  12.919 -0.7347  2.9970 -1.8139
 9929TIP3   OH251277   3.346   2.021   1.928  0.6839  0.1363  0.5722
 9929TIP3    H151278   3.296   2.100   1.948 -1.6586 -1.0698 -0.1666
 9929TIP3    H251279   3.337   2.011   1.833  0.0538 -1.5468  0.7813
 9930TIP3   OH251280   0.905   1.974  12.568  0.2732  0.1880  0.1454
 9930TIP3    H151281   0.881   2.063  12.592 -0.3002 -0.0571  0.5142
 9930TIP3    H251282   0.821   1.928  12.560  0.5633 -0.3108 -0.0563
 9931TIP3   OH251283   5.812   6.754   0.803 -0.5693 -0.2826  0.0347
 9931TIP3    H151284   5.734   6.778   0.852 -0.5161  1.6046 -0.7264
 9931TIP3    H251285   5.808   6.807   0.723  2.0745  0.8409  0.5376
 9932TIP3   OH251286   0.892   1.520  16.972  0.0045 -0.2957 -0.2140
 9932TIP3    H151287   0.798   1.539  16.972 -0.4466 -2.3594  0.3189
 9932TIP3    H251288   0.924   1.563  16.893 -0.5894  3.7352  1.4574
 9933TIP3   OH251289   6.661   3.385  12.897  0.1359  0.1096  0.3419
 9933TIP3    H151290   6.597   3.386  12.968 -2.0963 -1.3804 -1.5050
 9933TIP3    H251291   6.735   3.336  12.932 -0.4351  0.3271  1.9589
 9934TIP3   OH251292   0.727   1.127   0.019 -0.2032  0.2692 -0.0131
 9934TIP3    H151293   0.691   1.131   0.107  2.7890  2.8214  1.3224
 9934TIP3    H251294   0.708   1.213  -0.019 -0.9144 -0.5752 -1.7004
 9935TIP3   OH251295   0.857   3.741  15.343  0.0594 -0.1425 -0.3979
 9935TIP3    H151296   0.804   3.662  15.331  1.4412 -1.4047  1.2980
 9935TIP3    H251297   0.808   3.810  15.298 -1.5701 -1.8005 -1.2876
 9936TIP3   OH251298   0.336   0.114  10.716 -0.0112  0.0493 -0.5095
 9936TIP3    H151299   0.274   0.153  10.655  0.4580  0.0388 -1.0074
 9936TIP3    H251300   0.386   0.188  10.750  1.6262 -0.1565 -2.2912
 9937TIP3   OH251301   6.570   0.563   1.107  0.3111  0.5669  0.0369
 9937TIP3    H151302   6.534   0.488   1.156  0.6414  0.4300  0.0702
 9937TIP3    H251303   6.508   0.634   1.125 -0.6804 -0.0025 -0.9684
 9938TIP3   OH251304   3.169   4.530  10.628 -0.5012 -0.2302  0.2840
 9938TIP3    H151305   3.077   4.558  10.630 -0.4277 -0.0215  0.8077
 9938TIP3    H251306   3.216   4.597  10.677 -0.1238 -0.5498  0.3621
 9939TIP3   OH251307   2.867   6.844   1.136  0.4264  0.5027 -0.1242
 9939TIP3    H151308   2.806   6.899   1.186 -0.7277 -0.5838 -0.2659
 9939TIP3    H251309   2.938   6.826   1.197 -1.3318 -1.4587  1.5146
 9940TIP3   OH251310   2.049   0.951   0.363 -0.2767 -0.1920 -0.1840
 9940TIP3    H151311   2.052   0.968   0.458  0.4695  0.7323 -0.3616
 9940TIP3    H251312   1.985   1.014   0.330 -0.6172 -0.5890 -0.2861
 9941TIP3   OH251313   4.612   4.931  15.756 -0.1499 -0.2906  0.0217
 9941TIP3    H151314   4.565   4.996  15.704  0.7677  0.1144 -0.3156
 9941TIP3    H251315   4.678   4.981  15.804 -0.6115 -0.7300  1.1681
 9942TIP3   OH251316   2.545   0.947   4.479  0.0314 -0.6434 -0.4593
 9942TIP3    H151317   2.450   0.959   4.478 -0.1434 -1.8905 -1.4436
 9942TIP3    H251318   2.579   1.016   4.422 -0.3026 -0.3051 -0.2446
 9943TIP3   OH251319   1.560   3.189  10.921 -0.4839 -0.0732  0.0197
 9943TIP3    H151320   1.522   3.211  10.836 -1.6056  2.1380  0.9971
 9943TIP3    H251321   1.650   3.162  10.901 -0.9853 -0.4577 -1.9145
 9944TIP3   OH251322   0.810   2.609   3.326  0.2027  0.0303 -0.2942
 9944TIP3    H151323   0.824   2.569   3.412 -0.2173 -1.5516 -0.9294
 9944TIP3    H251324   0.898   2.611   3.287  0.6775  2.2278  0.7318
 9945TIP3   OH251325   2.226   5.943  14.463  0.4439  0.2775  0.3847
 9945TIP3    H151326   2.318   5.936  14.435 -0.7307 -0.1820 -4.0626
 9945TIP3    H251327   2.180   5.878  14.410 -2.3616 -0.6000  3.5839
 9946TIP3   OH251328   0.968   3.597  12.752 -0.4852 -0.2338  0.5634
 9946TIP3    H151329   1.039   3.635  12.699  0.9646 -1.5541  1.4462
 9946TIP3    H251330   0.945   3.516  12.706  0.6004 -1.2543  1.7061
 9947TIP3   OH251331   5.740   5.603   5.991 -0.3737 -0.1569  0.1443
 9947TIP3    H151332   5.824   5.615   5.947  0.1146 -0.8078  0.8700
 9947TIP3    H251333   5.747   5.518   6.033 -2.0397 -0.9640 -1.1257
 9948TIP3   OH251334   1.364   1.493   5.336  0.6264 -0.0181 -0.4842
 9948TIP3    H151335   1.355   1.555   5.408 -0.3565  2.7234 -2.7919
 9948TIP3    H251336   1.346   1.407   5.376 -2.8683  1.6139  1.9791
 9949TIP3   OH251337   5.967   0.012  13.382  0.3449 -0.3576  0.0794
 9949TIP3    H151338   5.887   0.057  13.354 -0.2183 -0.6347  1.1874
 9949TIP3    H251339   6.036   0.049  13.327 -0.4460  0.3353 -0.4674
 9950TIP3   OH251340   6.361   5.523  12.952  0.3435  0.0894  0.0851
 9950TIP3    H151341   6.382   5.590  13.018  0.7302 -0.6016  0.6687
 9950TIP3    H251342   6.379   5.566  12.868  1.2211  0.5081  0.4718
 9951TIP3   OH251343   3.929   5.761  14.740 -0.0472 -0.3582 -0.3096
 9951TIP3    H151344   3.962   5.700  14.806  0.0435  1.1919  1.1373
 9951TIP3    H251345   4.003   5.774  14.681  0.9645  0.6950  1.1383
 9952TIP3   OH251346   0.389   3.079   4.108 -0.4867 -0.1074 -0.2854
 9952TIP3    H151347   0.464   3.129   4.077  0.4025 -0.4831  1.1501
 9952TIP3    H251348   0.424   2.992   4.129 -1.2793 -0.2519  0.5287
 9953TIP3   OH251349   4.385   3.504   5.052  0.1081  0.5030 -0.1025
 9953TIP3    H151350   4.437   3.473   5.126 -0.0560  0.9105  0.1838
 9953TIP3    H251351   4.413   3.449   4.979  0.9310  0.6957  0.0542
 9954TIP3   OH251352   2.314   1.630   2.237 -0.0050 -0.4541  0.1322
 9954TIP3    H151353   2.350   1.543   2.249 -0.4584 -0.4471  1.7628
 9954TIP3    H251354   2.379   1.677   2.185  0.7253 -1.4446  0.1457
 9955TIP3   OH251355   5.622   2.682   2.240  0.2965  0.1595 -0.5170
 9955TIP3    H151356   5.568   2.691   2.318  2.4980 -1.2151  1.2973
 9955TIP3    H251357   5.616   2.589   2.218  1.6742  0.0302 -0.4125
 9956TIP3   OH251358   2.583   2.725   4.914  0.3005  0.3352 -0.0928
 9956TIP3    H151359   2.582   2.814   4.951  1.1481 -0.1515  1.1701
 9956TIP3    H251360   2.492   2.709   4.888 -0.2065  0.9721  1.1714
 9957TIP3   OH251361   3.773   0.199   2.224 -0.2567 -0.0809 -0.1946
 9957TIP3    H151362   3.772   0.103   2.222 -1.1523 -0.1063  0.3782
 9957TIP3    H251363   3.839   0.225   2.160 -0.0604 -1.0801 -0.4080
 9958TIP3   OH251364   3.316   2.635  16.120  0.2636  0.8450  0.6580
 9958TIP3    H151365   3.224   2.648  16.097 -0.6253 -3.2347  1.1238
 9958TIP3    H251366   3.330   2.693  16.194 -1.5910  2.3783 -0.1000
 9959TIP3   OH251367   1.415   1.706  13.373 -0.0748  0.2010  0.2537
 9959TIP3    H151368   1.433   1.792  13.335 -2.0116  0.0880 -1.0686
 9959TIP3    H251369   1.453   1.644  13.310  1.2525  0.0575  1.1662
 9960TIP3   OH251370   4.452   2.993  12.559  0.0816 -0.3664 -0.3795
 9960TIP3    H151371   4.471   3.028  12.646 -2.8052  0.8735 -0.1444
 9960TIP3    H251372   4.506   2.914  12.553  0.6533 -0.2856  2.3789
 9961TIP3   OH251373   1.544   4.745   5.392 -0.1772 -0.6526 -0.5785
 9961TIP3    H151374   1.522   4.700   5.474  1.5476 -1.3407 -0.4596
 9961TIP3    H251375   1.628   4.786   5.409  1.2852 -2.5668 -2.6316
 9962TIP3   OH251376   1.837   1.102  16.665 -0.1982  0.1495  0.6101
 9962TIP3    H151377   1.876   1.156  16.733  1.1499  1.4174 -1.0533
 9962TIP3    H251378   1.756   1.148  16.641  0.6393  1.1930 -0.3757
 9963TIP3   OH251379   4.841   3.110   1.477 -0.1012 -0.1440  0.0079
 9963TIP3    H151380   4.831   3.017   1.498 -0.9269 -0.1015 -0.1372
 9963TIP3    H251381   4.917   3.113   1.419 -0.7281 -0.8858 -0.8857
 9964TIP3   OH251382   6.013   6.272  16.201 -0.3570  0.4346 -0.5246
 9964TIP3    H151383   6.043   6.346  16.254 -1.0781  0.9278 -0.7938
 9964TIP3    H251384   6.077   6.203  16.218  0.9329  1.4432 -1.0672
 9965TIP3   OH251385   5.394   1.128  11.564 -0.2786  0.1742  0.6899
 9965TIP3    H151386   5.317   1.112  11.509  0.4727 -0.2008 -0.2684
 9965TIP3    H251387   5.374   1.210  11.609 -0.2066  1.4422 -1.4611
 9966TIP3   OH251388   6.711   1.342   4.529  0.0911 -0.4949  0.4999
 9966TIP3    H151389   6.667   1.376   4.606 -1.1229 -2.8062  0.8895
 9966TIP3    H251390   6.759   1.266   4.560  1.5681 -0.0660 -0.6072
 9967TIP3   OH251391   0.728   6.690   4.241 -0.3898  0.2343  0.0570
 9967TIP3    H151392   0.735   6.747   4.318 -1.5502 -1.0249  1.1284
 9967TIP3    H251393   0.765   6.743   4.170 -0.2587  1.8395  1.2480
 9968TIP3   OH251394   6.639   0.442  15.668 -0.5233  0.0295  0.2365
 9968TIP3    H151395   6.631   0.519  15.724 -0.0001 -0.3037  0.7849
 9968TIP3    H251396   6.659   0.477  15.582  1.8768  0.4871  0.8861
 9969TIP3   OH251397   2.508   1.573   0.413  0.1854 -0.2285  0.0955
 9969TIP3    H151398   2.499   1.664   0.442 -0.0096 -0.6988  1.5900
 9969TIP3    H251399   2.424   1.533   0.433 -0.4343 -0.3100 -2.3550
 9970TIP3   OH251400   2.337   3.029  12.617 -0.2002  0.1843  0.0451
 9970TIP3    H151401   2.371   3.075  12.693  1.5633  0.1867 -0.6836
 9970TIP3    H251402   2.315   3.098  12.554  2.0772  0.1335 -0.8989
 9971TIP3   OH251403   4.164   5.275  10.665  0.3775  0.0059 -0.4606
 9971TIP3    H151404   4.085   5.271  10.718 -0.1694  0.5042 -1.2181
 9971TIP3    H251405   4.176   5.186  10.632  0.7952 -0.3399  0.5737
 9972TIP3   OH251406   2.177   0.366  13.666 -0.2358 -0.2468  0.1261
 9972TIP3    H151407   2.249   0.317  13.625 -0.9996 -0.2476 -1.2615
 9972TIP3    H251408   2.204   0.457  13.659  0.2037 -0.3135  0.7853
 9973TIP3   OH251409   1.418   1.944   0.572  0.3848  0.2543 -0.0241
 9973TIP3    H151410   1.504   1.979   0.550  0.8814  0.6454  2.2275
 9973TIP3    H251411   1.416   1.857   0.533  1.2094  0.7715 -1.2852
 9974TIP3   OH251412   5.755   4.317   3.292  0.3069  0.3875  0.2645
 9974TIP3    H151413   5.747   4.276   3.378 -0.1504  0.9038  0.4706
 9974TIP3    H251414   5.681   4.376   3.287  0.2070  0.1937 -0.5840
 9975TIP3   OH251415   1.177   4.988  13.304 -0.1696 -0.5090  0.0477
 9975TIP3    H151416   1.208   4.912  13.355 -2.4561 -0.0729  2.3254
 9975TIP3    H251417   1.088   4.963  13.277 -0.1311  0.5340 -1.1182
 9976TIP3   OH251418   1.732   2.009   2.490  0.0795 -0.2521 -0.1971
 9976TIP3    H151419   1.699   1.975   2.574  1.2429 -1.2062 -0.0966
 9976TIP3    H251420   1.713   1.940   2.427 -1.0106  0.5657 -0.8004
 9977TIP3   OH251421   3.714   0.816  16.227  0.4397  0.3576 -0.9513
 9977TIP3    H151422   3.711   0.898  16.275 -0.7896  1.1931 -2.3735
 9977TIP3    H251423   3.797   0.818  16.181  1.0554  0.1259  0.1233
 9978TIP3   OH251424   6.224   5.304  10.917  0.5273 -0.3461  0.1783
 9978TIP3    H151425   6.141   5.335  10.953  0.4320 -1.0444  0.5705
 9978TIP3    H251426   6.274   5.384  10.900  0.1185  0.0406  0.7595
 9979TIP3   OH251427   5.651   3.544  11.398 -0.1719 -0.2735 -0.8596
 9979TIP3    H151428   5.583   3.528  11.464  1.0845 -0.0602  0.5528
 9979TIP3    H251429   5.674   3.458  11.365  0.8372 -0.6836  0.7670
 9980TIP3   OH251430   0.334   3.368   3.203  0.1403  0.0660 -0.3948
 9980TIP3    H151431   0.415   3.318   3.203 -0.0435 -0.3233  1.5164
 9980TIP3    H251432   0.362   3.458   3.223  0.0302 -0.3173  1.6683
 9981TIP3   OH251433   2.388   5.294  10.811 -0.2823 -0.1381  0.0631
 9981TIP3    H151434   2.465   5.237  10.816  1.7648  2.1317 -2.2789
 9981TIP3    H251435   2.372   5.304  10.717 -0.0188  3.5962  0.2665
 9982TIP3   OH251436   4.237   1.244  11.172 -0.5832  0.4321  0.4571
 9982TIP3    H151437   4.317   1.274  11.216 -0.4883 -1.7368  1.8636
 9982TIP3    H251438   4.268   1.206  11.090 -0.1589 -0.3486  0.9705
 9983TIP3   OH251439   0.405   6.835  11.429  0.0458  0.7738  0.1723
 9983TIP3    H151440   0.331   6.893  11.408 -1.9608 -1.3320  0.9404
 9983TIP3    H251441   0.478   6.870  11.379 -1.4470  3.0396 -0.5640
 9984TIP3   OH251442   2.374   3.345   5.408 -0.1299 -0.3261 -0.4101
 9984TIP3    H151443   2.330   3.429   5.391 -1.0159 -0.8365 -0.7030
 9984TIP3    H251444   2.467   3.367   5.411 -0.2886  0.5435 -1.2712
 9985TIP3   OH251445   4.509   4.626  13.238  0.4277  0.5733  0.2203
 9985TIP3    H151446   4.594   4.648  13.277  0.4403  2.6805 -0.8377
 9985TIP3    H251447   4.532   4.576  13.159  0.5248 -1.0453  1.2255
 9986TIP3   OH251448   2.933   3.552  10.787  0.9250  0.2349 -0.5996
 9986TIP3    H151449   2.846   3.590  10.798  0.2174 -1.2548 -0.6713
 9986TIP3    H251450   2.972   3.600  10.714 -0.4820 -0.1011 -1.6204
 9987TIP3   OH251451   4.275   6.594  15.694  0.1322 -0.2754 -0.0738
 9987TIP3    H151452   4.332   6.666  15.723  0.4905 -0.5163 -0.1625
 9987TIP3    H251453   4.249   6.617  15.605  0.2279 -0.2421 -0.0932
 9988TIP3   OH251454   4.603   0.388  12.613  0.5022 -0.6883 -0.2886
 9988TIP3    H151455   4.541   0.315  12.604  0.3876 -0.5773 -0.3987
 9988TIP3    H251456   4.638   0.378  12.702  0.4994 -0.8858 -0.3074
 9989TIP3   OH251457   0.646   5.645  12.808 -0.1976 -0.0797 -0.5637
 9989TIP3    H151458   0.690   5.721  12.770  0.5062 -0.3687 -0.3490
 9989TIP3    H251459   0.695   5.627  12.888 -0.6755 -0.4494 -0.3503
 9990TIP3   OH251460   2.887   2.693   2.979  0.5687 -0.1102 -0.3051
 9990TIP3    H151461   2.856   2.644   3.055 -1.0449  0.2308 -0.7195
 9990TIP3    H251462   2.950   2.635   2.937  0.5015 -0.8258  0.5619
 9991TIP3   OH251463   5.605   3.087   1.208  0.2778  0.2504  0.6399
 9991TIP3    H151464   5.610   3.084   1.303  0.5096  3.1216  0.8059
 9991TIP3    H251465   5.687   3.047   1.178  0.9235  0.7491  1.7070
 9992TIP3   OH251466   6.125   5.336   4.512  0.7358 -0.2045 -0.3958
 9992TIP3    H151467   6.204   5.285   4.491  0.5356 -0.2359 -1.1236
 9992TIP3    H251468   6.139   5.368   4.601  1.7146  0.0581 -0.6343
 9993TIP3   OH251469   0.336   2.172   3.676 -0.1112  0.1901 -0.2826
 9993TIP3    H151470   0.251   2.148   3.713 -0.6023 -0.9079 -1.9805
 9993TIP3    H251471   0.350   2.262   3.704 -2.9760  1.2607 -1.7952
 9994TIP3   OH251472   4.552   3.341  15.431 -0.1101  0.0535 -0.0547
 9994TIP3    H151473   4.620   3.376  15.489 -1.7755  1.3878  1.1666
 9994TIP3    H251474   4.548   3.247  15.452  0.7114  0.1350  0.4954
 9995TIP3   OH251475   6.197   3.223  17.084 -0.5650 -0.2700 -0.7740
 9995TIP3    H151476   6.255   3.269  17.024  0.2908 -0.6969 -0.2920
 9995TIP3    H251477   6.193   3.134  17.050  1.1610 -0.9448  0.5927
 9996TIP3   OH251478   0.727   0.454   2.173  0.0737 -0.1124  0.4569
 9996TIP3    H151479   0.751   0.419   2.259  0.9483  2.2570  1.2480
 9996TIP3    H251480   0.809   0.481   2.134 -0.4743  0.1432 -0.5538
 9997TIP3   OH251481   3.890   1.257   2.603 -0.2112 -0.5431  0.0540
 9997TIP3    H151482   3.870   1.346   2.629  1.0113 -0.0181 -0.6913
 9997TIP3    H251483   3.905   1.210   2.685  2.2271  0.7381  0.4452
 9998TIP3   OH251484   1.990   0.202  15.812  0.2747  0.3515 -0.7864
 9998TIP3    H151485   1.913   0.259  15.811  0.7915  1.0922  0.3303
 9998TIP3    H251486   2.063   0.261  15.832  0.9746 -0.5274 -0.7157
 9999TIP3   OH251487   6.241   3.581  15.119 -0.1685  0.5309 -0.1628
 9999TIP3    H151488   6.206   3.536  15.042 -1.8753  1.6309 -0.0813
 9999TIP3    H251489   6.195   3.541  15.193  0.0537  0.7965  0.1249
10000TIP3   OH251490   5.548   2.504  15.895 -0.3228 -0.4992 -0.2446
10000TIP3    H151491   5.561   2.413  15.921 -2.7116 -0.9155 -0.2449
10000TIP3    H251492   5.461   2.526  15.928 -0.7808  1.0321 -2.2339
10001TIP3   OH251493   2.501   4.402  13.736  0.2043  1.0820 -0.6297
10001TIP3    H151494   2.507   4.423  13.643  0.6837  0.4832 -0.7402
10001TIP3    H251495   2.585   4.431  13.773  0.4224  0.4053 -0.5792
10002TIP3   OH251496   4.154   3.686  16.783 -0.2265  0.0739 -0.3564
10002TIP3    H151497   4.095   3.626  16.829 -0.6492  0.4904 -0.3557
10002TIP3    H251498   4.100   3.725  16.715 -0.0982  0.8838  0.0054
10003TIP3   OH251499   1.713   1.183  15.786 -0.2025  0.0741 -0.3724
10003TIP3    H151500   1.647   1.241  15.748 -0.4091  0.3270  0.3728
10003TIP3    H251501   1.796   1.215  15.752 -0.4530 -0.2336 -1.3031
10004TIP3   OH251502   5.569   6.217  16.400  0.1281 -0.4279 -0.4347
10004TIP3    H151503   5.601   6.191  16.314  1.7909  2.5847 -0.8934
10004TIP3    H251504   5.481   6.252  16.383 -0.1087 -1.1122 -0.6435
10005TIP3   OH251505   3.010   2.608   3.540 -0.5181  0.4030 -0.0239
10005TIP3    H151506   3.098   2.602   3.578 -1.4298  0.9034  2.3489
10005TIP3    H251507   2.980   2.517   3.534 -0.7295  0.3401  1.5331
10006TIP3   OH251508   0.871   0.884  11.757 -0.2578 -0.2657 -0.3186
10006TIP3    H151509   0.948   0.940  11.770 -0.4518  0.0350 -0.4490
10006TIP3    H251510   0.820   0.930  11.690  0.0874 -1.1161 -1.1822
10007TIP3   OH251511   1.840   6.011  15.829  0.2678  0.5049  0.0109
10007TIP3    H151512   1.910   5.958  15.792  0.5456  1.1175 -0.3662
10007TIP3    H251513   1.884   6.090  15.860 -0.4845  1.7738 -1.9713
10008TIP3   OH251514   5.361   0.183   1.186  0.0147 -0.0755 -0.4151
10008TIP3    H151515   5.297   0.216   1.123  0.9701 -0.4602 -1.6059
10008TIP3    H251516   5.427   0.138   1.133  0.5296 -0.9347  0.9014
10009TIP3   OH251517   1.538   5.609  12.383 -0.1465 -0.0581  0.2355
10009TIP3    H151518   1.579   5.612  12.296 -1.5997 -1.4154 -0.5643
10009TIP3    H251519   1.548   5.518  12.411 -0.5772  0.1315  1.0351
10010TIP3   OH251520   2.393   4.345   2.850 -0.1787 -0.0422  0.0629
10010TIP3    H151521   2.365   4.420   2.798 -0.0621 -0.1744 -0.1952
10010TIP3    H251522   2.469   4.375   2.899 -1.5690  0.7435  1.8290
10011TIP3   OH251523   0.133   6.221  11.541  0.1203  0.0949  0.1966
10011TIP3    H151524   0.126   6.308  11.580 -3.8682 -0.4931  1.3448
10011TIP3    H251525   0.069   6.222  11.469 -1.7152 -2.4180  1.6428
10012TIP3   OH251526   0.420   1.175  16.030  0.3762 -0.6610  0.5069
10012TIP3    H151527   0.506   1.133  16.019  1.9994  2.5560 -0.4994
10012TIP3    H251528   0.390   1.192  15.940  0.4403  1.3179  0.8043
10013TIP3   OH251529   2.885   4.722   3.254 -0.3342  0.1129  0.2473
10013TIP3    H151530   2.881   4.815   3.279  1.5927  0.3494 -0.1625
10013TIP3    H251531   2.941   4.721   3.176  0.0845 -1.4625  0.5496
10014TIP3   OH251532   6.394   0.804   1.118  0.6017 -0.1219 -0.1530
10014TIP3    H151533   6.339   0.752   1.059  1.8793 -2.9407  0.9621
10014TIP3    H251534   6.336   0.824   1.192 -0.1730  0.9455 -1.0145
10015TIP3   OH251535   6.624   6.326  15.857 -0.0962 -0.3079 -0.1017
10015TIP3    H151536   6.540   6.353  15.895  0.0883  1.2800 -0.7218
10015TIP3    H251537   6.679   6.304  15.932 -0.4230  0.6719  0.4464
10016TIP3   OH251538   3.928   6.620   3.612  0.2598  0.7819 -0.2921
10016TIP3    H151539   3.975   6.657   3.687  0.2641  0.4487 -0.1294
10016TIP3    H251540   3.855   6.573   3.651  0.1826  0.7259 -0.5072
10017TIP3   OH251541   2.887   6.260   2.390  0.4980  0.1241 -0.4770
10017TIP3    H151542   2.934   6.205   2.453 -1.4957 -1.5235 -0.2991
10017TIP3    H251543   2.889   6.210   2.308  0.6736  0.9266 -0.9730
10018TIP3   OH251544   2.311   2.757   4.192 -0.0167  0.1515  0.3961
10018TIP3    H151545   2.346   2.694   4.129 -1.5455  0.4889 -0.8558
10018TIP3    H251546   2.373   2.831   4.188  0.9377 -0.5995  0.7439
10019TIP3   OH251547   4.996   2.525  16.932  0.8510 -0.1465  0.3346
10019TIP3    H151548   4.942   2.462  16.981  0.8413 -0.6056 -0.2559
10019TIP3    H251549   5.026   2.476  16.855 -0.5206  1.0282 -1.0103
10020TIP3   OH251550   5.812   2.244   4.063 -0.3509  0.2950 -0.4072
10020TIP3    H151551   5.835   2.300   3.989  0.1436 -0.0123 -0.4889
10020TIP3    H251552   5.886   2.184   4.072 -1.0303 -0.5861 -0.5459
10021TIP3   OH251553   5.437   5.693   2.839  0.1288  0.0845 -0.1339
10021TIP3    H151554   5.491   5.632   2.890 -1.0604 -1.8247 -1.0419
10021TIP3    H251555   5.497   5.763   2.815  1.5366 -0.6341  1.0810
10022TIP3   OH251556   4.591   3.838   4.331 -0.3286 -0.4020  0.3601
10022TIP3    H151557   4.657   3.860   4.265  0.4635 -1.6560  0.7105
10022TIP3    H251558   4.566   3.748   4.310  1.7005 -1.7621  3.1484
10023TIP3   OH251559   0.163   4.109   1.141 -0.0421 -0.0016  0.1371
10023TIP3    H151560   0.136   4.022   1.112 -0.9291  0.2487  0.2020
10023TIP3    H251561   0.215   4.093   1.220  1.3499 -0.5934 -0.8671
10024TIP3   OH251562   3.143   6.454   1.453  0.1639 -0.0599 -0.6606
10024TIP3    H151563   3.197   6.396   1.399  0.4851 -0.3982  0.0031
10024TIP3    H251564   3.055   6.414   1.450  1.0597 -2.7829  2.6686
10025TIP3   OH251565   6.087   5.328   0.477  0.1537 -0.0340 -0.3405
10025TIP3    H151566   6.004   5.331   0.523  0.5406 -0.8930  0.4384
10025TIP3    H251567   6.146   5.382   0.529  0.1237  0.5238 -0.8591
10026TIP3   OH251568   4.130   2.233  14.753 -0.2905  0.1852  0.5306
10026TIP3    H151569   4.128   2.329  14.757 -0.2904  0.1360  2.1805
10026TIP3    H251570   4.223   2.211  14.760 -0.4342  0.0263  2.6827
10027TIP3   OH251571   4.876   1.198   2.273 -0.1640 -0.8054 -0.3857
10027TIP3    H151572   4.841   1.205   2.362 -1.9545 -1.9253 -0.9502
10027TIP3    H251573   4.965   1.165   2.285  0.9643  2.3720  1.1188
10028TIP3   OH251574   3.359   3.347   5.959 -0.1981 -0.0978  0.2844
10028TIP3    H151575   3.440   3.395   5.945 -0.3349  0.2106  0.5509
10028TIP3    H251576   3.378   3.289   6.033  0.5520 -1.7886 -1.1578
10029TIP3   OH251577   1.212   6.083  13.773  0.2043  0.0553 -0.0581
10029TIP3    H151578   1.171   6.140  13.707  1.6118  1.1660 -0.0220
10029TIP3    H251579   1.242   6.007  13.724 -0.6098 -0.1024 -0.3253
10030TIP3   OH251580   4.041   5.992  16.789  0.4606  0.4077  0.0397
10030TIP3    H151581   4.117   6.034  16.831 -0.4668  1.5975  0.5724
10030TIP3    H251582   3.966   6.021  16.841 -0.2045 -2.3635  0.7779
10031TIP3   OH251583   1.756   1.122  14.304 -0.5780  0.0171 -0.2854
10031TIP3    H151584   1.670   1.098  14.341 -0.7591 -0.7752 -1.1806
10031TIP3    H251585   1.808   1.042  14.313  0.3418  0.7099  0.9464
10032TIP3   OH251586   4.493   5.844  12.768 -0.6178  0.3765 -0.0638
10032TIP3    H151587   4.576   5.869  12.808  0.2663  0.5962 -1.9137
10032TIP3    H251588   4.438   5.922  12.777 -0.4961  0.3643  0.8242
10033TIP3   OH251589   2.295   0.795  12.897 -0.6331 -0.4022 -0.2350
10033TIP3    H151590   2.213   0.759  12.865 -0.0488 -1.7092 -0.3214
10033TIP3    H251591   2.318   0.740  12.972 -0.9493  1.3360  1.2355
10034TIP3   OH251592   0.805   3.140  13.987  0.0183 -0.0922  0.2500
10034TIP3    H151593   0.856   3.063  14.013 -2.3020 -1.0097  2.5743
10034TIP3    H251594   0.844   3.212  14.036  0.2327 -0.4129  0.5605
10035TIP3   OH251595   3.460   6.263  14.221  0.7485  0.5734  0.1945
10035TIP3    H151596   3.373   6.228  14.237  0.6839  0.8634  0.4751
10035TIP3    H251597   3.519   6.201  14.264  0.7415 -0.0711 -0.6839
10036TIP3   OH251598   3.440   5.942  11.955  0.0790 -0.7194 -0.1784
10036TIP3    H151599   3.448   5.903  12.042 -0.3316  0.7167  0.5462
10036TIP3    H251600   3.517   6.000  11.948 -0.7780  0.4798 -0.0286
10037TIP3   OH251601   2.700   2.791  14.214  0.1284 -0.7383 -0.1362
10037TIP3    H151602   2.699   2.698  14.192 -1.1284 -0.3925 -1.7839
10037TIP3    H251603   2.608   2.818  14.209  0.3524  0.3848  1.3339
10038TIP3   OH251604   3.204   3.565  17.061 -0.1602 -0.3932  0.2368
10038TIP3    H151605   3.153   3.548  16.982 -0.0306 -1.3140  0.3390
10038TIP3    H251606   3.138   3.577  17.129 -0.2700 -1.3062  0.3136
10039TIP3   OH251607   1.249   3.901   2.664  0.7871  0.0621 -0.4522
10039TIP3    H151608   1.333   3.871   2.628  0.8391  1.0142 -1.1645
10039TIP3    H251609   1.261   3.995   2.678  0.1221  0.0518  0.2827
10040TIP3   OH251610   2.217   4.723  14.102  0.1054 -0.3658  0.3670
10040TIP3    H151611   2.213   4.628  14.090  0.9843 -0.4844  0.9778
10040TIP3    H251612   2.156   4.740  14.174 -0.7302 -0.3440 -0.3209
10041TIP3   OH251613   1.942   2.772   3.622  0.3277 -0.1600 -0.2453
10041TIP3    H151614   1.975   2.857   3.592 -0.2244  0.5565  1.1138
10041TIP3    H251615   1.882   2.744   3.552 -1.8511  2.0276  0.5820
10042TIP3   OH251616   1.749   1.219  14.715 -0.5537  0.1543 -0.0238
10042TIP3    H151617   1.774   1.258  14.799  0.0624 -1.1869  0.4406
10042TIP3    H251618   1.827   1.225  14.660 -0.7164  0.3293 -0.2391
10043TIP3   OH251619   3.694   5.383  14.437 -0.1986  0.3390  0.3191
10043TIP3    H151620   3.624   5.447  14.423 -0.9503 -0.3863  0.6687
10043TIP3    H251621   3.759   5.404  14.370 -0.6501  1.1582  0.1169
10044TIP3   OH251622   1.625   5.681   1.379 -0.1614  0.3965 -0.0680
10044TIP3    H151623   1.703   5.625   1.381 -0.2624  0.2720  0.7623
10044TIP3    H251624   1.557   5.628   1.419 -0.2533  1.1146  0.7655
10045TIP3   OH251625   6.244   6.189  14.609 -0.4582  0.1382 -0.2779
10045TIP3    H151626   6.197   6.106  14.599 -2.3702  1.2589 -1.2033
10045TIP3    H251627   6.188   6.241  14.667  2.1976 -0.1967  2.8943
10046TIP3   OH251628   0.235   3.780   3.999  0.4147 -0.0384  0.2544
10046TIP3    H151629   0.270   3.794   4.087 -1.4880 -1.8311  1.4118
10046TIP3    H251630   0.211   3.687   3.998 -0.2482  0.1029 -1.9281
10047TIP3   OH251631   3.191   4.581  11.206  0.1709  0.3201  0.0220
10047TIP3    H151632   3.286   4.586  11.195  0.2192  0.7526  0.5659
10047TIP3    H251633   3.157   4.559  11.119  0.8372 -0.8074  0.0302
10048TIP3   OH251634   2.203   0.132   3.000  0.4371  0.4395  0.0846
10048TIP3    H151635   2.267   0.175   2.943  0.2695 -0.0690 -0.5041
10048TIP3    H251636   2.205   0.041   2.973 -1.3142  0.5996 -0.6978
10049TIP3   OH251637   0.399   4.598   3.967 -0.2508  0.8168 -0.5736
10049TIP3    H151638   0.358   4.540   3.903  0.0798  0.5681 -0.5633
10049TIP3    H251639   0.330   4.615   4.031  0.7799 -3.4506  2.1257
10050TIP3   OH251640   2.649   0.363  16.132 -0.7210  0.2256  0.3119
10050TIP3    H151641   2.707   0.433  16.103 -1.2755  0.8803  0.7452
10050TIP3    H251642   2.565   0.383  16.092  0.0452 -2.6213 -3.2286
10051TIP3   OH251643   0.584   5.514  11.846  0.1042 -0.4028 -0.1301
10051TIP3    H151644   0.648   5.567  11.894  0.2290  0.1369 -0.8775
10051TIP3    H251645   0.623   5.502  11.759  0.0850 -1.7418  0.0259
10052TIP3   OH251646   1.872   1.122   0.272  0.3431 -0.0169  0.2533
10052TIP3    H151647   1.816   1.154   0.201 -0.2159 -0.0100  0.6926
10052TIP3    H251648   1.881   1.197   0.331  0.4572 -0.1482  0.4043
10053TIP3   OH251649   2.683   5.519  11.636 -0.0279  0.7449 -0.0239
10053TIP3    H151650   2.767   5.551  11.670  0.5074 -1.3390  0.7187
10053TIP3    H251651   2.703   5.491  11.546  0.5156 -1.2253  0.6598
10054TIP3   OH251652   4.997   4.330   0.507 -0.4551  0.4297  0.2211
10054TIP3    H151653   5.051   4.399   0.546  0.6553  1.1584 -2.4415
10054TIP3    H251654   4.908   4.349   0.537  0.0211  2.2629  0.5542
10055TIP3   OH251655   6.614   6.082   4.962 -0.0016  0.2476  0.9933
10055TIP3    H151656   6.541   6.031   4.995  0.3807 -1.2544 -0.3652
10055TIP3    H251657   6.596   6.093   4.869  2.1721 -1.4616  0.2802
10056TIP3   OH251658   0.404   5.242  11.624  0.8314  0.0103 -0.5154
10056TIP3    H151659   0.401   5.300  11.700  0.8146 -1.4304  0.6211
10056TIP3    H251660   0.450   5.293  11.557 -0.3571  1.8279 -0.0248
10057TIP3   OH251661   6.479   3.944   3.894  0.1027 -0.1109 -0.2252
10057TIP3    H151662   6.461   3.972   3.804  1.0726 -1.4780 -0.8696
10057TIP3    H251663   6.555   3.887   3.888  0.3271 -0.0746  1.5080
10058TIP3   OH251664   6.411   4.206   1.445  0.6124 -0.1867 -0.1097
10058TIP3    H151665   6.384   4.151   1.373  1.0749 -0.9506  0.2873
10058TIP3    H251666   6.411   4.295   1.409 -0.2487 -0.4286 -0.7170
10059TIP3   OH251667   3.538   0.451   4.212  0.1171  0.0533  0.2069
10059TIP3    H151668   3.573   0.454   4.123 -0.8572 -0.3356 -0.1995
10059TIP3    H251669   3.602   0.399   4.261  0.4278 -0.1201 -0.3751
10060TIP3   OH251670   6.642   3.855   2.789  0.6917  0.1346  0.0951
10060TIP3    H151671   6.551   3.838   2.764  0.5481 -0.0047  0.7002
10060TIP3    H251672   6.684   3.883   2.707 -0.0071  0.6779 -0.0963
10061TIP3   OH251673   4.661   3.195   3.053 -0.4182 -0.7654 -0.2407
10061TIP3    H151674   4.741   3.239   3.024  0.7174  0.1103  3.6053
10061TIP3    H251675   4.688   3.141   3.128 -3.5229  0.5649  2.0900
10062TIP3   OH251676   0.048   3.065  16.166 -0.0867  0.4832 -0.8051
10062TIP3    H151677   0.071   3.034  16.078 -0.7500  2.2406 -1.6438
10062TIP3    H251678  -0.037   3.107  16.155 -0.0511  0.9892  0.6334
10063TIP3   OH251679   4.522   4.737   2.371  0.1406 -0.4954 -0.1489
10063TIP3    H151680   4.483   4.819   2.403 -0.2879  0.2819 -2.4574
10063TIP3    H251681   4.614   4.760   2.355  0.0253 -0.4327 -0.7725
10064TIP3   OH251682   1.882   0.226  12.509  0.2567 -0.1201  0.6859
10064TIP3    H151683   1.863   0.152  12.567  1.5656  0.9764  2.6075
10064TIP3    H251684   1.801   0.241  12.461 -0.8543 -1.1340  2.1851
10065TIP3   OH251685   4.346   2.695   5.399  0.5542  0.2925 -0.0308
10065TIP3    H151686   4.261   2.689   5.443 -0.2936 -1.8270 -1.7994
10065TIP3    H251687   4.335   2.763   5.333  1.3200  2.2929  1.7587
10066TIP3   OH251688   0.244   3.639   2.620 -0.4095 -0.2448  0.6477
10066TIP3    H151689   0.216   3.717   2.573  1.0719  0.7538  1.3329
10066TIP3    H251690   0.306   3.672   2.686 -0.5475 -1.8747  1.6488
10067TIP3   OH251691   1.957   6.770  13.560 -0.4255 -0.2960 -0.4217
10067TIP3    H151692   1.895   6.841  13.575 -0.3851 -0.4328  0.4297
10067TIP3    H251693   1.914   6.693  13.598 -0.8778 -0.9272 -2.1469
10068TIP3   OH251694   3.610   1.326   2.361  0.1937  0.7686 -0.0292
10068TIP3    H151695   3.622   1.415   2.327  1.7184  0.5740 -0.0480
10068TIP3    H251696   3.590   1.273   2.284  3.3332  0.3845 -0.7120
10069TIP3   OH251697   4.658   4.231  14.736 -0.1543 -0.0564 -0.2685
10069TIP3    H151698   4.739   4.181  14.725 -0.6947 -1.3713  1.3720
10069TIP3    H251699   4.652   4.284  14.656  2.5344  0.4339 -0.2661
10070TIP3   OH251700   3.356   3.570  11.523  0.0960 -0.0830 -0.4858
10070TIP3    H151701   3.273   3.616  11.531  0.2394  0.0092  0.7882
10070TIP3    H251702   3.417   3.636  11.490 -0.2314 -0.0174 -0.9556
10071TIP3   OH251703   4.049   4.539   1.630  0.2045  0.0672 -0.0314
10071TIP3    H151704   4.122   4.572   1.683 -0.3744  2.0043 -0.3657
10071TIP3    H251705   4.035   4.449   1.662  1.1836  0.4679  1.6645
10072TIP3   OH251706   4.601   2.129   4.826 -0.1077 -0.2465 -0.4504
10072TIP3    H151707   4.602   2.211   4.875 -0.6822 -1.0574  0.9955
10072TIP3    H251708   4.562   2.151   4.742 -2.2619  0.6031  0.6760
10073TIP3   OH251709   5.390   1.029   4.063 -0.2286  0.2282 -0.1499
10073TIP3    H151710   5.322   0.966   4.085 -0.0244  0.0193 -0.1109
10073TIP3    H251711   5.463   0.975   4.033  0.3749  0.3705  1.0225
10074TIP3   OH251712   1.727   5.483   0.532  0.7521  0.4058 -0.6157
10074TIP3    H151713   1.720   5.578   0.539 -3.2047  0.2759 -0.5481
10074TIP3    H251714   1.685   5.462   0.449 -2.7838 -1.4209  1.4067
10075TIP3   OH251715   2.065   4.611   5.784 -0.3612  0.5504  0.5045
10075TIP3    H151716   1.990   4.590   5.729 -0.6525 -0.2831  1.1985
10075TIP3    H251717   2.067   4.707   5.786 -0.4060  0.6001 -0.8374
10076TIP3   OH251718   3.632   3.948   2.134 -0.3612 -0.4476 -0.1134
10076TIP3    H151719   3.672   3.935   2.048 -0.8732 -1.3319 -0.2270
10076TIP3    H251720   3.577   3.871   2.147 -1.8143  0.5903  0.1661
10077TIP3   OH251721   3.987   6.775   3.399 -0.2157  0.3890 -0.4013
10077TIP3    H151722   3.902   6.773   3.353 -0.6795  2.0249  0.2903
10077TIP3    H251723   3.971   6.728   3.480 -0.5482  0.9084 -0.1595
10078TIP3   OH251724   5.255   0.365   3.736  0.2427  0.0879  0.1906
10078TIP3    H151725   5.230   0.376   3.644 -0.4334  1.1910  0.4826
10078TIP3    H251726   5.343   0.403   3.741 -0.6714  2.3808  0.4467
10079TIP3   OH251727   2.268   6.682   6.286 -0.0441  0.4279  0.0294
10079TIP3    H151728   2.324   6.673   6.363  0.0192 -1.4570 -0.1916
10079TIP3    H251729   2.271   6.776   6.265  0.7131  0.8181  1.7219
10080TIP3   OH251730   3.275   0.405  16.584 -0.0134  0.1470  0.6423
10080TIP3    H151731   3.313   0.489  16.608 -1.0380  1.2117 -1.2246
10080TIP3    H251732   3.195   0.398  16.635  0.4676 -0.0884  1.3818
10081TIP3   OH251733   2.428   4.240  13.247  0.0455 -0.2580  0.7099
10081TIP3    H151734   2.427   4.149  13.218 -1.9977  0.1380 -0.7553
10081TIP3    H251735   2.400   4.237  13.338 -0.9186 -1.0627  0.4009
10082TIP3   OH251736   0.773   5.224  16.635 -0.3426  0.0034 -0.1426
10082TIP3    H151737   0.756   5.131  16.650  1.1444 -0.5609 -1.6539
10082TIP3    H251738   0.831   5.249  16.708 -0.1216 -0.4582 -0.1544
10083TIP3   OH251739   4.744   1.779   4.387  0.0504  0.2583  0.0051
10083TIP3    H151740   4.782   1.691   4.387  0.1636  0.3087  0.1271
10083TIP3    H251741   4.818   1.837   4.401 -0.1121  0.3385  0.5571
10084TIP3   OH251742   2.412   2.376  16.799  0.4238 -0.3082  0.2050
10084TIP3    H151743   2.437   2.329  16.879 -0.4801  0.1941  0.7937
10084TIP3    H251744   2.328   2.416  16.819  0.2797  0.0121 -0.9333
10085TIP3   OH251745   6.549   3.057  13.720  0.1730 -0.1682 -0.8620
10085TIP3    H151746   6.637   3.038  13.754  0.0833 -1.4764 -1.2723
10085TIP3    H251747   6.537   3.151  13.734  1.3220 -0.1150 -0.0787
10086TIP3   OH251748   3.716   6.496   3.709  0.2839  0.7616  0.1155
10086TIP3    H151749   3.624   6.506   3.732 -0.4901 -1.5622 -1.5767
10086TIP3    H251750   3.752   6.439   3.778  0.5028  1.7262  0.8147
10087TIP3   OH251751   1.773   3.674  15.175  0.2334 -0.1417  0.1315
10087TIP3    H151752   1.765   3.738  15.105  2.4879  1.8939  1.5645
10087TIP3    H251753   1.683   3.662  15.207 -0.1341  4.5470  1.5825
10088TIP3   OH251754   4.246   4.784  12.867 -0.5410  0.2269 -0.4295
10088TIP3    H151755   4.231   4.879  12.867 -1.2856  0.1142 -0.1263
10088TIP3    H251756   4.170   4.748  12.913  0.1643 -0.4539  0.2173
10089TIP3   OH251757   1.865   1.842   4.732  0.3085  0.0117  0.3756
10089TIP3    H151758   1.900   1.758   4.762  1.6726  0.3594 -0.1401
10089TIP3    H251759   1.778   1.847   4.770 -0.6239 -2.5314 -1.1847
10090TIP3   OH251760   0.944   6.038  15.668  0.4441 -0.0338  0.6426
10090TIP3    H151761   0.983   5.955  15.641 -1.9644 -1.4924  1.3623
10090TIP3    H251762   0.930   6.029  15.762 -0.2300  1.0035  0.6618
10091TIP3   OH251763   0.820   0.410  16.417 -0.1156  0.3147 -0.2368
10091TIP3    H151764   0.905   0.382  16.383  0.2069  0.1794  0.6492
10091TIP3    H251765   0.835   0.425  16.510 -1.8736 -3.2034  0.7923
10092TIP3   OH251766   0.828   6.570  15.956 -0.0982  0.0763 -0.0478
10092TIP3    H151767   0.823   6.530  15.870  0.1054  2.2137 -1.1168
10092TIP3    H251768   0.913   6.542  15.991  0.9300  1.1101 -1.5988
10093TIP3   OH251769   3.052   5.460   1.836 -0.4024 -0.1840 -0.1207
10093TIP3    H151770   2.997   5.404   1.780  1.1401 -0.5075 -1.3762
10093TIP3    H251771   3.039   5.548   1.803  0.7832 -0.4175 -1.2856
10094TIP3   OH251772   1.799   3.922  15.402 -0.0337  0.6295 -0.0941
10094TIP3    H151773   1.751   3.989  15.354  0.9970  0.2805 -1.7175
10094TIP3    H251774   1.809   3.850  15.339  1.0248 -0.0355  0.7848
10095TIP3   OH251775   2.141   5.650   4.377  0.3256  0.3643 -0.6063
10095TIP3    H151776   2.201   5.718   4.349  1.0334 -0.0305 -0.0682
10095TIP3    H251777   2.114   5.676   4.465  1.7102 -0.7541  0.1881
10096TIP3   OH251778   0.267   3.619   0.239  0.0604 -0.2920  0.0595
10096TIP3    H151779   0.354   3.658   0.235  0.7996 -1.9309 -1.3374
10096TIP3    H251780   0.247   3.597   0.148 -0.3095 -3.0356  0.7169
10097TIP3   OH251781   0.154   1.190   2.082 -0.5369  0.4215  0.0008
10097TIP3    H151782   0.105   1.258   2.129  0.3518  0.7608  0.4539
10097TIP3    H251783   0.087   1.142   2.034 -1.2400  1.3201  0.0428
10098TIP3   OH251784   2.045   6.312  10.751 -0.1104 -0.0577 -0.3614
10098TIP3    H151785   2.033   6.346  10.840  0.8434  1.3488 -0.7289
10098TIP3    H251786   2.139   6.298  10.744 -0.3684 -1.8724 -0.5899
10099TIP3   OH251787   4.284   5.671  11.227 -0.3023  0.0540 -0.1098
10099TIP3    H151788   4.264   5.727  11.152 -1.1244  0.3254  0.3021
10099TIP3    H251789   4.230   5.705  11.298 -1.5527 -1.8431 -0.0952
10100TIP3   OH251790   4.427   4.535  12.507  0.5388  0.0065  0.4192
10100TIP3    H151791   4.338   4.542  12.473  0.2443  0.4676  1.2604
10100TIP3    H251792   4.467   4.466  12.454 -1.1638 -2.1579  1.7968
10101TIP3   OH251793   4.539   2.216  11.717  0.6376  0.8225  0.3726
10101TIP3    H151794   4.535   2.149  11.785  0.0717  0.4969  0.0279
10101TIP3    H251795   4.450   2.221  11.683  0.9613  0.8039 -0.5140
10102TIP3   OH251796   0.703   2.005   1.216 -0.7831  0.0278 -0.9097
10102TIP3    H151797   0.727   2.094   1.191 -1.1965  0.0135 -1.3850
10102TIP3    H251798   0.739   1.993   1.303 -0.1228  0.4196 -1.1275
10103TIP3   OH251799   5.152   1.173   4.612  0.3667  0.1062  0.0796
10103TIP3    H151800   5.105   1.106   4.661 -0.6326 -0.3945 -1.5014
10103TIP3    H251801   5.151   1.143   4.521 -0.2879  2.3250 -0.7242
10104TIP3   OH251802   0.079   2.368  12.615  0.1946 -0.1489 -0.0384
10104TIP3    H151803   0.105   2.327  12.533  0.8022  0.4328 -0.1490
10104TIP3    H251804   0.144   2.437  12.628 -0.0049 -0.1233  0.8411
10105TIP3   OH251805   2.649   2.045   5.015  0.0002 -0.0728 -0.0569
10105TIP3    H151806   2.685   2.106   4.951  0.2029 -0.8056 -0.6553
10105TIP3    H251807   2.597   2.099   5.074 -0.7099  0.5273 -1.2113
10106TIP3   OH251808   2.824   0.722  11.268 -0.2577  0.0187 -0.1469
10106TIP3    H151809   2.807   0.628  11.261 -2.4340  0.3374  0.3069
10106TIP3    H251810   2.816   0.755  11.178 -2.3247  0.1653  0.0544
10107TIP3   OH251811   1.901   3.105  11.005  0.9344  0.0155  0.3657
10107TIP3    H151812   1.919   3.152  10.923 -0.3168 -0.1828 -0.0468
10107TIP3    H251813   1.869   3.020  10.976 -1.7410  0.7246  0.9556
10108TIP3   OH251814   6.641   2.797   1.753  0.0365  0.0630 -0.3096
10108TIP3    H151815   6.732   2.799   1.781  0.7970 -0.1131 -2.5812
10108TIP3    H251816   6.641   2.748   1.671 -1.8400  1.3900 -1.2123
10109TIP3   OH251817   0.208   1.167   0.626  0.9732  0.3296  0.4122
10109TIP3    H151818   0.249   1.102   0.684  0.0422 -1.4758 -0.8387
10109TIP3    H251819   0.117   1.171   0.657  0.2186 -1.3359 -1.3607
10110TIP3   OH251820   4.242   2.729   5.689 -0.2784 -0.3476  0.2202
10110TIP3    H151821   4.333   2.735   5.719  0.8971 -0.0998 -3.0079
10110TIP3    H251822   4.225   2.634   5.687 -0.0612 -0.4030  0.6659
10111TIP3   OH251823   3.357   6.455  13.400  0.3682 -0.3725 -0.2494
10111TIP3    H151824   3.313   6.474  13.483  1.7653 -0.3269  0.5077
10111TIP3    H251825   3.393   6.367  13.411 -1.2396 -1.2657 -1.6377
10112TIP3   OH251826   2.218   2.945   3.853 -0.4779 -0.4205  0.1150
10112TIP3    H151827   2.279   3.014   3.878 -2.9000  0.9608  2.7456
10112TIP3    H251828   2.261   2.900   3.780  2.0922  2.5722 -0.4012
10113TIP3   OH251829   4.731   0.902  16.991  0.0128 -0.1135 -0.3429
10113TIP3    H151830   4.777   0.842  17.048 -1.3079 -0.9628 -0.1290
10113TIP3    H251831   4.763   0.989  17.016 -2.2073 -0.1807  3.4370
10114TIP3   OH251832   1.117   0.953  15.793 -0.3055  0.0723  0.4233
10114TIP3    H151833   1.050   0.986  15.853 -0.0889 -1.5503  1.6283
10114TIP3    H251834   1.092   0.862  15.778 -1.1596  0.7281 -3.1474
10115TIP3   OH251835   4.891   6.669  11.456  0.2154 -0.3878  0.4185
10115TIP3    H151836   4.839   6.647  11.379  0.5533 -0.6820  0.2721
10115TIP3    H251837   4.980   6.645  11.432  0.5562  0.8856  0.3601
10116TIP3   OH251838   0.160   0.573   4.332 -0.2828  0.3235  0.1795
10116TIP3    H151839   0.123   0.532   4.254  2.2223  1.3562 -1.7230
10116TIP3    H251840   0.233   0.517   4.357 -1.6132 -0.5234  2.4996
10117TIP3   OH251841   0.171   4.907  11.722 -0.0916 -0.0063  0.1949
10117TIP3    H151842   0.135   4.995  11.734  0.7128  0.7408 -2.1915
10117TIP3    H251843   0.094   4.851  11.710 -0.5819  0.6219  0.3748
10118TIP3   OH251844   1.051   0.076  12.443  0.2325  0.0702  0.3877
10118TIP3    H151845   1.107   0.038  12.376 -0.4281  0.3334 -0.3317
10118TIP3    H251846   1.073   0.169  12.443  1.9700 -0.2636  2.2654
10119TIP3   OH251847   2.810   6.021  13.968 -0.0815  0.2143 -0.0788
10119TIP3    H151848   2.728   5.993  14.009 -0.0748 -0.3487 -0.4417
10119TIP3    H251849   2.879   5.979  14.020 -0.0622 -0.2090 -0.4426
10120TIP3   OH251850   3.388   4.699   3.240 -0.3431  0.3007  0.8649
10120TIP3    H151851   3.357   4.789   3.248 -1.9006 -0.2130  1.1265
10120TIP3    H251852   3.321   4.656   3.186  1.4403 -0.2366 -1.0659
10121TIP3   OH251853   1.594   0.411   3.524 -0.0517 -0.2790  0.6075
10121TIP3    H151854   1.678   0.450   3.499  1.0242 -0.5822  3.3835
10121TIP3    H251855   1.529   0.474   3.494  1.2508  0.7787 -0.1359
10122TIP3   OH251856   4.196   3.742  12.621  0.4609  0.2774 -0.1664
10122TIP3    H151857   4.175   3.649  12.617 -0.3881  0.3466  1.7132
10122TIP3    H251858   4.282   3.749  12.580  0.3980 -1.2737 -0.6286
10123TIP3   OH251859   3.018   2.167  13.931  0.8674 -0.0091 -0.4961
10123TIP3    H151860   3.102   2.153  13.887  1.0851 -0.0221 -0.0878
10123TIP3    H251861   3.008   2.262  13.933  1.7740  0.1014  1.0703
10124TIP3   OH251862   4.789   2.784  13.882 -0.5873 -0.1212  0.0109
10124TIP3    H151863   4.727   2.712  13.880  0.0892 -0.7351  0.8618
10124TIP3    H251864   4.863   2.752  13.933 -0.3528  1.2347  0.5737
10125TIP3   OH251865   1.462   3.289   3.702  0.5819  0.2000  0.7713
10125TIP3    H151866   1.519   3.310   3.776  3.3151 -3.3107 -0.0482
10125TIP3    H251867   1.415   3.210   3.729 -0.2248  0.2534 -0.3764
10126TIP3   OH251868   5.491   1.408   1.972  0.0918  0.4790  0.5166
10126TIP3    H151869   5.429   1.413   2.045 -1.2846 -3.0522 -0.2019
10126TIP3    H251870   5.440   1.434   1.895  0.3713  0.3908  0.2994
10127TIP3   OH251871   4.455   4.297  14.322 -0.1538 -0.1370  0.5854
10127TIP3    H151872   4.415   4.224  14.369 -0.1534 -0.4496  0.1157
10127TIP3    H251873   4.385   4.330  14.265 -0.5132  0.9992  1.6400
10128TIP3   OH251874   3.236   4.563  13.124 -0.0558 -0.6025  0.5660
10128TIP3    H151875   3.264   4.611  13.203  3.7192 -1.2111 -0.2201
10128TIP3    H251876   3.299   4.492  13.116 -1.5131 -1.7221 -1.9903
10129TIP3   OH251877   1.030   5.109   1.707 -0.1167  0.3106  0.8370
10129TIP3    H151878   1.074   5.038   1.754  1.4233 -0.3075 -1.3934
10129TIP3    H251879   0.949   5.070   1.676 -0.2396  0.1448  1.3552
10130TIP3   OH251880   5.704   0.899   0.087 -0.1812 -0.1055  0.3457
10130TIP3    H151881   5.687   0.847   0.009  2.1631  0.5531 -0.6766
10130TIP3    H251882   5.729   0.985   0.055  2.0153 -0.1528  1.7188
10131TIP3   OH251883   2.360   3.592  12.986  0.1855 -0.0156  0.2937
10131TIP3    H151884   2.451   3.611  12.964 -0.5502  1.2621 -2.0442
10131TIP3    H251885   2.317   3.678  12.986 -0.9400 -0.5300  1.9459
10132TIP3   OH251886   4.129   4.650  15.538 -0.4823  0.1741  0.1671
10132TIP3    H151887   4.163   4.623  15.623  1.0810 -0.2986 -0.5553
10132TIP3    H251888   4.146   4.744  15.535 -2.2918  0.5717  1.1015
10133TIP3   OH251889   4.027   2.442  16.418  0.6148  0.4450  0.4751
10133TIP3    H151890   3.982   2.359  16.403  0.2472  0.6419  0.4892
10133TIP3    H251891   4.120   2.422  16.403  0.4526  0.2101 -0.2636
10134TIP3   OH251892   3.697   1.729   4.572  0.0111  0.5573 -0.2579
10134TIP3    H151893   3.738   1.661   4.626 -2.3620 -0.8600 -0.0996
10134TIP3    H251894   3.603   1.709   4.576 -0.8442  4.0512  0.0389
10135TIP3   OH251895   3.898   2.824  14.605  0.3630  0.2350 -0.3017
10135TIP3    H151896   3.903   2.874  14.687 -1.1491  0.0911 -0.0877
10135TIP3    H251897   3.947   2.877  14.542  1.7309  0.2430  0.7382
10136TIP3   OH251898   0.151   2.882   5.007 -0.3234 -0.3325  0.2489
10136TIP3    H151899   0.178   2.803   4.961 -0.7082 -0.0271 -0.5194
10136TIP3    H251900   0.227   2.906   5.060  0.0581 -0.7981 -0.0778
10137TIP3   OH251901   5.168   0.076   0.943  0.9236 -0.2366 -0.5605
10137TIP3    H151902   5.214   0.066   0.860  1.7805 -0.2411 -0.1083
10137TIP3    H251903   5.150   0.170   0.950  1.0901 -0.1998 -0.6321
10138TIP3   OH251904   2.762   5.579   5.001  0.2653 -0.2106 -0.1996
10138TIP3    H151905   2.751   5.651   4.939  1.9602 -1.3076 -1.9450
10138TIP3    H251906   2.843   5.536   4.972  0.0604 -1.9693  1.6237
10139TIP3   OH251907   3.588   1.573  11.214 -0.2588 -0.2043 -0.0363
10139TIP3    H151908   3.682   1.586  11.203  0.4519 -2.7995  2.0478
10139TIP3    H251909   3.560   1.645  11.272  0.3486  0.7008 -0.8361
10140TIP3   OH251910   3.869   4.664  15.092 -0.4834 -0.4478  0.3383
10140TIP3    H151911   3.965   4.673  15.089 -0.4561 -0.9457 -0.5811
10140TIP3    H251912   3.846   4.687  15.182  0.5760 -0.9622  0.7591
10141TIP3   OH251913   3.213   4.052   4.191  0.2985 -0.2146 -0.0901
10141TIP3    H151914   3.150   4.021   4.126  0.7695 -0.7316 -0.3109
10141TIP3    H251915   3.173   4.131   4.228 -0.7845 -0.8980  0.2494
10142TIP3   OH251916   0.776   4.947   2.330 -0.1415 -0.6371 -0.1275
10142TIP3    H151917   0.799   5.033   2.364  2.5149 -0.9914 -0.8143
10142TIP3    H251918   0.754   4.962   2.239  0.4627 -0.6896 -0.2849
10143TIP3   OH251919   5.395   0.429  14.354 -0.2027  0.4304 -0.2901
10143TIP3    H151920   5.412   0.444  14.447 -1.4356 -0.1373  0.0505
10143TIP3    H251921   5.472   0.382  14.323  0.0170  0.2072  0.5603
10144TIP3   OH251922   4.096   0.427  12.212 -0.0991 -0.1005  0.0969
10144TIP3    H151923   4.043   0.506  12.207 -1.2545 -0.9076 -1.0337
10144TIP3    H251924   4.185   0.458  12.231 -0.7943  1.3368  1.1818
10145TIP3   OH251925   0.770   4.751  13.805  0.4965  0.3134 -0.1865
10145TIP3    H151926   0.702   4.789  13.749  0.4832  1.0895  0.3350
10145TIP3    H251927   0.850   4.755  13.751  0.5982  1.5587  0.0180
10146TIP3   OH251928   3.613   3.169   5.199  0.3850  0.2729  0.4061
10146TIP3    H151929   3.556   3.115   5.254  0.0641 -0.5721 -0.6990
10146TIP3    H251930   3.571   3.167   5.113  1.2897  0.8930 -0.0672
10147TIP3   OH251931   4.105   6.422   0.603 -0.0941 -0.1206  0.1013
10147TIP3    H151932   4.027   6.469   0.635 -0.3106 -0.3579 -0.0738
10147TIP3    H251933   4.143   6.481   0.538  0.3300  0.3500  0.7621
10148TIP3   OH251934   4.805   4.561  12.765 -0.4344 -0.0821  0.6222
10148TIP3    H151935   4.827   4.542  12.856  1.3918 -1.0875  0.0228
10148TIP3    H251936   4.715   4.528  12.755  0.3194 -2.6347  1.3526
10149TIP3   OH251937   3.553   3.246  15.601 -0.3198  0.2856 -0.3570
10149TIP3    H151938   3.643   3.215  15.586  0.6054  1.3955  2.3369
10149TIP3    H251939   3.563   3.339  15.621 -1.5689 -0.2377  3.3842
10150TIP3   OH251940   4.658   4.765  11.924 -0.0919  0.4462  0.4200
10150TIP3    H151941   4.671   4.800  11.836  1.1679 -1.1966 -0.1110
10150TIP3    H251942   4.733   4.797  11.974  0.9215 -1.1067  0.0012
10151TIP3   OH251943   5.127   3.000  10.713 -0.3825  0.0485  0.3094
10151TIP3    H151944   5.172   2.996  10.629  0.8736 -0.4966  0.9996
10151TIP3    H251945   5.035   2.984  10.691 -0.1299  0.2633 -0.9932
10152TIP3   OH251946   3.279   1.123   2.118  0.1447  0.4541 -0.4958
10152TIP3    H151947   3.374   1.137   2.120  0.1680  0.6106 -1.7138
10152TIP3    H251948   3.255   1.138   2.027 -0.8200 -1.1666 -0.5395
10153TIP3   OH251949   2.783   6.430  14.994 -0.7019  0.1636 -0.2917
10153TIP3    H151950   2.863   6.395  15.035  0.7686  0.8761 -2.3981
10153TIP3    H251951   2.749   6.492  15.059  1.9490  1.8245 -0.3125
10154TIP3   OH251952   2.201   0.591   2.419 -0.1253 -0.2815 -0.3886
10154TIP3    H151953   2.181   0.505   2.456  1.4107 -1.1363 -1.4488
10154TIP3    H251954   2.271   0.625   2.474  0.0068 -0.1896 -0.6132
10155TIP3   OH251955   1.826   2.143  16.352 -0.0437 -0.0802 -0.3677
10155TIP3    H151956   1.806   2.053  16.378 -2.5911  0.3809 -0.4196
10155TIP3    H251957   1.899   2.169  16.408  0.8022 -2.1728 -0.4191
10156TIP3   OH251958   0.412   2.740  15.834 -0.4455  0.8374 -0.4044
10156TIP3    H151959   0.400   2.733  15.739 -0.3400  2.0644 -0.5248
10156TIP3    H251960   0.497   2.699  15.851 -1.9016 -2.4219 -0.3575
10157TIP3   OH251961   5.974   3.328  13.288  0.0498 -0.4504  0.3715
10157TIP3    H151962   6.062   3.308  13.257 -0.1837 -0.5057 -0.2779
10157TIP3    H251963   5.963   3.276  13.367  0.1951 -1.3181 -0.1707
10158TIP3   OH251964   3.552   3.992   0.231  0.1221 -0.1035 -0.0276
10158TIP3    H151965   3.607   4.060   0.270 -0.4478 -0.0814  0.7610
10158TIP3    H251966   3.479   4.039   0.191  1.4148  0.0063 -2.4687
10159TIP3   OH251967   1.091   4.369   3.755 -0.5278 -0.6421  0.0941
10159TIP3    H151968   1.133   4.399   3.674 -1.3596  0.5491  0.0884
10159TIP3    H251969   1.088   4.447   3.810 -1.5888 -1.0178  0.5804
10160TIP3   OH251970   4.583   0.121   1.479 -0.1449 -0.6284 -0.1527
10160TIP3    H151971   4.629   0.181   1.421  0.1964  1.1082  1.8026
10160TIP3    H251972   4.491   0.129   1.453 -0.0105  0.1915 -0.3941
10161TIP3   OH251973   0.906   4.252  12.678 -0.2343 -0.1346 -0.2743
10161TIP3    H151974   0.897   4.276  12.770 -0.1361 -0.9059 -0.0598
10161TIP3    H251975   0.998   4.230  12.668  0.9978  4.5244 -1.6968
10162TIP3   OH251976   2.816   5.217   3.120 -0.0575  0.4490  0.6465
10162TIP3    H151977   2.781   5.296   3.161 -3.3653 -0.2220 -0.5675
10162TIP3    H251978   2.749   5.151   3.136  1.4898 -1.4683 -0.4646
10163TIP3   OH251979   5.181   6.301  16.927 -0.3469 -0.7653 -0.3984
10163TIP3    H151980   5.200   6.375  16.984 -1.9558 -0.3776 -0.3166
10163TIP3    H251981   5.191   6.336  16.838  0.7681 -0.9942 -0.3839
10164TIP3   OH251982   0.297   1.093   2.616 -0.2812  0.4121  0.0338
10164TIP3    H151983   0.294   1.065   2.525  0.2371  0.4481  0.0022
10164TIP3    H251984   0.372   1.047   2.653 -2.0522 -1.7777  1.1797
10165TIP3   OH251985   4.146   4.024   5.810 -0.3667 -0.6676  0.1023
10165TIP3    H151986   4.073   4.083   5.793  0.6210  1.2206  1.9544
10165TIP3    H251987   4.150   4.017   5.906  1.8647 -0.6947  0.0568
10166TIP3   OH251988   6.733   1.145   3.027 -0.2041  0.1851 -0.0240
10166TIP3    H151989   6.639   1.140   3.044 -0.3883  0.5937 -0.8882
10166TIP3    H251990   6.744   1.109   2.939  0.1928  1.8659 -0.6998
10167TIP3   OH251991   6.081   0.553   1.972  0.3337  0.4841 -0.1726
10167TIP3    H151992   6.129   0.598   1.903  0.9225  1.2474  0.7113
10167TIP3    H251993   6.014   0.616   2.000 -0.9318 -0.4100 -1.1016
10168TIP3   OH251994   5.007   4.149  11.061 -0.1448  0.1064  0.1767
10168TIP3    H151995   4.990   4.102  10.980 -0.4294  0.2776  0.1383
10168TIP3    H251996   4.922   4.181  11.089  0.0406  0.5498  0.2354
10169TIP3   OH251997   0.327   4.783  17.014 -0.1482 -0.2852  0.1193
10169TIP3    H151998   0.335   4.703  17.065  1.9579 -0.6431 -0.6404
10169TIP3    H251999   0.303   4.850  17.078  0.0701 -1.1573  1.1417
10170TIP3   OH252000   2.017   4.814  14.318 -0.3085 -0.3579  0.1109
10170TIP3    H152001   1.924   4.822  14.336  0.0511  0.7593  1.7279
10170TIP3    H252002   2.057   4.799  14.404  1.2529  1.8885 -0.1372
10171TIP3   OH252003   1.839   1.975  16.952 -0.0765 -0.2884 -0.3855
10171TIP3    H152004   1.858   1.995  16.860  0.1395  1.3310 -0.0262
10171TIP3    H252005   1.852   2.058  16.997 -0.4660 -0.9933  1.0769
10172TIP3   OH252006   3.669   1.985   4.484 -0.0419 -0.0089  0.5815
10172TIP3    H152007   3.678   1.890   4.489 -0.2551 -0.2476 -2.3323
10172TIP3    H252008   3.703   2.009   4.398 -1.1236  2.4146  0.7379
10173TIP3   OH252009   0.212   5.542   4.077  0.2513 -0.1041 -0.1575
10173TIP3    H152010   0.214   5.616   4.138 -2.2904 -0.1877  0.1419
10173TIP3    H252011   0.169   5.577   3.998 -1.7317 -1.3589  0.2855
10174TIP3   OH252012   2.989   2.633  12.069 -0.3602  0.0033  0.3765
10174TIP3    H152013   3.054   2.635  12.139 -1.0574 -0.6961  1.0684
10174TIP3    H252014   3.009   2.553  12.020 -1.2328 -0.7293  1.1565
10175TIP3   OH252015   6.523   4.964  16.911  0.3207  0.0727 -0.2508
10175TIP3    H152016   6.485   4.996  16.828  1.5937 -1.1469 -1.3522
10175TIP3    H252017   6.614   4.946  16.890  0.4927 -0.9507  1.2520
10176TIP3   OH252018   5.382   3.449   2.316  0.2189  0.5429 -1.1414
10176TIP3    H152019   5.401   3.542   2.308 -2.2046  1.2715  0.4678
10176TIP3    H252020   5.308   3.434   2.256 -0.7080  0.1444  0.0657
10177TIP3   OH252021   0.112   1.940   1.629 -0.5932 -0.0315  0.3290
10177TIP3    H152022   0.119   1.851   1.595 -0.8340  0.9277 -2.5697
10177TIP3    H252023   0.174   1.943   1.701  1.0512 -1.9614 -0.8842
10178TIP3   OH252024   2.557   1.923   5.828 -0.1081 -0.3625 -0.3439
10178TIP3    H152025   2.540   1.839   5.787  2.0941 -1.5389  0.9328
10178TIP3    H252026   2.532   1.911   5.920 -1.0526  0.8510 -0.4128
10179TIP3   OH252027   5.150   1.632   0.876  0.2069  0.1699  0.8387
10179TIP3    H152028   5.084   1.578   0.834  0.6344  0.6705 -0.5383
10179TIP3    H252029   5.104   1.713   0.900  0.4990  0.9350 -1.0344
10180TIP3   OH252030   4.662   5.647  15.482 -0.7931  0.6002 -0.3927
10180TIP3    H152031   4.757   5.653  15.467 -0.9886  1.5716 -1.4018
10180TIP3    H252032   4.635   5.570  15.431 -0.6277  0.6559 -0.5686
10181TIP3   OH252033   2.365   2.067  11.382 -0.0660  0.0257 -0.5653
10181TIP3    H152034   2.360   2.161  11.364 -0.7632  0.2391  0.6585
10181TIP3    H252035   2.310   2.054  11.459  2.3753 -0.8714  1.1624
10182TIP3   OH252036   6.297   6.139   5.757 -0.1796  0.0560 -0.2180
10182TIP3    H152037   6.216   6.175   5.792 -1.1041 -1.4472 -0.6966
10182TIP3    H252038   6.358   6.141   5.832 -1.1823 -0.3249  0.6353
10183TIP3   OH252039   3.556   4.973  14.908  0.1312 -0.1371 -0.4673
10183TIP3    H152040   3.632   4.954  14.854  0.3460 -4.1348  0.9281
10183TIP3    H252041   3.481   4.950  14.853  0.2341 -1.6040 -0.0256
10184TIP3   OH252042   0.247   1.679  11.517 -0.0524  0.9460  0.0012
10184TIP3    H152043   0.207   1.592  11.504  2.5465 -0.3681  0.1895
10184TIP3    H252044   0.174   1.740  11.504 -2.2745 -1.2766  1.0440
10185TIP3   OH252045   2.252   1.205  11.835  0.5327  0.1296 -0.2371
10185TIP3    H152046   2.219   1.194  11.746 -0.3682 -4.2817  0.4175
10185TIP3    H252047   2.343   1.178  11.831  0.3576 -0.5535  0.2385
10186TIP3   OH252048   5.640   0.900   1.313  0.0240  0.0243  0.0301
10186TIP3    H152049   5.713   0.950   1.350  0.3370  0.3207 -0.9705
10186TIP3    H252050   5.624   0.940   1.228 -0.0835 -1.2328 -0.5654
10187TIP3   OH252051   4.490   1.112  14.373  0.5140  0.8563  0.1654
10187TIP3    H152052   4.491   1.016  14.378 -1.9787  0.7392 -0.0116
10187TIP3    H252053   4.472   1.141  14.463  1.4284  1.1816  0.2503
10188TIP3   OH252054   5.485   4.130  12.595 -0.0239  0.0369  0.4340
10188TIP3    H152055   5.513   4.142  12.504  0.1091 -0.8091  0.3545
10188TIP3    H252056   5.401   4.085  12.588  0.1906 -0.4165  0.7362
10189TIP3   OH252057   2.968   4.597  13.033  0.0115  0.0947  0.6315
10189TIP3    H152058   2.979   4.666  12.967  0.9554 -2.6375 -2.3392
10189TIP3    H252059   3.052   4.592  13.077  0.5317 -0.2531 -0.3696
10190TIP3   OH252060   6.095   4.574  13.263  0.0063 -1.1614 -0.5608
10190TIP3    H152061   6.142   4.552  13.183  1.3341  0.4721 -0.2773
10190TIP3    H252062   6.051   4.657  13.243  0.1908 -0.8358  0.3277
10191TIP3   OH252063   6.062   2.769  11.981 -0.6034  0.2844  0.8384
10191TIP3    H152064   6.079   2.842  11.921 -0.2632 -0.6086 -0.1905
10191TIP3    H252065   5.975   2.738  11.956  0.2944 -1.3111 -0.5766
10192TIP3   OH252066   1.002   1.839   1.944 -0.0536 -0.4581  0.3145
10192TIP3    H152067   0.944   1.915   1.937 -0.2059 -0.7370 -2.2324
10192TIP3    H252068   0.989   1.808   2.033 -1.7186  1.1348  0.6941
10193TIP3   OH252069   2.909   3.135  16.534 -0.5557  0.1642 -0.2012
10193TIP3    H152070   2.841   3.076  16.566 -0.6932 -0.2176 -1.1555
10193TIP3    H252071   2.941   3.094  16.454  1.7322 -0.3504  0.8778
10194TIP3   OH252072   0.730   6.643   1.952 -0.0710  0.1911  1.2450
10194TIP3    H152073   0.756   6.596   2.032  0.3809  0.0698  1.0300
10194TIP3    H252074   0.741   6.579   1.882  0.5645  0.6180  0.9471
10195TIP3   OH252075   4.940   5.556   6.142 -0.6736 -0.6600 -0.2775
10195TIP3    H152076   4.976   5.471   6.167 -1.9335 -1.0955  0.1073
10195TIP3    H252077   4.845   5.547   6.153 -0.8261  0.8293 -0.1050
10196TIP3   OH252078   6.359   5.754   2.491 -0.3651  0.2345 -0.3005
10196TIP3    H152079   6.341   5.701   2.569 -0.1863  0.5163 -0.0649
10196TIP3    H252080   6.447   5.729   2.464 -1.0885 -1.1925 -1.4937
10197TIP3   OH252081   6.559   0.442  14.242  0.7982  0.4342 -0.4823
10197TIP3    H152082   6.550   0.520  14.297  0.3687  0.6619 -0.8617
10197TIP3    H252083   6.470   0.425  14.211  0.7316 -0.7451  0.3063
10198TIP3   OH252084   5.712   3.310  16.630 -0.4532  0.0069  0.2543
10198TIP3    H152085   5.649   3.253  16.674 -0.7016  0.5556  0.6271
10198TIP3    H252086   5.664   3.344  16.554 -0.4586  0.0613  0.2818
10199TIP3   OH252087   2.072   6.694   2.571 -0.4013 -0.6037  0.5027
10199TIP3    H152088   2.049   6.671   2.481  0.0681 -0.7334  0.4151
10199TIP3    H252089   2.103   6.612   2.610  2.0745  0.0028 -0.0510
10200TIP3   OH252090   1.215   0.427  15.157  0.2661  0.2027 -0.5868
10200TIP3    H152091   1.280   0.405  15.224 -0.6002  0.5390  0.3929
10200TIP3    H252092   1.226   0.521  15.143 -0.8375  0.5246  0.5314
10201TIP3   OH252093   3.772   2.916  11.025 -0.6483 -0.1835 -0.5345
10201TIP3    H152094   3.809   2.828  11.029  0.1495  0.1805  1.0500
10201TIP3    H252095   3.687   2.910  11.068  0.4239  0.2284  1.8305
10202TIP3   OH252096   2.899   6.517   2.304 -0.0870  0.2938 -0.1612
10202TIP3    H152097   2.883   6.439   2.357  0.8263  1.5546  2.1325
10202TIP3    H252098   2.971   6.493   2.247  0.0665 -0.6000  0.3832
10203TIP3   OH252099   5.333   2.172  10.769 -1.2055  0.6198 -0.2909
10203TIP3    H152100   5.299   2.124  10.694 -0.3295  1.9158 -1.5633
10203TIP3    H252101   5.279   2.143  10.842 -1.4246 -1.4466 -1.1868
10204TIP3   OH252102   5.168   5.329   0.771  0.7226  0.2272  0.1023
10204TIP3    H152103   5.263   5.336   0.757  0.5697 -0.1368 -1.1629
10204TIP3    H252104   5.160   5.298   0.862  1.8083  0.2735  0.2299
10205TIP3   OH252105   0.709   0.828   3.167  0.1612 -0.2256 -0.5143
10205TIP3    H152106   0.799   0.859   3.181  0.1062  0.2781 -1.2204
10205TIP3    H252107   0.709   0.739   3.202  1.1133 -0.4698 -1.0724
10206TIP3   OH252108   0.939   6.841   2.910  0.2914 -0.4055  0.2092
10206TIP3    H152109   0.945   6.895   2.989 -0.4687  0.1903 -0.1242
10206TIP3    H252110   1.023   6.797   2.905  0.9488  0.7712  0.4910
10207TIP3   OH252111   3.054   4.056   3.933 -0.0685 -0.1442 -0.1747
10207TIP3    H152112   2.960   4.037   3.931 -0.0659 -0.1190 -0.8775
10207TIP3    H252113   3.061   4.144   3.895  0.1809  0.1270  0.4925
10208TIP3   OH252114   0.767   4.898   2.054  0.0875  0.0776  0.0279
10208TIP3    H152115   0.781   4.806   2.032 -0.0341 -0.1726  0.9473
10208TIP3    H252116   0.855   4.932   2.071  0.0701 -0.0826  0.4620
10209TIP3   OH252117   3.827   0.330  12.812 -0.1832  0.2700  0.0201
10209TIP3    H152118   3.917   0.353  12.833 -0.3086 -0.1241  1.0822
10209TIP3    H252119   3.809   0.375  12.730  1.0121  0.2697 -0.2662
10210TIP3   OH252120   3.500   2.808   5.098 -0.1633  0.4417  0.7522
10210TIP3    H152121   3.421   2.860   5.082 -0.2264  0.1046 -0.1044
10210TIP3    H252122   3.485   2.767   5.183 -1.2769 -0.2687  0.2319
10211TIP3   OH252123   6.824   6.841   1.165  0.3956 -0.1936 -0.0486
10211TIP3    H152124   6.778   6.886   1.235 -1.9391  0.3919 -1.8480
10211TIP3    H252125   6.857   6.761   1.205 -1.0490  0.0224  1.6609
10212TIP3   OH252126   3.702   1.390  16.349  0.5108  0.2883 -0.1097
10212TIP3    H152127   3.634   1.401  16.283 -0.0497 -2.1023 -0.0106
10212TIP3    H252128   3.654   1.378  16.431  1.1766  1.9256  0.5745
10213TIP3   OH252129   5.678   0.653  14.960 -0.7930  0.1041  0.2356
10213TIP3    H152130   5.697   0.681  14.871  0.9528  2.2950  1.1993
10213TIP3    H252131   5.764   0.639  15.000 -1.5160 -0.3322  1.7204
10214TIP3   OH252132   2.079   4.723   5.030  0.5329 -0.1599 -0.4444
10214TIP3    H152133   2.061   4.703   4.938 -1.2906 -1.0217  0.0536
10214TIP3    H252134   2.092   4.818   5.032 -0.2162 -0.0222 -1.4745
10215TIP3   OH252135   0.319   5.294  14.173  0.0312 -0.5593  0.3152
10215TIP3    H152136   0.300   5.254  14.258 -0.6409 -0.2007  0.3351
10215TIP3    H252137   0.413   5.311  14.176  0.0997 -0.9750  0.8021
10216TIP3   OH252138   4.697   6.383  11.417  0.4722  0.1740  0.4400
10216TIP3    H152139   4.622   6.439  11.437  1.4001  1.1134  1.3963
10216TIP3    H252140   4.744   6.375  11.500  1.9095  0.3490 -0.3282
10217TIP3   OH252141   4.707   5.686   5.313  0.9088 -0.5219 -0.0441
10217TIP3    H152142   4.767   5.738   5.366  0.8449  1.3882 -1.7506
10217TIP3    H252143   4.755   5.669   5.231  0.0774 -1.2117 -0.4034
10218TIP3   OH252144   2.052   5.801   4.097 -0.1578  0.0203  0.6448
10218TIP3    H152145   2.026   5.713   4.125  1.7046 -1.3154 -1.5775
10218TIP3    H252146   2.135   5.817   4.141  1.3430 -0.9233 -1.6556
10219TIP3   OH252147   4.372   2.478  14.541  0.2342 -0.4149  0.1462
10219TIP3    H152148   4.412   2.450  14.623  1.9872  1.0242 -0.1558
10219TIP3    H252149   4.443   2.520  14.493 -1.1910  0.4137 -1.3324
10220TIP3   OH252150   0.925   2.293   2.448 -0.1625  0.3352 -0.2639
10220TIP3    H152151   0.948   2.382   2.421  2.0882 -0.1121  0.0134
10220TIP3    H252152   0.835   2.301   2.480  0.7092  3.0241  1.9465
10221TIP3   OH252153   1.100   3.404  15.209  0.1756 -0.4596  0.0387
10221TIP3    H152154   1.031   3.428  15.148  2.0112 -0.9794 -2.3886
10221TIP3    H252155   1.056   3.399  15.294 -2.7129 -0.6376 -1.3475
10222TIP3   OH252156   4.327   3.563  11.312 -0.5058 -0.3538  0.3126
10222TIP3    H152157   4.304   3.547  11.220 -1.2969  0.4650  0.3569
10222TIP3    H252158   4.382   3.642  11.310  1.2427 -1.5182  0.3491
10223TIP3   OH252159   6.665   4.349  10.555  0.3008  0.4238 -0.0775
10223TIP3    H152160   6.731   4.409  10.521  0.1870  0.8748  0.4669
10223TIP3    H252161   6.625   4.397  10.627  0.6754 -0.5664  0.8224
10224TIP3   OH252162   4.186   5.692  15.658 -0.4370  0.2011 -0.5913
10224TIP3    H152163   4.274   5.714  15.627 -0.2196  0.9822  0.5286
10224TIP3    H252164   4.146   5.777  15.677 -1.3256 -0.1682 -0.7617
10225TIP3   OH252165   1.722   0.207  15.565  0.3218  0.0158 -0.1767
10225TIP3    H152166   1.686   0.135  15.618 -0.8548  0.8134  0.1355
10225TIP3    H252167   1.706   0.285  15.617  1.8624  0.5045 -0.3797
10226TIP3   OH252168   6.465   5.329   3.823  0.1080  0.7653 -0.6636
10226TIP3    H152169   6.504   5.414   3.843 -1.1098  0.8570  1.6068
10226TIP3    H252170   6.539   5.276   3.793  1.5410  1.6580  1.0915
10227TIP3   OH252171   2.775   5.631  15.981  0.6772 -0.1046 -0.5003
10227TIP3    H152172   2.755   5.617  16.074 -1.6813 -0.0892 -0.9567
10227TIP3    H252173   2.767   5.545  15.941  2.0993 -0.1882 -0.6705
10228TIP3   OH252174   4.400   2.062   1.874  0.1070 -0.4633  0.0003
10228TIP3    H152175   4.387   2.130   1.808  1.2041 -0.7699 -0.5563
10228TIP3    H252176   4.432   1.987   1.825  2.7949 -0.1134  1.0325
10229TIP3   OH252177   1.459   0.482  16.739  0.4120  0.1440 -0.1067
10229TIP3    H152178   1.438   0.542  16.810 -1.4580 -0.5937  0.0266
10229TIP3    H252179   1.519   0.531  16.683  0.0043  1.6272  0.7079
10230TIP3   OH252180   2.135   5.759  13.736 -0.0455  0.3987 -0.3325
10230TIP3    H152181   2.187   5.781  13.813  0.6838 -0.4294 -0.5756
10230TIP3    H252182   2.048   5.739  13.771  0.0389  0.8799  0.1724
10231TIP3   OH252183   3.818   6.130   4.249 -0.1517 -0.7336 -0.0259
10231TIP3    H152184   3.818   6.038   4.273 -0.2790 -0.9788 -0.9380
10231TIP3    H252185   3.816   6.130   4.153  2.0410  0.1814 -0.1248
10232TIP3   OH252186   1.008   1.926   2.621 -0.0953  0.0093  0.4337
10232TIP3    H152187   0.981   2.005   2.667  3.0917  1.1944  0.5143
10232TIP3    H252188   1.054   1.958   2.544  1.8042 -1.7146  0.7757
10233TIP3   OH252189   6.427   6.545  14.946  0.6399  0.1489  0.4277
10233TIP3    H152190   6.445   6.604  14.873  1.7625  0.8761  1.2756
10233TIP3    H252191   6.475   6.582  15.020  2.1305 -2.2682  0.7864
10234TIP3   OH252192   1.326   1.380  12.716 -0.4355 -0.4817 -0.1097
10234TIP3    H152193   1.318   1.293  12.677 -3.1950 -0.2835 -0.1664
10234TIP3    H252194   1.241   1.397  12.756  0.7338  1.2965  1.8897
10235TIP3   OH252195   5.573   3.455   5.414 -0.1900  0.5132  0.0463
10235TIP3    H152196   5.663   3.466   5.381  0.4583 -1.2801  1.0800
10235TIP3    H252197   5.546   3.370   5.380 -1.2172  0.6988  0.3805
10236TIP3   OH252198   1.461   5.685  15.649 -0.6248  0.1677  0.0913
10236TIP3    H152199   1.437   5.593  15.640  1.7543 -0.4609 -0.8227
10236TIP3    H252200   1.477   5.715  15.559  0.9389  0.7460  0.5242
10237TIP3   OH252201   6.254   5.795  15.886  0.2036 -0.4270  0.4135
10237TIP3    H152202   6.245   5.773  15.979  1.7111  2.0059  1.2453
10237TIP3    H252203   6.340   5.836  15.880 -0.0370 -0.1491 -2.0003
10238TIP3   OH252204   1.752   6.212  16.283 -0.0548 -0.1603  0.1310
10238TIP3    H152205   1.792   6.250  16.205 -1.1511  2.1166  0.5740
10238TIP3    H252206   1.679   6.159  16.251 -1.2028  1.6559 -0.4331
10239TIP3   OH252207   3.838   3.439   3.932 -0.0462  0.4375  0.7238
10239TIP3    H152208   3.782   3.458   4.007  0.1037 -0.1422  0.9827
10239TIP3    H252209   3.866   3.525   3.901 -0.6097  0.7054  0.9475
10240TIP3   OH252210   0.712   2.810  12.173 -0.3993  0.0579 -0.6730
10240TIP3    H152211   0.801   2.802  12.206 -0.0792  1.4207 -1.1355
10240TIP3    H252212   0.668   2.867  12.237 -0.7934 -0.2044 -0.7084
10241TIP3   OH252213   3.101   0.841   4.374 -0.4044 -0.3788  0.1119
10241TIP3    H152214   3.107   0.746   4.386  2.8434 -0.2576  0.1702
10241TIP3    H252215   3.073   0.874   4.459 -1.0766 -1.2224  0.2362
10242TIP3   OH252216   2.275   4.525  14.427 -0.1449 -0.8262  0.6523
10242TIP3    H152217   2.340   4.576  14.379  0.6139 -3.3088 -1.2146
10242TIP3    H252218   2.230   4.588  14.482  2.1322  1.4298  0.1092
10243TIP3   OH252219   0.774   5.128  16.995  1.0548  0.0967 -0.6994
10243TIP3    H152220   0.728   5.051  16.962 -0.7766  0.3072  1.1705
10243TIP3    H252221   0.706   5.194  17.007  1.5637  0.1716  2.9438
10244TIP3   OH252222   5.780   4.013  13.727 -0.1187 -0.0562  0.0542
10244TIP3    H152223   5.697   3.983  13.689  0.4812 -0.6021 -0.8580
10244TIP3    H252224   5.780   4.108  13.714 -0.0280 -0.2013 -1.1388
10245TIP3   OH252225   6.005   3.963  15.706 -0.5816  0.3043  0.0294
10245TIP3    H152226   5.913   3.976  15.731 -0.4919  1.6196 -0.2285
10245TIP3    H252227   6.003   3.888  15.647 -1.5528  0.5239 -0.2513
10246TIP3   OH252228   3.612   2.477  17.086 -0.6416 -0.0645 -0.6787
10246TIP3    H152229   3.542   2.533  17.118  0.5718  1.4887 -0.6211
10246TIP3    H252230   3.661   2.531  17.024  0.8712 -0.8584 -0.2493
10247TIP3   OH252231   5.772   0.328   0.751  0.2590 -0.2351  0.1756
10247TIP3    H152232   5.766   0.382   0.829  1.1888 -0.6776  0.5727
10247TIP3    H252233   5.698   0.268   0.757  0.0761  0.0207  0.4956
10248TIP3   OH252234   6.093   1.855  11.796 -0.3268 -1.0260 -0.1599
10248TIP3    H152235   6.082   1.802  11.875  0.7295 -1.9796 -0.6286
10248TIP3    H252236   6.176   1.825  11.758  0.2917  0.9440 -0.4607
10249TIP3   OH252237   3.326   6.262   0.361 -0.2063 -0.1254 -0.0074
10249TIP3    H152238   3.240   6.221   0.363  0.2034 -1.0984 -1.0138
10249TIP3    H252239   3.310   6.354   0.382 -1.8390  0.2512 -2.5125
10250TIP3   OH252240   0.714   0.284  13.543 -1.0012 -0.5410 -0.0614
10250TIP3    H152241   0.795   0.241  13.515 -0.6459 -0.1393  0.3244
10250TIP3    H252242   0.647   0.252  13.483 -0.2093  0.5551 -1.5921
10251TIP3   OH252243   3.447   4.344  12.449  0.1887 -0.4587 -0.6702
10251TIP3    H152244   3.448   4.251  12.428  1.8588 -1.7451  3.8789
10251TIP3    H252245   3.354   4.365  12.462 -0.1448 -1.8393 -0.6833
10252TIP3   OH252246   4.820   5.814  12.590 -0.0337  0.2894  0.6172
10252TIP3    H152247   4.882   5.795  12.660  0.3100  0.5523  0.3896
10252TIP3    H252248   4.743   5.760  12.609  0.7519 -1.0106  0.1969
10253TIP3   OH252249   0.712   2.185  11.827  0.5641  0.2511 -0.0686
10253TIP3    H152250   0.793   2.134  11.818  1.5439  1.9255 -1.4551
10253TIP3    H252251   0.675   2.185  11.739 -1.3360 -1.0053  0.6736
10254TIP3   OH252252   2.196   1.044  15.850  0.8646  0.6788  0.0106
10254TIP3    H152253   2.149   1.026  15.931  1.3463  0.5690  0.2647
10254TIP3    H252254   2.126   1.053  15.784  0.4843  0.5724  0.3929
10255TIP3   OH252255   0.594   5.854   4.589 -0.5133 -0.6242 -0.1786
10255TIP3    H152256   0.599   5.771   4.541  0.6448 -0.2613 -0.7151
10255TIP3    H252257   0.662   5.847   4.656 -1.8732 -0.9772  1.2343
10256TIP3   OH252258   6.484   3.845   3.065 -0.3787  0.1463  0.0382
10256TIP3    H152259   6.459   3.754   3.077  1.9015 -0.7666 -1.3789
10256TIP3    H252260   6.437   3.874   2.988  1.4163 -1.0025 -1.5805
10257TIP3   OH252261   2.487   4.992   0.511  0.2480  0.0191 -0.1739
10257TIP3    H152262   2.394   5.012   0.506  0.3631  0.3651 -1.7306
10257TIP3    H252263   2.514   4.984   0.419  1.5529 -1.0373  0.2678
10258TIP3   OH252264   3.591   3.040  14.510 -0.1965 -0.0670  0.0627
10258TIP3    H152265   3.555   2.977  14.448  1.2706 -1.5873  0.6809
10258TIP3    H252266   3.516   3.066  14.563 -0.8555 -1.2437 -0.2445
10259TIP3   OH252267   4.444   6.637  11.952 -0.0372 -0.1233 -0.6668
10259TIP3    H152268   4.384   6.677  11.889  0.0188 -1.1109 -1.3719
10259TIP3    H252269   4.483   6.711  11.998 -1.4546  0.5617 -0.4910
10260TIP3   OH252270   0.973   3.676  11.434  0.3654  1.0667  0.3082
10260TIP3    H152271   0.903   3.741  11.445  0.6547  1.4838 -0.1957
10260TIP3    H252272   0.979   3.666  11.339  0.9595  1.0041  0.3542
10261TIP3   OH252273   5.901   3.855   1.239 -0.6017 -0.1382  0.0029
10261TIP3    H152274   5.885   3.781   1.180 -0.8790 -0.9341  1.0591
10261TIP3    H252275   5.814   3.885   1.265 -0.4856  0.4387 -0.2655
10262TIP3   OH252276   3.965   6.683  14.372 -0.4830 -0.3048  0.4812
10262TIP3    H152277   3.883   6.662  14.418 -1.0144  0.9813  0.1914
10262TIP3    H252278   3.939   6.751  14.309  0.2685 -1.7941 -1.5520
10263TIP3   OH252279   4.649   3.430  15.796 -0.0497 -0.3121  0.3355
10263TIP3    H152280   4.696   3.439  15.713 -0.2336  0.2736  0.2941
10263TIP3    H252281   4.694   3.357  15.840  0.9400  0.2624  0.3162
10264TIP3   OH252282   1.578   4.929   1.217 -0.3242  0.1424 -0.3923
10264TIP3    H152283   1.634   5.006   1.223 -0.5777  0.4208 -1.3483
10264TIP3    H252284   1.593   4.882   1.299 -0.0278  1.1079  0.1315
10265TIP3   OH252285   1.595   0.425  17.089 -0.2482  0.1322  0.0822
10265TIP3    H152286   1.578   0.393  17.178  0.0538  0.9657  0.4470
10265TIP3    H252287   1.515   0.473  17.065  0.1600  0.9806  0.3995
10266TIP3   OH252288   5.507   0.911  16.811 -0.0991  0.3182 -0.2184
10266TIP3    H152289   5.558   0.864  16.877  0.3096  0.1464 -0.6548
10266TIP3    H252290   5.520   0.862  16.731 -0.1849  0.8154 -0.5413
10267TIP3   OH252291   6.140   4.415   3.392  0.5560  0.7506 -0.0826
10267TIP3    H152292   6.071   4.379   3.448 -0.7428 -1.1146 -2.6835
10267TIP3    H252293   6.107   4.502   3.367 -0.2950  0.3677 -0.3292
10268TIP3   OH252294   0.804   3.930   1.881  0.0279  0.2390  0.2533
10268TIP3    H152295   0.854   3.890   1.809  0.2759  1.5368 -0.3321
10268TIP3    H252296   0.870   3.975   1.934 -0.3789  1.0281  0.1070
10269TIP3   OH252297   6.002   2.626  11.584 -0.0250  0.1229  0.5028
10269TIP3    H152298   5.929   2.593  11.637 -0.0575  0.2006  0.5073
10269TIP3    H252299   6.076   2.626  11.643  0.5586 -2.2220 -0.1139
10270TIP3   OH252300   3.880   3.831   1.130  0.0062 -0.0576  0.1402
10270TIP3    H152301   3.842   3.757   1.176  2.7747 -1.8163 -0.1343
10270TIP3    H252302   3.875   3.808   1.037  3.5863 -1.5801  0.1412
10271TIP3   OH252303   5.740   0.715   5.706  0.4270  0.2574 -0.7003
10271TIP3    H152304   5.820   0.768   5.703 -0.2242  1.3830  0.8318
10271TIP3    H252305   5.702   0.733   5.792 -1.7456  0.1139 -1.5757
10272TIP3   OH252306   0.029   4.167   6.124  0.2289  0.2230 -0.1255
10272TIP3    H152307   0.060   4.123   6.045  0.6093 -1.2843  0.8277
10272TIP3    H252308   0.060   4.112   6.196 -1.5257  0.6377  1.0141
10273TIP3   OH252309   6.728   2.959  15.441  0.7108 -0.0047  0.4563
10273TIP3    H152310   6.685   2.874  15.433 -0.0101  0.4560 -0.8398
10273TIP3    H252311   6.673   3.019  15.390  2.5136  0.7391 -0.6943
10274TIP3   OH252312   5.014   1.671   4.663 -0.1483  0.1908  0.0423
10274TIP3    H152313   5.029   1.700   4.573 -0.7222  0.0988 -0.0869
10274TIP3    H252314   4.998   1.577   4.656 -1.0330  0.3254  0.1343
10275TIP3   OH252315   1.584   1.603   2.925  0.0516  0.0712 -0.9858
10275TIP3    H152316   1.645   1.582   2.855 -1.0065 -0.5311 -1.7635
10275TIP3    H252317   1.634   1.590   3.005  1.0903  0.1121 -1.6124
10276TIP3   OH252318   0.208   6.799  12.367  0.0854 -0.0232 -0.1281
10276TIP3    H152319   0.185   6.800  12.460  1.1107 -0.8480  0.1633
10276TIP3    H252320   0.302   6.819  12.366  0.0521  0.1098 -0.9939
10277TIP3   OH252321   2.373   5.639  16.788 -0.3304  0.2553  0.1085
10277TIP3    H152322   2.350   5.580  16.859  1.4967 -0.0719  0.4786
10277TIP3    H252323   2.469   5.637  16.785 -0.3335  0.9241 -1.8035
10278TIP3   OH252324   0.448   2.560   4.544  0.0562  0.2702  1.0216
10278TIP3    H152325   0.441   2.472   4.580 -0.1959  0.0174  0.3705
10278TIP3    H252326   0.419   2.617   4.615 -2.7416 -0.3563  0.5024
10279TIP3   OH252327   1.156   4.572  15.798  0.5371 -0.3642  0.5299
10279TIP3    H152328   1.226   4.601  15.856  1.5629 -0.6242 -0.5354
10279TIP3    H252329   1.130   4.650  15.750  1.3651 -0.6111 -0.3519
10280TIP3   OH252330   3.173   0.709  12.377  0.6446 -0.1465 -0.1430
10280TIP3    H152331   3.141   0.653  12.447  3.8788 -1.6394  0.3465
10280TIP3    H252332   3.210   0.785  12.423 -0.6251  0.7482 -0.5597
10281TIP3   OH252333   3.325   4.522   2.458 -0.1990  0.1177 -0.3968
10281TIP3    H152334   3.304   4.602   2.409 -1.6753 -0.3614 -0.5717
10281TIP3    H252335   3.250   4.508   2.515 -1.0569 -2.3785 -1.9716
10282TIP3   OH252336   0.995   1.061   0.014 -0.2554  0.0640  0.1874
10282TIP3    H152337   0.901   1.079   0.023 -0.0246  1.4569  0.0822
10282TIP3    H252338   1.008   0.978   0.059 -1.6996 -0.6454 -0.6081
10283TIP3   OH252339   5.924   4.623  16.410 -0.1763 -0.5405 -0.0518
10283TIP3    H152340   5.988   4.556  16.385  2.1728  1.8806 -1.0082
10283TIP3    H252341   5.930   4.627  16.505  0.8184 -0.6754 -0.0899
10284TIP3   OH252342   1.441   2.455   2.204  0.5107 -0.4393 -0.6849
10284TIP3    H152343   1.491   2.477   2.283  0.0200  2.0560 -0.9892
10284TIP3    H252344   1.351   2.479   2.226  0.1419 -0.9595 -1.5818
10285TIP3   OH252345   5.804   4.194   1.302 -0.0020 -0.2865  0.4025
10285TIP3    H152346   5.872   4.161   1.243 -0.8685 -0.1786 -0.6849
10285TIP3    H252347   5.846   4.267   1.349 -0.1604  1.7572 -2.3727
10286TIP3   OH252348   4.115   5.837   0.450 -0.3529 -0.1015  0.2451
10286TIP3    H152349   4.095   5.749   0.484  1.4370 -0.1913  1.2050
10286TIP3    H252350   4.169   5.821   0.373 -2.6135  0.1530 -1.4883
10287TIP3   OH252351   0.683   5.867  13.118  0.0424 -0.3471  0.2847
10287TIP3    H152352   0.596   5.905  13.112  0.2470  0.3171  1.3090
10287TIP3    H252353   0.738   5.937  13.153  1.1002 -0.5962 -0.7887
10288TIP3   OH252354   3.898   0.643  11.100 -0.0444  0.3416 -0.2371
10288TIP3    H152355   3.980   0.616  11.059  0.0266  0.9356 -0.4934
10288TIP3    H252356   3.874   0.724  11.055 -0.1883  0.7676  0.5905
10289TIP3   OH252357   1.262   2.514   5.326 -0.0008  0.3309  0.0136
10289TIP3    H152358   1.239   2.566   5.250 -0.1514 -0.8672 -0.7901
10289TIP3    H252359   1.353   2.490   5.312 -0.3694 -0.9042 -0.4315
10290TIP3   OH252360   2.903   0.997   3.657 -0.8031  0.4040  0.0100
10290TIP3    H152361   2.955   0.922   3.627 -0.5851  0.4460  0.2708
10290TIP3    H252362   2.821   0.991   3.608 -1.0442 -0.3677  0.4730
10291TIP3   OH252363   3.124   4.268   5.437 -0.0803  0.5274 -0.2364
10291TIP3    H152364   3.081   4.198   5.487  2.3530 -1.0040 -0.1192
10291TIP3    H252365   3.208   4.280   5.480  0.8436  1.3187 -2.1372
10292TIP3   OH252366   6.101   4.834   3.717  0.0632  0.1217  0.7657
10292TIP3    H152367   6.069   4.745   3.700  0.2661  0.3179 -0.8027
10292TIP3    H252368   6.192   4.834   3.686 -0.1972  1.0933 -0.0721
10293TIP3   OH252369   4.562   0.673   4.495 -0.3903  0.1347 -0.1398
10293TIP3    H152370   4.580   0.628   4.413  0.7541  2.1717 -1.0723
10293TIP3    H252371   4.528   0.759   4.469 -0.1065  0.7852  1.4950
10294TIP3   OH252372   2.843   4.538  11.529 -0.3765  0.2058  0.4342
10294TIP3    H152373   2.751   4.509  11.534 -0.5205  0.7222  0.7691
10294TIP3    H252374   2.838   4.633  11.529  0.1290  0.2421 -0.2043
10295TIP3   OH252375   4.375   4.291  14.748  0.4826  0.1174 -0.5380
10295TIP3    H152376   4.460   4.294  14.792 -0.2515  0.1669  0.9469
10295TIP3    H252377   4.326   4.224  14.794 -0.9414  1.4000 -0.0847
10296TIP3   OH252378   5.248   0.053   1.446  0.1105  0.2356 -0.2143
10296TIP3    H152379   5.188   0.074   1.518 -0.3256  0.2137 -0.5707
10296TIP3    H252380   5.275   0.138   1.411 -1.3331  0.2423 -1.3898
10297TIP3   OH252381   3.332   1.397  11.388 -0.1964 -0.1037 -0.1235
10297TIP3    H152382   3.323   1.451  11.310 -2.0674 -0.3979 -0.1784
10297TIP3    H252383   3.394   1.444  11.444 -0.3567  1.1348 -0.9504
10298TIP3   OH252384   0.518   3.536   4.047 -0.2685  0.2914 -0.0082
10298TIP3    H152385   0.572   3.521   4.124 -1.6240  2.1259  1.3664
10298TIP3    H252386   0.436   3.490   4.065 -0.5545  0.6279 -0.4311
10299TIP3   OH252387   0.764   4.066  16.449  0.6434 -0.1148 -0.1745
10299TIP3    H152388   0.703   3.995  16.470 -0.7454  0.4358 -2.0295
10299TIP3    H252389   0.799   4.042  16.363  0.1861  1.3762 -0.8132
10300TIP3   OH252390   5.504   0.362   4.450  0.2183  0.5452 -0.3340
10300TIP3    H152391   5.438   0.387   4.385 -0.1491 -1.9522 -1.0007
10300TIP3    H252392   5.586   0.362   4.401 -0.2706 -2.9448 -1.3668
10301TIP3   OH252393   4.934   5.921   4.372  0.0096  0.1416  0.0176
10301TIP3    H152394   4.932   5.890   4.462  0.3398 -2.8442 -0.9043
10301TIP3    H252395   4.843   5.913   4.342  0.0603  0.2887 -0.1754
10302TIP3   OH252396   2.045   2.038   4.821 -0.4693 -0.5641 -0.0946
10302TIP3    H152397   2.000   1.961   4.786  1.3897 -2.2459  1.0548
10302TIP3    H252398   2.108   2.062   4.753 -1.6280  0.5842 -0.8390
10303TIP3   OH252399   4.884   0.807   1.966 -0.0690 -0.0460 -0.2728
10303TIP3    H152400   4.917   0.894   1.943  2.1297 -0.4067  1.1120
10303TIP3    H252401   4.924   0.789   2.051 -1.9397 -1.6894  0.3304
10304TIP3   OH252402   5.353   1.469   3.156 -0.0078 -0.6881 -0.0259
10304TIP3    H152403   5.258   1.465   3.161 -0.0979 -1.0112 -1.4460
10304TIP3    H252404   5.383   1.382   3.182 -0.0571 -0.3867  1.0555
10305TIP3   OH252405   2.973   2.563  16.325 -0.4109 -0.1861 -0.4449
10305TIP3    H152406   2.968   2.478  16.281  1.3006 -0.0732 -0.9650
10305TIP3    H252407   3.002   2.623  16.256  1.5890  0.1487  0.6009
10306TIP3   OH252408   5.460   2.304   2.780 -0.0832 -0.2071  0.0216
10306TIP3    H152409   5.528   2.353   2.827 -2.2110  2.9286  0.1262
10306TIP3    H252410   5.391   2.290   2.845 -1.6367  1.2089 -1.2474
10307TIP3   OH252411   5.713   3.979  11.801  0.6882  0.1962  0.0333
10307TIP3    H152412   5.680   3.903  11.849  1.8461 -0.4802 -0.2148
10307TIP3    H252413   5.771   3.943  11.735  0.4235  1.2365 -0.7999
10308TIP3   OH252414   3.023   4.352   4.846  0.2590 -0.2245  0.0534
10308TIP3    H152415   3.073   4.284   4.801 -1.1139 -0.3236 -1.3857
10308TIP3    H252416   2.991   4.309   4.926 -0.3860 -1.2123 -0.7150
10309TIP3   OH252417   0.974   3.952  14.326 -0.6097  1.1185 -0.6017
10309TIP3    H152418   1.020   4.014  14.270 -0.6375  0.9452 -0.8145
10309TIP3    H252419   0.975   3.870  14.278  0.3272  0.6834  0.1351
10310TIP3   OH252420   0.705   2.554   2.472 -0.1702  0.1955 -0.1665
10310TIP3    H152421   0.735   2.520   2.556  0.1430  0.5294 -0.1434
10310TIP3    H252422   0.732   2.645   2.471 -1.2616  0.5378 -0.1084
10311TIP3   OH252423   4.139   3.435   1.233  0.3580  0.3962 -0.0553
10311TIP3    H152424   4.132   3.507   1.170  2.0691 -0.3665 -1.1987
10311TIP3    H252425   4.232   3.412   1.233 -0.1327 -1.8366  0.2120
10312TIP3   OH252426   2.988   2.972  14.063 -0.0421 -0.1180  0.3774
10312TIP3    H152427   3.039   3.050  14.086  0.8853 -1.1320  2.0095
10312TIP3    H252428   3.018   2.905  14.125 -2.1638 -1.2526  0.2868
10313TIP3   OH252429   3.653   6.399   5.764  0.7509  0.0306 -0.1281
10313TIP3    H152430   3.654   6.329   5.830  3.9250  0.0350 -0.0206
10313TIP3    H252431   3.566   6.437   5.772 -0.5915 -2.8822  0.8766
10314TIP3   OH252432   3.594   1.649  13.509  0.1177 -0.6836 -0.1692
10314TIP3    H152433   3.540   1.712  13.461 -1.2783 -2.7554 -1.4926
10314TIP3    H252434   3.544   1.630  13.588  1.3272  1.0055  1.0776
10315TIP3   OH252435   3.738   6.618  13.535  0.1595 -0.1053  0.4494
10315TIP3    H152436   3.748   6.534  13.491  0.5609 -0.6459  1.5361
10315TIP3    H252437   3.730   6.596  13.627 -0.6355  1.0021  0.6677
10316TIP3   OH252438   6.853   4.808   0.503  0.1085 -0.0816  0.0709
10316TIP3    H152439   6.795   4.802   0.428  0.4211 -1.1886 -0.0988
10316TIP3    H252440   6.896   4.723   0.507 -0.4782 -0.3301  1.9703
10317TIP3   OH252441   4.385   4.253  16.218 -0.0613  0.7812  0.6319
10317TIP3    H152442   4.456   4.316  16.204  1.2831 -0.0722  2.9512
10317TIP3    H252443   4.363   4.263  16.311 -0.2219 -1.7002  0.9265
10318TIP3   OH252444   0.688   1.408   1.679  0.1567 -0.1708 -0.3936
10318TIP3    H152445   0.756   1.450   1.732  0.3583  0.7927 -1.3561
10318TIP3    H252446   0.664   1.475   1.615 -1.8853 -0.4019  0.0634
10319TIP3   OH252447   6.567   6.103   2.940 -0.6184 -0.0158  0.3373
10319TIP3    H152448   6.604   6.082   2.854  0.9610 -1.3651  1.2685
10319TIP3    H252449   6.482   6.143   2.921  1.6630  4.5045 -2.0564
10320TIP3   OH252450   4.291   1.339  14.916  0.2943  0.2086 -0.6042
10320TIP3    H152451   4.276   1.397  14.841 -0.3953 -0.0508 -0.6802
10320TIP3    H252452   4.245   1.258  14.892  1.2463 -0.3749 -0.5020
10321TIP3   OH252453   2.075   2.891   1.541 -0.1903  0.2126 -0.2202
10321TIP3    H152454   2.147   2.948   1.513 -0.0177 -0.3311 -0.9172
10321TIP3    H252455   2.067   2.907   1.635  0.9888  0.1234 -0.0927
10322TIP3   OH252456   5.719   2.976  15.949 -0.1384  0.2220  0.1986
10322TIP3    H152457   5.727   2.900  16.006 -1.4733 -1.1617 -1.3594
10322TIP3    H252458   5.797   3.029  15.968  0.6578 -1.3662  1.5546
10323TIP3   OH252459   2.905   3.882  16.016  0.7681 -0.4440 -0.1022
10323TIP3    H152460   2.809   3.879  16.013  0.6974 -1.5619  1.7107
10323TIP3    H252461   2.932   3.790  16.020  1.9751 -0.1715 -1.2772
10324TIP3   OH252462   0.186   6.747  11.614  0.1027  0.4715  0.1775
10324TIP3    H152463   0.269   6.757  11.567  1.2033 -1.9191  1.4237
10324TIP3    H252464   0.119   6.751  11.546  1.5377 -1.6352 -1.4900
10325TIP3   OH252465   0.344   0.314  17.024 -0.1951  0.5868 -0.0217
10325TIP3    H152466   0.411   0.253  16.992 -1.6686  0.2103 -2.5986
10325TIP3    H252467   0.342   0.384  16.959 -3.5315 -0.3394 -1.0665
10326TIP3   OH252468   6.750   3.197   2.280 -0.4123  0.3856 -0.1090
10326TIP3    H152469   6.737   3.281   2.236  1.6442  0.1028 -1.3631
10326TIP3    H252470   6.675   3.144   2.254 -1.2258  1.4986 -0.0920
10327TIP3   OH252471   6.568   2.917   3.328 -0.1017 -0.0555  0.4076
10327TIP3    H152472   6.542   2.978   3.396  0.4852  0.0997  0.4952
10327TIP3    H252473   6.501   2.927   3.260 -0.0637  0.6106  0.4643
10328TIP3   OH252474   6.677   4.311  16.100 -0.1504 -0.1776  0.9399
10328TIP3    H152475   6.761   4.322  16.056  0.2990  0.5838  1.9538
10328TIP3    H252476   6.674   4.219  16.125  0.5390 -0.1261  1.2126
10329TIP3   OH252477   1.177   6.121   2.613 -0.5423 -0.0856 -0.5389
10329TIP3    H152478   1.120   6.177   2.560 -0.6962  0.5217  0.2564
10329TIP3    H252479   1.214   6.179   2.679 -1.0447 -0.9978  0.5832
10330TIP3   OH252480   5.322   1.392  10.512 -0.3900 -0.6774 -0.0551
10330TIP3    H152481   5.238   1.418  10.475 -0.6358 -0.8977  0.3410
10330TIP3    H252482   5.319   1.296  10.516 -0.0685 -0.6953 -0.1593
10331TIP3   OH252483   1.154   5.610   6.322  0.7324 -0.6402 -0.1138
10331TIP3    H152484   1.226   5.585   6.381  0.1768  0.0035  0.8535
10331TIP3    H252485   1.182   5.694   6.285  0.3244 -0.2050  0.5487
10332TIP3   OH252486   3.248   4.707   5.351 -0.3129 -0.0999  0.4063
10332TIP3    H152487   3.317   4.713   5.284 -1.6071  0.0096 -0.9609
10332TIP3    H252488   3.189   4.639   5.318 -1.0058 -0.0104  1.4282
10333TIP3   OH252489   6.325   2.932  10.244  0.6635  0.1350 -0.2749
10333TIP3    H152490   6.292   2.842  10.238 -0.7425  0.6539 -0.8887
10333TIP3    H252491   6.284   2.977  10.170  1.4396  1.2572 -0.0485
10334TIP3   OH252492   4.028   1.348   3.628 -0.2909 -0.1737  0.1262
10334TIP3    H152493   4.007   1.262   3.590 -0.7744 -0.8185  1.7837
10334TIP3    H252494   3.965   1.408   3.589 -0.9670 -0.8733  0.1231
10335TIP3   OH252495   4.216   6.482  11.547  0.2677 -0.2797 -0.0621
10335TIP3    H152496   4.127   6.508  11.527 -0.0975 -1.8531 -0.6450
10335TIP3    H252497   4.206   6.418  11.618  1.1552  1.4383  1.7055
10336TIP3   OH252498   6.790   5.928  14.976  0.4233 -0.4534 -0.1296
10336TIP3    H152499   6.736   5.915  15.054  0.2040 -0.5271 -0.2925
10336TIP3    H252500   6.727   5.944  14.906  0.6193 -0.4049 -0.2945
10337TIP3   OH252501   1.267   2.535  15.187 -0.4674 -0.2599  0.4640
10337TIP3    H152502   1.298   2.456  15.231 -0.1917 -0.2878  0.2249
10337TIP3    H252503   1.247   2.506  15.098  0.8754  0.1959 -0.0123
10338TIP3   OH252504   4.645   3.748   5.718 -0.2321 -0.1055 -0.6783
10338TIP3    H152505   4.684   3.711   5.797  1.1284  0.5070 -1.0315
10338TIP3    H252506   4.551   3.745   5.734  0.0250  0.5256  1.2054
10339TIP3   OH252507   4.642   0.182  13.243 -0.6845  0.1693  0.1523
10339TIP3    H152508   4.636   0.122  13.168 -0.6054 -0.1964  0.4318
10339TIP3    H252509   4.726   0.226  13.231 -0.1917 -0.6337  0.5629
10340TIP3   OH252510   4.912   1.729  13.013  0.1837  0.1052 -0.4518
10340TIP3    H152511   4.943   1.705  12.926 -0.1592 -2.3245  0.0180
10340TIP3    H252512   4.816   1.725  13.006  0.1043  1.2505 -0.2748
10341TIP3   OH252513   5.069   1.041   2.617 -0.0197  0.0572  0.1087
10341TIP3    H152514   5.156   1.066   2.647  0.9641 -2.9342  0.0925
10341TIP3    H252515   5.016   1.037   2.697  0.8219 -1.4421  0.6218
10342TIP3   OH252516   6.650   3.099   4.947 -0.5717 -0.1845  0.2552
10342TIP3    H152517   6.745   3.106   4.952 -0.3920 -0.5164 -1.8039
10342TIP3    H252518   6.618   3.164   5.010  1.0099  0.4060  0.5063
10343TIP3   OH252519   4.030   4.961  16.733  0.2940  0.0858 -0.0221
10343TIP3    H152520   4.012   4.996  16.646 -0.8813 -1.8466 -0.6098
10343TIP3    H252521   3.976   5.013  16.792  0.9903  1.3125 -0.4313
10344TIP3   OH252522   2.025   1.094  13.862 -0.2525  0.1609  0.0682
10344TIP3    H152523   2.054   1.121  13.949 -0.5614 -0.4830  0.3798
10344TIP3    H252524   2.033   0.998  13.862  0.5022  0.2076 -0.8916
10345TIP3   OH252525   2.501   3.446  12.205  0.1829  0.7150 -0.1116
10345TIP3    H152526   2.558   3.372  12.180 -2.6581 -1.9167  0.5519
10345TIP3    H252527   2.501   3.502  12.128  1.9656 -0.2900 -0.9188
10346TIP3   OH252528   4.018   2.386  16.022 -0.0289 -0.1886  0.0877
10346TIP3    H152529   3.979   2.426  16.100  1.4229  3.1501 -0.6887
10346TIP3    H252530   3.966   2.420  15.949  1.3013  0.4362 -0.6225
10347TIP3   OH252531   4.895   3.709  16.919 -0.0654  1.0517  0.5575
10347TIP3    H152532   4.909   3.791  16.873 -0.0571  0.6952 -0.0881
10347TIP3    H252533   4.973   3.657  16.901  0.8863  1.6349  2.6365
10348TIP3   OH252534   2.219   4.274   3.823  0.3358  0.0829 -0.4314
10348TIP3    H152535   2.313   4.283   3.805  0.0695  1.0811 -1.4182
10348TIP3    H252536   2.213   4.275   3.919  1.3132  0.1988 -0.3583
10349TIP3   OH252537   3.079   2.551  13.171 -0.1514  0.0382  0.5751
10349TIP3    H152538   3.159   2.504  13.148  0.3147  0.9075  0.3606
10349TIP3    H252539   3.043   2.580  13.087 -1.7805 -2.0073  0.4883
10350TIP3   OH252540   1.702   0.603   4.821  0.6055 -0.1729  0.1611
10350TIP3    H152541   1.735   0.555   4.744  0.1469  0.9916 -0.7893
10350TIP3    H252542   1.650   0.538   4.868 -0.4126 -0.5295 -1.3561
10351TIP3   OH252543   3.079   1.721  11.856  0.8376  0.3043  0.4151
10351TIP3    H152544   3.064   1.776  11.779  4.5155 -0.6790 -1.2669
10351TIP3    H252545   3.073   1.632  11.822 -0.0158 -0.2442  1.9311
10352TIP3   OH252546   3.669   0.806  12.974 -0.4350  0.2407  0.3837
10352TIP3    H152547   3.608   0.856  13.029 -1.3438 -0.5363  0.1016
10352TIP3    H252548   3.621   0.727  12.950  0.5896 -0.2585 -0.0869
10353TIP3   OH252549   2.080   1.013   0.634 -0.0032  0.0714 -0.0912
10353TIP3    H152550   1.988   1.019   0.660 -0.1399  1.6560 -0.8406
10353TIP3    H252551   2.125   1.072   0.694  0.2955  0.4809 -0.7127
10354TIP3   OH252552   5.976   2.735  11.175 -0.0279  0.2993  0.5337
10354TIP3    H152553   5.962   2.679  11.252 -1.6555  0.2805  0.2458
10354TIP3    H252554   5.956   2.678  11.100  0.2636  0.7011  0.1479
10355TIP3   OH252555   6.799   2.654  12.940 -0.2678  0.3574 -0.3437
10355TIP3    H152556   6.729   2.591  12.920 -0.8695  0.7954  0.3420
10355TIP3    H252557   6.841   2.619  13.018  0.2653  0.1195 -0.7283
10356TIP3   OH252558   5.532   2.801  14.449  0.1355 -0.3167  0.0179
10356TIP3    H152559   5.514   2.712  14.479 -1.0586 -0.1230 -0.0839
10356TIP3    H252560   5.457   2.852  14.480  0.5815  0.5582 -0.3256
10357TIP3   OH252561   0.221   1.464  14.431 -0.3662 -0.1285  0.0316
10357TIP3    H152562   0.140   1.422  14.460 -0.2186  0.2785  1.0538
10357TIP3    H252563   0.291   1.415  14.474 -0.0210 -0.8282 -1.2806
10358TIP3   OH252564   1.640   1.541  13.762 -0.2766 -0.2978 -0.0767
10358TIP3    H152565   1.707   1.473  13.768 -0.5176 -0.4091  2.0932
10358TIP3    H252566   1.593   1.522  13.681  1.5845 -0.8692 -1.0728
10359TIP3   OH252567   1.091   3.839  14.912 -0.1473 -0.3148  0.1751
10359TIP3    H152568   1.093   3.934  14.924  2.9833 -0.5132  2.6630
10359TIP3    H252569   1.072   3.827  14.819 -0.4652  2.7268 -0.2523
10360TIP3   OH252570   2.030   1.845  11.903 -0.5228 -0.9246 -0.0002
10360TIP3    H152571   1.958   1.860  11.964 -0.0618  1.7117  0.0186
10360TIP3    H252572   2.080   1.926  11.904  2.5839 -2.6681  0.0870
10361TIP3   OH252573   2.921   5.477   0.832 -0.4867  0.5880  0.4785
10361TIP3    H152574   3.003   5.440   0.799 -1.8611 -3.0687  0.7653
10361TIP3    H252575   2.883   5.523   0.757 -0.6579 -2.2926 -1.3184
10362TIP3   OH252576   2.442   4.051   2.204  0.2951  0.3151  0.6310
10362TIP3    H152577   2.483   4.117   2.148  0.4116 -0.7793 -0.6261
10362TIP3    H252578   2.349   4.071   2.199  0.3143  0.3013  0.1329
10363TIP3   OH252579   3.137   1.374   5.219 -0.4863  0.6922  0.1405
10363TIP3    H152580   3.095   1.292   5.194 -0.2034  0.5548  0.1079
10363TIP3    H252581   3.070   1.441   5.206 -0.6275  0.5031 -0.1064
10364TIP3   OH252582   4.075   2.113  14.205 -0.1064 -0.2090  0.6165
10364TIP3    H152583   4.109   2.121  14.294 -0.3602  0.8248  0.6327
10364TIP3    H252584   4.013   2.040  14.210 -0.8396  0.4451  1.5342
10365TIP3   OH252585   1.180   0.091  14.046  0.0010 -0.1325 -0.5770
10365TIP3    H152586   1.181   0.111  13.953  1.1172 -1.3411 -0.8623
10365TIP3    H252587   1.223   0.165  14.088 -1.3054  0.8416 -0.8954
10366TIP3   OH252588   5.692   2.378  11.155  0.6568  0.7617 -0.4945
10366TIP3    H152589   5.692   2.407  11.246 -0.7619  1.0859 -0.5755
10366TIP3    H252590   5.622   2.314  11.151  0.4456  1.0456 -1.4506
10367TIP3   OH252591   3.595   3.490   5.883 -0.2649 -0.7330 -0.4156
10367TIP3    H152592   3.594   3.578   5.845 -2.0744 -0.8775 -0.7639
10367TIP3    H252593   3.651   3.497   5.960  0.3019  0.5022 -0.9217
10368TIP3   OH252594   5.055   5.443  16.579  0.3213  0.4319  0.2777
10368TIP3    H152595   4.993   5.409  16.643 -1.6744  0.6964 -1.4191
10368TIP3    H252596   5.052   5.538  16.591 -0.5424  0.5257 -0.6019
10369TIP3   OH252597   0.415   3.988  16.781 -0.0516  0.5661 -0.2937
10369TIP3    H152598   0.333   3.940  16.790  0.2221 -0.1981 -1.5906
10369TIP3    H252599   0.471   3.930  16.729  2.1250  0.0755  2.3587
10370TIP3   OH252600   1.596   1.131   2.226 -0.1296  0.1442  0.1911
10370TIP3    H152601   1.540   1.083   2.287 -2.5670 -0.1276 -2.0453
10370TIP3    H252602   1.646   1.063   2.180  1.2437  0.3044  1.3891
10371TIP3   OH252603   5.225   5.118   4.746 -0.1428 -0.0158  0.7648
10371TIP3    H152604   5.319   5.125   4.732  0.0433 -0.4571  1.7203
10371TIP3    H252605   5.191   5.089   4.661  0.5250  0.5240  0.2988
10372TIP3   OH252606   0.464   0.822   6.523  0.0199 -0.1988  0.1240
10372TIP3    H152607   0.427   0.901   6.562 -1.1626 -0.5613 -0.2350
10372TIP3    H252608   0.483   0.846   6.432 -2.2575 -0.8583 -0.5973
10373TIP3   OH252609   2.162   0.004  12.644  0.1844  0.4211 -0.1545
10373TIP3    H152610   2.104   0.079  12.656  1.0449  0.9355  0.9373
10373TIP3    H252611   2.135  -0.058  12.711 -1.0443 -0.6238 -1.5478
10374TIP3   OH252612   5.494   3.315   0.810 -0.5404 -0.1360  0.0547
10374TIP3    H152613   5.587   3.326   0.828 -0.2455 -0.9661 -0.9085
10374TIP3    H252614   5.466   3.246   0.870 -0.5427  0.1197  0.3508
10375TIP3   OH252615   3.050   0.508  16.299  0.2052  0.1501  0.3994
10375TIP3    H152616   3.003   0.430  16.328  0.5169 -0.4188 -0.5920
10375TIP3    H252617   3.003   0.581  16.340 -1.2323 -0.4282 -0.1596
10376TIP3   OH252618   2.227   1.198  15.482  0.2715 -0.1842  0.0089
10376TIP3    H152619   2.234   1.195  15.386  0.7934 -0.4103  0.0503
10376TIP3    H252620   2.314   1.175  15.513 -0.1936 -1.2627  0.5550
10377TIP3   OH252621   5.543   2.864  14.132 -0.3635 -0.2883  0.1247
10377TIP3    H152622   5.533   2.877  14.226 -1.3962 -1.1127  0.1489
10377TIP3    H252623   5.609   2.795  14.124  0.0698  0.1121  0.2219
10378TIP3   OH252624   4.253   3.622   1.795 -0.0685 -0.2917 -0.2361
10378TIP3    H152625   4.295   3.650   1.714  1.3087 -1.6886 -0.0561
10378TIP3    H252626   4.315   3.648   1.864 -0.1774 -1.1007  0.1734
10379TIP3   OH252627   3.962   4.849  15.902 -0.2777  0.1687 -0.0312
10379TIP3    H152628   3.951   4.942  15.882 -1.0262  0.0887 -0.0129
10379TIP3    H252629   3.943   4.842  15.995  3.3800  0.5694  0.9076
10380TIP3   OH252630   0.358   4.360   0.307  0.4247  0.2768 -0.3424
10380TIP3    H152631   0.345   4.455   0.308 -1.1862  0.0762  0.6975
10380TIP3    H252632   0.324   4.332   0.222  0.9782  0.6148 -0.6858
10381TIP3   OH252633   6.561   1.870  13.944 -0.1353  0.6256  0.1094
10381TIP3    H152634   6.498   1.840  13.878  0.6023  0.9436 -0.7635
10381TIP3    H252635   6.576   1.793  13.999 -0.3708  0.1914 -0.4177
10382TIP3   OH252636   5.177   3.642   2.006  0.3067 -0.2921 -0.5583
10382TIP3    H152637   5.196   3.602   1.921  2.1399 -1.6238  0.4153
10382TIP3    H252638   5.174   3.569   2.067  0.8827  0.8060  0.8319
10383TIP3   OH252639   5.412   2.383   5.184  0.5977  0.1460  0.3096
10383TIP3    H152640   5.489   2.419   5.229 -0.1755  1.4118  0.6771
10383TIP3    H252641   5.362   2.341   5.253  0.0517  0.9590  0.4230
10384TIP3   OH252642   0.251   1.345  10.932 -0.2116  0.1420 -0.1807
10384TIP3    H152643   0.265   1.283  10.860  1.8899  0.9883 -0.5722
10384TIP3    H252644   0.339   1.360  10.968 -0.7789  2.2030  0.4696
10385TIP3   OH252645   1.363   6.677   4.995  0.0434 -0.2201  0.1098
10385TIP3    H152646   1.302   6.653   4.926  0.0723 -1.4039  0.4789
10385TIP3    H252647   1.442   6.706   4.948 -0.2992 -0.0198 -0.3510
10386TIP3   OH252648   3.658   0.712  14.049  0.1579 -0.1075  0.3023
10386TIP3    H152649   3.693   0.702  13.961 -0.5330  0.7287 -0.0831
10386TIP3    H252650   3.620   0.627  14.070  0.7134 -0.4428 -0.0218
10387TIP3   OH252651   0.903   0.527   3.984 -0.0780  0.0815 -0.1942
10387TIP3    H152652   0.879   0.438   4.013 -0.9278  0.4308  0.2056
10387TIP3    H252653   0.951   0.513   3.902 -0.2729 -0.7448 -0.1786
10388TIP3   OH252654   0.319   1.438  16.463 -0.5889 -0.0202  0.0407
10388TIP3    H152655   0.297   1.374  16.395 -2.0454  0.5596 -0.0516
10388TIP3    H252656   0.286   1.401  16.544 -1.0301  0.4002  0.0580
10389TIP3   OH252657   2.959   3.356  12.555  0.0762  0.3918  0.0375
10389TIP3    H152658   3.000   3.401  12.629 -0.8218 -1.3784  1.7062
10389TIP3    H252659   2.968   3.417  12.482  1.5941  1.9472  1.4233
10390TIP3   OH252660   2.504   0.869  16.839 -0.6575  0.8122 -0.3275
10390TIP3    H152661   2.411   0.867  16.861 -1.1781  0.2863 -2.3930
10390TIP3    H252662   2.507   0.896  16.747  1.1951  0.3636 -0.4380
10391TIP3   OH252663   1.183   0.337   2.611 -0.3287 -0.2448 -0.1583
10391TIP3    H152664   1.160   0.430   2.617 -0.8529 -0.1372 -2.8915
10391TIP3    H252665   1.232   0.330   2.529  1.4002 -2.0948  0.9408
10392TIP3   OH252666   0.698   1.581   2.601 -0.3273 -0.2067 -0.0968
10392TIP3    H152667   0.687   1.655   2.660 -0.9331  1.3553 -2.0230
10392TIP3    H252668   0.739   1.513   2.654 -0.4528  1.2257  1.9591
10393TIP3   OH252669   1.360   6.701   3.262 -0.6232  0.2757 -0.3233
10393TIP3    H152670   1.415   6.707   3.340  0.1814 -0.5550 -0.7942
10393TIP3    H252671   1.420   6.716   3.189 -0.9858 -0.7152 -0.8546
10394TIP3   OH252672   2.257   6.673  13.688  0.4480 -0.4732  0.4351
10394TIP3    H152673   2.186   6.737  13.679  1.0700  0.2477  0.5777
10394TIP3    H252674   2.260   6.653  13.781  1.4383  0.6927  0.6831
10395TIP3   OH252675   0.235   0.313  10.543  0.1488 -0.3718 -0.2260
10395TIP3    H152676   0.201   0.339  10.457 -0.8859  0.4788  0.4114
10395TIP3    H252677   0.195   0.375  10.604  1.1155 -0.7705  0.8399
10396TIP3   OH252678   6.305   4.449  15.124  0.3118  0.5319 -0.0447
10396TIP3    H152679   6.372   4.497  15.173 -0.1281  1.1640 -0.0462
10396TIP3    H252680   6.344   4.436  15.038  0.3576  1.1040 -0.1187
10397TIP3   OH252681   0.463   5.488   5.774  0.8205 -0.4144  0.1774
10397TIP3    H152682   0.373   5.509   5.747  1.6297  1.0505 -1.5915
10397TIP3    H252683   0.517   5.521   5.703  2.7628 -1.6863  0.9852
10398TIP3   OH252684   1.569   6.401  14.551  0.1554  0.5141 -0.5154
10398TIP3    H152685   1.586   6.400  14.456  1.4693 -1.5781 -0.3246
10398TIP3    H252686   1.481   6.367  14.560  0.0387  0.6759 -0.9810
10399TIP3   OH252687   0.927   4.277   4.074 -0.3827 -0.0158  0.2467
10399TIP3    H152688   0.946   4.371   4.077  0.4272 -0.0946 -1.2573
10399TIP3    H252689   1.012   4.235   4.086 -0.3975 -0.4907 -1.0887
10400TIP3   OH252690   2.973   1.918  11.680  0.2622  0.2410 -0.7261
10400TIP3    H152691   3.009   2.000  11.714  0.5677 -0.1410 -0.0956
10400TIP3    H252692   2.905   1.945  11.618 -2.3506  1.0355  2.2137
10401TIP3   OH252693   2.889   6.716   0.565 -0.2593  0.2986 -0.7116
10401TIP3    H152694   2.814   6.769   0.592  0.6229  0.7883  0.9483
10401TIP3    H252695   2.965   6.760   0.605  0.6441 -1.5065 -0.3420
10402TIP3   OH252696   5.857   6.218   4.330  0.2295 -0.4339  0.1137
10402TIP3    H152697   5.942   6.260   4.337 -0.3334  0.3906  3.6885
10402TIP3    H252698   5.861   6.144   4.390 -1.5114 -0.4309  0.3031
10403TIP3   OH252699   0.226   2.147   5.934 -0.8693 -0.3642 -0.4533
10403TIP3    H152700   0.134   2.165   5.911 -1.0091 -0.6451 -0.1192
10403TIP3    H252701   0.222   2.067   5.986 -0.2394 -1.4961 -2.0809
10404TIP3   OH252702   2.569   2.761  16.443  0.0307  0.2210 -0.1237
10404TIP3    H152703   2.645   2.804  16.404  3.0155 -1.2852  3.4244
10404TIP3    H252704   2.563   2.798  16.532 -0.5010 -2.8011  1.2392
10405TIP3   OH252705   5.839   1.854   1.272 -0.5389  0.4878  0.1529
10405TIP3    H152706   5.913   1.824   1.326 -1.4861 -2.1157  0.1481
10405TIP3    H252707   5.787   1.908   1.331 -0.9368 -1.3445  1.5958
10406TIP3   OH252708   4.467   0.476   3.387 -0.1797  0.1646  0.6774
10406TIP3    H152709   4.541   0.451   3.332  0.1822  1.9799  0.2734
10406TIP3    H252710   4.415   0.535   3.332 -0.4593  1.0595  1.8554
10407TIP3   OH252711   5.298   2.369  12.426 -0.3340  0.5639  0.2603
10407TIP3    H152712   5.334   2.280  12.419 -1.4944  0.1097 -0.1243
10407TIP3    H252713   5.348   2.409  12.498 -0.5049 -0.7544  1.1496
10408TIP3   OH252714   2.033   3.670   6.622 -0.6870 -0.4462 -0.5595
10408TIP3    H152715   2.074   3.714   6.697 -0.6404  1.5400 -1.6778
10408TIP3    H252716   1.953   3.631   6.657 -0.4517  0.0824  0.6106
10409TIP3   OH252717   3.070   1.713  14.848 -0.2784 -0.0424 -0.4674
10409TIP3    H152718   3.079   1.803  14.881  0.2630 -0.2144 -0.1291
10409TIP3    H252719   3.151   1.669  14.876  0.1307 -0.2457 -1.8785
10410TIP3   OH252720   4.077   5.596   5.023 -0.1199 -0.1957 -0.3826
10410TIP3    H152721   4.007   5.658   5.003 -0.8082 -0.9052 -0.2635
10410TIP3    H252722   4.066   5.577   5.116 -1.1810 -1.9642 -0.8235
10411TIP3   OH252723   6.253   6.602  16.672 -0.1693 -0.1219  0.3225
10411TIP3    H152724   6.313   6.647  16.611  0.5149 -3.1641 -1.4676
10411TIP3    H252725   6.176   6.658  16.676  0.7623  1.3855 -1.4344
10412TIP3   OH252726   6.084   3.229   2.590  0.3363  0.0547  0.4588
10412TIP3    H152727   6.070   3.313   2.632 -1.6503  0.4239 -0.7824
10412TIP3    H252728   6.102   3.251   2.498 -1.3299 -0.8474 -0.1259
10413TIP3   OH252729   0.276   1.710  15.319  0.2704  0.5277  0.1806
10413TIP3    H152730   0.360   1.724  15.363  0.1346 -1.9288  1.4389
10413TIP3    H252731   0.214   1.696  15.391 -0.7720  0.2189 -0.7564
10414TIP3   OH252732   3.155   2.750   2.444 -0.3206  0.3369 -0.1614
10414TIP3    H152733   3.131   2.772   2.354 -1.3722  2.0209  0.4788
10414TIP3    H252734   3.173   2.834   2.485  1.3427 -0.4922  0.9020
10415TIP3   OH252735   6.160   2.992  11.553  0.6964  0.2736  0.1045
10415TIP3    H152736   6.069   3.011  11.530  0.6538  0.8191  0.7116
10415TIP3    H252737   6.181   2.914  11.501 -0.3876 -0.3792  0.6055
10416TIP3   OH252738   4.704   5.641  13.587  0.0917 -0.1457  0.4118
10416TIP3    H152739   4.711   5.648  13.492 -0.7239 -1.7955  0.2116
10416TIP3    H252740   4.728   5.550  13.606 -2.6682 -0.7230  1.4628
10417TIP3   OH252741   6.185   6.726  11.519  0.2119  0.1213 -0.4425
10417TIP3    H152742   6.120   6.797  11.515 -0.5811 -0.5099  0.7309
10417TIP3    H252743   6.169   6.674  11.440 -3.1915 -2.0699  1.4492
10418TIP3   OH252744   5.117   0.023  15.955  0.4119  0.3246 -0.2235
10418TIP3    H152745   5.112   0.064  15.869 -0.3803 -0.5813 -0.6263
10418TIP3    H252746   5.053   0.071  16.008  0.7180  0.7169 -0.2047
10419TIP3   OH252747   6.715   4.052   5.016 -0.9620  0.2405 -0.0491
10419TIP3    H152748   6.644   4.005   5.061  0.1425 -1.8130 -0.3526
10419TIP3    H252749   6.756   3.987   4.960  2.4304  0.7669  1.5529
10420TIP3   OH252750   0.102   5.936   3.480  0.0687  0.9837  0.1443
10420TIP3    H152751   0.159   5.860   3.467  1.8757  2.1906  0.6483
10420TIP3    H252752   0.059   5.949   3.395  0.8771  0.3084 -0.3854
10421TIP3   OH252753   1.512   4.046  14.467  0.5273  0.2116  0.6135
10421TIP3    H152754   1.458   4.117  14.432 -0.2228  0.0727  1.4472
10421TIP3    H252755   1.554   4.007  14.390  0.7895  1.4144  0.1251
10422TIP3   OH252756   5.280   3.154   4.560  0.1706  0.1965 -0.3643
10422TIP3    H152757   5.236   3.073   4.585 -0.2886 -0.4428 -2.9458
10422TIP3    H252758   5.340   3.172   4.632 -0.3749 -1.9422  0.7042
10423TIP3   OH252759   0.965   6.136   5.886  0.4037 -0.1222 -0.2497
10423TIP3    H152760   0.895   6.104   5.829  0.1996 -1.2794  0.6396
10423TIP3    H252761   1.026   6.063   5.894  0.3754 -0.0254  1.0978
10424TIP3   OH252762   6.181   2.193   5.868 -0.5492 -0.5357 -0.0325
10424TIP3    H152763   6.228   2.268   5.832 -1.2531  0.7057  1.5217
10424TIP3    H252764   6.249   2.140   5.910 -0.2505  0.0954  0.2896
10425TIP3   OH252765   6.176   4.920   4.632 -0.5641 -0.4209 -0.4715
10425TIP3    H152766   6.107   4.966   4.585 -0.7721  0.0223  0.2618
10425TIP3    H252767   6.202   4.980   4.702 -0.8910 -1.4391  0.5473
10426TIP3   OH252768   2.545   4.666  10.721 -0.1850  0.3681  1.0252
10426TIP3    H152769   2.495   4.733  10.768 -1.2817  0.9581 -0.8747
10426TIP3    H252770   2.619   4.714  10.684 -1.0933  0.6198 -0.5265
10427TIP3   OH252771   4.036   3.875  12.389  0.3021 -0.1567 -0.7182
10427TIP3    H152772   4.079   3.857  12.472 -0.1602  1.4830 -0.0855
10427TIP3    H252773   3.953   3.915  12.413  0.1452  0.3169 -1.9635
10428TIP3   OH252774   4.341   0.112  11.278  0.5378 -0.0274 -0.0538
10428TIP3    H152775   4.282   0.037  11.282 -1.2596  1.3464  0.8561
10428TIP3    H252776   4.327   0.149  11.191  0.4477  0.0064 -0.0243
10429TIP3   OH252777   1.718   6.314  15.983 -0.0362  0.1917  0.7306
10429TIP3    H152778   1.659   6.260  15.932 -1.0198  2.7135 -1.0265
10429TIP3    H252779   1.806   6.295  15.949 -0.2428 -0.9299  0.8138
10430TIP3   OH252780   1.338   4.305   6.055  0.5587  0.6530 -0.1430
10430TIP3    H152781   1.252   4.264   6.065  0.2221  1.0657 -1.2902
10430TIP3    H252782   1.354   4.345   6.140  1.0037 -1.9684  1.1358
10431TIP3   OH252783   6.509   5.325  12.569 -0.0145  0.2664 -0.6943
10431TIP3    H152784   6.504   5.263  12.497  0.0647 -0.5768  0.0060
10431TIP3    H252785   6.420   5.329  12.604  0.1171  0.0555 -0.3349
10432TIP3   OH252786   1.313   4.987  14.078  0.1552 -0.9680 -0.4837
10432TIP3    H152787   1.369   5.031  14.014  1.4443  0.2933  1.3862
10432TIP3    H252788   1.334   4.895  14.069  3.2266 -0.4986  0.6371
10433TIP3   OH252789   0.996   1.691  11.532  0.0180 -0.0106 -0.5745
10433TIP3    H152790   1.074   1.743  11.516  0.4116 -0.6781 -0.9061
10433TIP3    H252791   0.961   1.722  11.615  0.5005  0.4574 -0.5494
10434TIP3   OH252792   5.430   5.073   1.848  0.3153 -0.0158  0.1775
10434TIP3    H152793   5.387   4.999   1.805 -1.2409  0.5473  0.6761
10434TIP3    H252794   5.421   5.054   1.942 -1.4509  1.4587  0.3721
10435TIP3   OH252795   3.057   0.785   1.382  0.8514 -0.4043 -0.4855
10435TIP3    H152796   2.968   0.769   1.413 -0.0976  0.5592 -2.5673
10435TIP3    H252797   3.078   0.709   1.327  0.5460  0.2584 -1.5447
10436TIP3   OH252798   3.737   4.090  16.363  0.3538  0.2094 -0.0542
10436TIP3    H152799   3.648   4.120  16.340  0.0720 -1.1342 -0.7909
10436TIP3    H252800   3.724   4.034  16.439  0.3710 -1.1298 -1.0150
10437TIP3   OH252801   3.042   1.507  16.190 -0.6347 -0.2904 -0.6209
10437TIP3    H152802   2.989   1.583  16.211  1.6107  0.8454  1.4721
10437TIP3    H252803   3.020   1.442  16.257  0.9994  0.4380  0.6770
10438TIP3   OH252804   5.076   0.996  17.018 -0.2613  0.5701  0.8151
10438TIP3    H152805   5.073   1.092  17.016 -2.1516  0.6182  2.8567
10438TIP3    H252806   4.984   0.969  17.018  0.2223 -1.1909  1.8762
10439TIP3   OH252807   1.185   1.668   2.298  0.1803  0.3713 -0.0766
10439TIP3    H152808   1.128   1.745   2.291  0.3132  0.7019  1.8342
10439TIP3    H252809   1.271   1.704   2.319  0.3522 -0.2729  0.3484
10440TIP3   OH252810   1.251   5.065  15.652 -0.4060  0.3479 -0.3063
10440TIP3    H152811   1.252   5.152  15.692  1.3154  0.4119 -0.4455
10440TIP3    H252812   1.316   5.015  15.701 -2.2820 -1.3075  0.6470
10441TIP3   OH252813   6.019   1.506   2.252 -0.1369 -0.1729 -0.0050
10441TIP3    H152814   6.075   1.430   2.237 -1.6446 -0.9390 -2.0917
10441TIP3    H252815   5.999   1.540   2.165 -2.5704  0.3191  0.6752
10442TIP3   OH252816   5.008   2.240   3.316 -0.4118  0.1516 -0.4375
10442TIP3    H152817   5.011   2.211   3.224 -1.1713  0.0027 -0.4215
10442TIP3    H252818   4.939   2.188   3.355  1.6810 -1.7604  0.9369
10443TIP3   OH252819   3.188   4.853  16.379 -0.3050 -0.0151 -0.1262
10443TIP3    H152820   3.203   4.939  16.418 -0.0206  1.3270 -2.9062
10443TIP3    H252821   3.184   4.870  16.285 -0.2977 -3.0639 -0.7905
10444TIP3   OH252822   2.934   1.379  15.900  0.0449 -0.0389 -0.2164
10444TIP3    H152823   2.865   1.336  15.951  0.6064  0.0060  0.5976
10444TIP3    H252824   2.975   1.440  15.961  1.5579 -0.8868 -0.3235
10445TIP3   OH252825   0.157   2.172   1.491  0.3291  0.3523 -0.1721
10445TIP3    H152826   0.235   2.152   1.439  0.1951 -1.0411  0.1429
10445TIP3    H252827   0.124   2.087   1.519 -0.3940  1.0107  1.0447
10446TIP3   OH252828   6.409   4.129  15.342  0.0680  0.2674 -0.0480
10446TIP3    H152829   6.460   4.049  15.328  2.0779  1.5496 -0.4807
10446TIP3    H252830   6.402   4.169  15.256 -0.3350  0.8870  0.2636
10447TIP3   OH252831   6.717   4.704   5.122 -0.9932  0.2504  0.0160
10447TIP3    H152832   6.795   4.746   5.158 -1.5366  0.8246  0.5575
10447TIP3    H252833   6.750   4.648   5.052 -0.1165  0.6351  0.1054
10448TIP3   OH252834   2.241   1.345   4.483  0.2474 -0.1223 -0.3205
10448TIP3    H152835   2.243   1.269   4.425  2.5514 -0.6653  0.3802
10448TIP3    H252836   2.333   1.370   4.494 -0.3757  2.1102  0.3380
10449TIP3   OH252837   3.276   1.422  15.107 -0.1411  0.6422 -0.1546
10449TIP3    H152838   3.307   1.491  15.049  0.3410  0.9089  0.4130
10449TIP3    H252839   3.214   1.465  15.166 -0.4651  0.4149 -0.3188
10450TIP3   OH252840   2.344   3.914   5.107 -0.7476 -0.2171  0.1665
10450TIP3    H152841   2.356   3.921   5.202 -0.0198  0.9558  0.0027
10450TIP3    H252842   2.301   3.997   5.083  1.0542  0.4675 -0.8215
10451TIP3   OH252843   1.598   2.969   2.324  0.3505  1.0812  0.1061
10451TIP3    H152844   1.616   2.899   2.387 -0.6280  0.6001 -0.1365
10451TIP3    H252845   1.656   3.041   2.351  1.6407  0.0692  0.1457
10452TIP3   OH252846   0.134   4.727  11.224  0.1530 -0.2660  0.6895
10452TIP3    H152847   0.202   4.724  11.157  0.2793  0.2697  0.7877
10452TIP3    H252848   0.058   4.687  11.183 -0.0527  0.8853 -0.1114
10453TIP3   OH252849   1.154   4.989   4.146 -0.0098 -0.2153  0.5037
10453TIP3    H152850   1.091   4.916   4.146 -1.0912  0.6845 -0.0714
10453TIP3    H252851   1.161   5.015   4.055  0.0259  0.6670  0.7450
10454TIP3   OH252852   1.790   4.560  15.073 -0.1569  0.5048  0.8935
10454TIP3    H152853   1.721   4.618  15.105  0.4832  0.9325  1.5014
10454TIP3    H252854   1.836   4.611  15.006  0.7169  0.8969  1.7728
10455TIP3   OH252855   4.290   3.350  14.362 -0.0301 -0.0436  0.2350
10455TIP3    H152856   4.270   3.358  14.456  0.2220 -1.7120  0.4519
10455TIP3    H252857   4.306   3.440  14.334  0.5975  0.4342  1.9597
10456TIP3   OH252858   4.783   6.791   4.750 -0.2967 -0.1543  1.2940
10456TIP3    H152859   4.847   6.738   4.703  1.8829  2.1077  1.4557
10456TIP3    H252860   4.700   6.775   4.706  0.9681 -0.9174 -0.9409
10457TIP3   OH252861   2.667   1.537  13.397 -0.5994  0.4712 -0.5226
10457TIP3    H152862   2.722   1.570  13.326  0.9616  0.0049  0.4316
10457TIP3    H252863   2.714   1.460  13.430 -3.3014 -1.8104 -1.6103
10458TIP3   OH252864   2.778   5.802   4.506  0.3896 -0.2068  0.1886
10458TIP3    H152865   2.684   5.819   4.508  0.4547  0.1780  0.0348
10458TIP3    H252866   2.786   5.717   4.462  0.1942  0.3940 -1.0265
10459TIP3   OH252867   6.532   0.071   0.717  0.5236 -0.1884 -0.4400
10459TIP3    H152868   6.604   0.061   0.780 -0.6585  0.4617  1.0710
10459TIP3    H252869   6.567   0.129   0.649  2.1346 -1.6431 -0.9319
10460TIP3   OH252870   6.648   3.577  14.132 -0.1325  0.3486 -0.1997
10460TIP3    H152871   6.742   3.574  14.149 -0.1896 -2.0971  0.0493
10460TIP3    H252872   6.637   3.648  14.069  1.5341  2.2453  1.5152
10461TIP3   OH252873   6.571   5.666  11.587 -0.1315  0.3827 -0.4014
10461TIP3    H152874   6.641   5.730  11.574 -0.6627  1.5878  2.0938
10461TIP3    H252875   6.542   5.681  11.677 -2.6042 -1.0853 -0.8842
10462TIP3   OH252876   0.358   6.073  11.998 -0.6716 -0.3628 -0.1495
10462TIP3    H152877   0.320   6.161  12.001 -1.2296 -0.3757 -3.6121
10462TIP3    H252878   0.395   6.065  11.910  1.5992 -2.7508  0.8833
10463TIP3   OH252879   1.323   4.621   4.849  0.3133  0.2333  0.2137
10463TIP3    H152880   1.396   4.568   4.880  0.4110  0.0611 -0.2982
10463TIP3    H252881   1.364   4.695   4.803  0.1894  1.0393  1.3508
10464TIP3   OH252882   0.535   2.855  13.454  0.0323 -0.3409 -0.3558
10464TIP3    H152883   0.583   2.922  13.405 -1.0326  2.1745  1.7697
10464TIP3    H252884   0.443   2.872  13.435 -0.5411  1.5672  3.1615
10465TIP3   OH252885   2.125   6.078   0.895 -0.4116  0.3115 -0.3061
10465TIP3    H152886   2.071   6.013   0.940 -0.6896  1.1024  0.5328
10465TIP3    H252887   2.187   6.108   0.961  0.0839  0.4896 -0.8434
10466TIP3   OH252888   4.191   5.241   2.877 -0.3191  0.5188  0.2763
10466TIP3    H152889   4.128   5.228   2.805 -1.7059 -0.2138  1.5601
10466TIP3    H252890   4.198   5.155   2.918  1.6698  0.5619  0.0886
10467TIP3   OH252891   0.966   5.301   3.572 -0.4054 -0.4708  0.2179
10467TIP3    H152892   1.048   5.318   3.620 -0.9709  0.7023  0.8025
10467TIP3    H252893   0.940   5.214   3.602 -0.4236 -0.0166  1.6145
10468TIP3   OH252894   1.226   5.164   5.201  0.5134  0.3456 -0.2686
10468TIP3    H152895   1.290   5.219   5.157  1.3452 -1.4292 -1.3658
10468TIP3    H252896   1.186   5.222   5.267  1.0160  2.3566 -1.6415
10469TIP3   OH252897   5.716   2.460  10.435  0.6246  0.2579 -0.7279
10469TIP3    H152898   5.744   2.440  10.524 -1.3743  0.4218 -0.0298
10469TIP3    H252899   5.755   2.391  10.381 -0.3173 -1.4267  0.6470
10470TIP3   OH252900   4.359   6.206   2.954  0.5319  0.0549  0.4215
10470TIP3    H152901   4.442   6.252   2.945  1.1506 -1.2306 -0.9971
10470TIP3    H252902   4.298   6.255   2.899  1.2622 -0.9053 -1.3275
10471TIP3   OH252903   2.401   4.735  16.357 -0.2573  0.3382 -0.0638
10471TIP3    H152904   2.420   4.809  16.300  3.6675  0.8655  1.6158
10471TIP3    H252905   2.460   4.666  16.328 -1.1988 -0.8483  0.7453
10472TIP3   OH252906   6.716   3.555  17.008  0.3787  0.0958 -0.0146
10472TIP3    H152907   6.713   3.480  17.068  1.1127 -0.2707 -0.4199
10472TIP3    H252908   6.690   3.519  16.923 -1.2413  0.7364  0.1627
10473TIP3   OH252909   1.116   5.446  11.866 -0.6064 -0.3241 -0.5686
10473TIP3    H152910   1.022   5.432  11.879 -0.6485  1.0290  0.9481
10473TIP3    H252911   1.124   5.540  11.855  0.4927 -0.5327 -1.6758
10474TIP3   OH252912   4.453   5.729  13.674 -0.0003 -0.3268 -0.7250
10474TIP3    H152913   4.536   5.709  13.631 -0.4294 -1.5516 -1.0071
10474TIP3    H252914   4.387   5.682  13.623 -0.8961  0.7096 -0.5693
10475TIP3   OH252915   4.866   4.993   6.288 -0.6301 -0.5236  0.3713
10475TIP3    H152916   4.898   4.989   6.378 -1.7246 -1.1238  0.7571
10475TIP3    H252917   4.787   5.048   6.293 -0.3452 -0.0323 -0.3400
10476TIP3   OH252918   6.329   4.058   4.411 -0.3494  0.3201 -0.2666
10476TIP3    H152919   6.351   4.145   4.380  1.5445 -0.1727 -0.4620
10476TIP3    H252920   6.294   4.013   4.334 -2.1498  1.1148  0.0369
10477TIP3   OH252921   2.057   2.296  13.449  0.2922 -0.2710 -0.9221
10477TIP3    H152922   2.063   2.277  13.543  0.7985 -0.9937 -1.0912
10477TIP3    H252923   2.021   2.216  13.412  1.9891 -0.7549 -1.6020
10478TIP3   OH252924   5.831   3.226   5.163 -0.0094 -0.6090  0.2896
10478TIP3    H152925   5.923   3.217   5.190  0.2864  0.9268 -0.1192
10478TIP3    H252926   5.793   3.288   5.225 -0.3476 -0.0470 -0.4518
10479TIP3   OH252927   6.134   3.276  13.960 -0.2363  0.8274 -0.2762
10479TIP3    H152928   6.178   3.228  14.031  1.8173  1.2376 -1.1900
10479TIP3    H252929   6.041   3.259  13.973  0.3090 -3.6834 -0.6972
10480TIP3   OH252930   2.697   1.903   3.525  0.8246 -0.1684 -0.4657
10480TIP3    H152931   2.653   1.824   3.554  0.9123 -0.2031 -0.4270
10480TIP3    H252932   2.790   1.881   3.526  0.9602  0.3773  0.8946
10481TIP3   OH252933   2.326   1.933  11.133  0.2220 -0.5075  0.1824
10481TIP3    H152934   2.416   1.935  11.102  0.2669 -0.2830  0.3243
10481TIP3    H252935   2.316   2.014  11.183  0.2735 -1.0569  1.0968
10482TIP3   OH252936   5.547   4.618  13.034 -0.4093 -0.2038  0.1549
10482TIP3    H152937   5.593   4.547  12.989 -0.8355  0.6976 -1.8176
10482TIP3    H252938   5.614   4.685  13.048 -0.7057  0.3685 -1.0744
10483TIP3   OH252939   2.614   0.229  12.760 -0.5774 -0.9101  0.2520
10483TIP3    H152940   2.594   0.247  12.668 -0.2162 -1.5692  0.0404
10483TIP3    H252941   2.538   0.179  12.792 -1.1132  0.0815  0.5636
10484TIP3   OH252942   3.046   6.084   1.533 -0.2955  0.4855  0.2187
10484TIP3    H152943   3.015   5.993   1.524  1.0302  0.0601 -0.2118
10484TIP3    H252944   2.988   6.134   1.476 -0.0635 -0.3240 -0.7600
10485TIP3   OH252945   3.242   2.347  14.977 -0.6630 -0.0582  0.3755
10485TIP3    H152946   3.218   2.255  14.963 -0.9173  0.2963 -1.9918
10485TIP3    H252947   3.218   2.391  14.895 -0.5927  2.1534  1.4582
10486TIP3   OH252948   5.265   3.884  12.218 -0.4863 -0.8330  0.4172
10486TIP3    H152949   5.298   3.944  12.151  0.7312 -1.0436  0.7872
10486TIP3    H252950   5.275   3.797  12.180 -0.8451 -0.8849  0.4435
10487TIP3   OH252951   0.888   2.405  14.163 -0.5090  0.1376  0.2895
10487TIP3    H152952   0.858   2.496  14.164 -2.1339 -0.3288 -0.6640
10487TIP3    H252953   0.968   2.406  14.111 -1.1296  0.9000 -0.6950
10488TIP3   OH252954   1.920   5.134  14.277 -0.1032 -0.5334  0.0147
10488TIP3    H152955   1.833   5.169  14.294 -0.5022 -1.4284 -0.0825
10488TIP3    H252956   1.965   5.137  14.362 -0.5578 -0.9257  0.2750
10489TIP3   OH252957   0.095   3.082   4.821  0.4015 -0.3019 -0.2232
10489TIP3    H152958   0.114   3.041   4.737 -0.4683 -0.6116 -0.2700
10489TIP3    H252959   0.131   3.022   4.886 -0.8590 -1.1689 -0.2884
10490TIP3   OH252960   6.526   4.850  14.054 -0.3162 -0.0877 -0.0473
10490TIP3    H152961   6.586   4.831  14.125  0.9926 -0.4536 -1.2158
10490TIP3    H252962   6.516   4.945  14.056  0.3198 -0.0209  0.1444
10491TIP3   OH252963   4.201   6.578   0.116  0.7212 -0.3497  0.1684
10491TIP3    H152964   4.233   6.498   0.158  0.2365 -1.6735 -1.8478
10491TIP3    H252965   4.118   6.596   0.161  0.5649 -1.2989  0.2950
10492TIP3   OH252966   4.234   4.087   3.676 -0.1704 -0.5036 -0.3634
10492TIP3    H152967   4.149   4.130   3.688  0.3855  0.3408  0.7252
10492TIP3    H252968   4.279   4.140   3.611  0.1997  0.1033  0.3768
10493TIP3   OH252969   0.315   1.177  15.763  0.4048  0.3035  0.2167
10493TIP3    H152970   0.305   1.233  15.686  3.3091  0.3042 -0.2715
10493TIP3    H252971   0.317   1.088  15.728  1.5502  0.2931  0.2662
10494TIP3   OH252972   0.897   4.654  13.112  0.1144 -0.1751 -0.1430
10494TIP3    H152973   0.915   4.679  13.202  1.0303  1.2896 -0.7045
10494TIP3    H252974   0.983   4.644  13.071 -0.2697 -1.9668 -0.5744
10495TIP3   OH252975   3.828   4.369  13.984  0.7693 -0.0072 -0.6649
10495TIP3    H152976   3.896   4.312  14.021  0.5536 -0.8052 -1.4594
10495TIP3    H252977   3.794   4.320  13.909  0.3997  1.0690 -1.2200
10496TIP3   OH252978   0.463   6.301  13.976 -0.1465  0.1493 -0.0982
10496TIP3    H152979   0.541   6.335  13.931 -1.9019  2.0223 -1.9255
10496TIP3    H252980   0.425   6.238  13.915 -1.3102  0.9898 -0.2699
10497TIP3   OH252981   5.476   0.549  13.820 -0.3334 -0.2616 -0.5724
10497TIP3    H152982   5.458   0.495  13.743 -0.9260 -1.9917  0.7041
10497TIP3    H252983   5.571   0.558  13.820 -0.2942 -0.5690 -1.3034
10498TIP3   OH252984   5.339   2.551  16.833  1.2383 -0.1148 -0.1957
10498TIP3    H152985   5.371   2.528  16.920  1.0480 -2.8066 -0.7439
10498TIP3    H252986   5.385   2.490  16.774 -0.4168  0.0111 -1.6981
10499TIP3   OH252987   6.490   5.130  15.164 -0.0207  0.0344 -0.0977
10499TIP3    H152988   6.568   5.157  15.214  0.9170 -0.9711 -0.9889
10499TIP3    H252989   6.425   5.197  15.185  0.7903  0.4162  1.3647
10500TIP3   OH252990   0.940   0.922   0.616 -0.1914 -0.4770 -0.1153
10500TIP3    H152991   1.032   0.938   0.638  0.5026 -0.8600 -2.4046
10500TIP3    H252992   0.903   1.009   0.603 -0.3686 -0.2904  1.4361
10501TIP3   OH252993   1.666   6.561   0.026 -0.1097  0.6134 -0.3240
10501TIP3    H152994   1.655   6.573   0.121 -0.0722 -0.2149 -0.2060
10501TIP3    H252995   1.591   6.605  -0.013 -1.0319 -0.4492  0.1833
10502TIP3   OH252996   6.018   4.195  10.751 -0.3419  0.2132  0.3879
10502TIP3    H152997   6.069   4.276  10.750  0.9122 -0.5218  1.1253
10502TIP3    H252998   5.927   4.224  10.746  0.1095  1.5991 -0.5710
10503TIP3   OH252999   0.560   5.576   4.422  0.5862  0.4203  0.3481
10503TIP3    H153000   0.544   5.628   4.343 -3.6909  0.2514  0.8287
10503TIP3    H253001   0.562   5.485   4.392  0.9430  0.4592  0.2501
10504TIP3   OH253002   3.051   4.746   4.982 -0.0456  0.5032  0.0875
10504TIP3    H153003   3.096   4.812   5.035 -0.5559 -0.4411  1.7895
10504TIP3    H253004   2.964   4.782   4.968  0.2070  0.9189 -0.4444
10505TIP3   OH253005   2.709   4.130   4.250 -0.9190  0.6123  0.5169
10505TIP3    H153006   2.784   4.088   4.292 -0.4430 -1.4854 -2.1641
10505TIP3    H253007   2.725   4.224   4.261  1.7825  0.2205  0.5867
10506TIP3   OH253008   4.311   0.655   3.955 -0.3120 -0.2597  0.1513
10506TIP3    H153009   4.216   0.647   3.950 -0.3586  0.1857  0.3185
10506TIP3    H253010   4.340   0.571   3.990 -0.5484 -0.7981 -0.9028
10507TIP3   OH253011   4.870   0.879   1.577  0.2885  0.1676 -0.3600
10507TIP3    H153012   4.786   0.845   1.607 -0.0762  0.8237 -0.6144
10507TIP3    H253013   4.930   0.806   1.586 -0.1663 -0.1230  0.4408
10508TIP3   OH253014   5.655   0.618   0.516 -0.1663 -0.3061 -0.0532
10508TIP3    H153015   5.709   0.681   0.564 -1.0866  0.2059  0.3393
10508TIP3    H253016   5.608   0.672   0.451 -0.1828 -0.7470 -0.4118
10509TIP3   OH253017   3.118   0.968  10.591 -0.7921 -0.1974 -0.0910
10509TIP3    H153018   3.117   0.873  10.584  1.7291 -0.2032 -1.4632
10509TIP3    H253019   3.036   0.996  10.549 -0.6615 -1.7034 -1.4578
10510TIP3   OH253020   5.669   0.733   4.343  0.1608  0.6386 -0.0714
10510TIP3    H153021   5.735   0.768   4.402  0.3585 -0.0373  0.1217
10510TIP3    H253022   5.613   0.808   4.322  0.4380  1.0138  0.4997
10511TIP3   OH253023   3.201   0.944  14.899 -0.0181  0.2235  0.1714
10511TIP3    H153024   3.161   0.912  14.981 -0.3357 -0.5073 -0.2595
10511TIP3    H253025   3.203   1.039  14.910  1.0698  0.0812  1.5403
10512TIP3   OH253026   6.797   3.380  12.205 -0.5866 -0.2087 -0.3760
10512TIP3    H153027   6.869   3.348  12.260 -0.9011  1.2183  0.9691
10512TIP3    H253028   6.825   3.468  12.179 -0.1199 -1.1130 -3.2143
10513TIP3   OH253029   4.490   5.614  16.103 -0.1465  0.2265  0.1736
10513TIP3    H153030   4.439   5.539  16.135 -0.0634 -0.3321 -0.9518
10513TIP3    H253031   4.434   5.655  16.038  0.6722 -0.1529 -0.7843
10514TIP3   OH253032   1.878   5.861   2.674 -0.4157 -0.3493  0.0815
10514TIP3    H153033   1.973   5.850   2.679 -0.5208 -4.1402 -2.5230
10514TIP3    H253034   1.862   5.897   2.587 -1.3856 -0.0304  0.3791
10515TIP3   OH253035   2.811   1.051   4.982  0.0129 -0.3167  0.2658
10515TIP3    H153036   2.724   1.088   4.993  0.3778  0.3970  0.8325
10515TIP3    H253037   2.838   1.078   4.894  0.5116  1.3173  0.8856
10516TIP3   OH253038   4.996   0.024   1.947  0.2951  0.0814  0.0028
10516TIP3    H153039   4.923   0.059   1.998 -0.0975 -0.7583  0.0373
10516TIP3    H253040   4.989  -0.071   1.957  1.2616 -0.0240 -0.1809
10517TIP3   OH253041   6.498   1.062  15.334  0.1252 -0.0428  0.0360
10517TIP3    H153042   6.472   1.010  15.258  3.8150  0.2216 -1.6184
10517TIP3    H253043   6.545   1.000  15.390  0.2601  0.4590  0.4827
10518TIP3   OH253044   0.603   4.982   4.057 -0.0573  0.1309  0.0078
10518TIP3    H153045   0.547   4.980   3.978 -0.7797 -0.7129  0.5173
10518TIP3    H253046   0.601   5.073   4.085  0.9243  0.6315 -1.4351
10519TIP3   OH253047   6.184   5.786  12.847  0.5234  0.3750  0.7015
10519TIP3    H153048   6.258   5.775  12.787  0.2824 -2.0649  0.7630
10519TIP3    H253049   6.122   5.718  12.822 -0.8384  1.1136  1.9255
10520TIP3   OH253050   6.138   5.298  11.704  0.2944  0.2797  0.2319
10520TIP3    H153051   6.091   5.214  11.705  0.2498  0.3017  0.0687
10520TIP3    H253052   6.078   5.360  11.745  0.0656  0.3664 -0.2264
10521TIP3   OH253053   6.753   3.483   1.954 -0.0176  0.1286  0.0924
10521TIP3    H153054   6.821   3.477   1.887 -0.4375  0.7942 -0.4010
10521TIP3    H253055   6.703   3.562   1.931 -2.9557 -1.9666 -1.5015
10522TIP3   OH253056   1.461   2.701  14.671  0.0051 -0.0840  0.3103
10522TIP3    H153057   1.486   2.672  14.758  0.6801 -1.0915 -0.2006
10522TIP3    H253058   1.464   2.796  14.675  0.2028 -0.1262  1.3283
10523TIP3   OH253059   6.400   5.923   4.527  0.3763  0.6771  0.7822
10523TIP3    H153060   6.312   5.931   4.490  0.5884  1.6778  0.4521
10523TIP3    H253061   6.401   5.837   4.568 -0.7525  0.6449  0.7795
10524TIP3   OH253062   3.200   1.464   3.440  0.0958  0.0762  0.2976
10524TIP3    H153063   3.269   1.451   3.375 -0.6146 -0.0746 -0.4346
10524TIP3    H253064   3.158   1.379   3.448  0.1126  0.1168  0.8978
10525TIP3   OH253065   3.780   0.531   2.785 -0.0495  0.1265  0.2459
10525TIP3    H153066   3.793   0.437   2.797 -2.0257 -0.0947  0.9961
10525TIP3    H253067   3.748   0.539   2.695 -1.8679 -0.1974  0.8231
10526TIP3   OH253068   1.586   2.324   0.199 -0.1042 -0.8045 -0.3227
10526TIP3    H153069   1.658   2.263   0.183  0.4648 -0.1991 -0.0921
10526TIP3    H253070   1.510   2.268   0.213  0.2731 -1.4458 -0.7892
10527TIP3   OH253071   4.113   3.226  16.849 -0.3979 -0.0643 -0.2065
10527TIP3    H153072   4.142   3.136  16.865 -1.4285 -0.3260  0.3213
10527TIP3    H253073   4.071   3.222  16.764  0.2948  0.1119 -0.5624
10528TIP3   OH253074   4.568   0.265  16.690  0.4345 -0.0524  0.4314
10528TIP3    H153075   4.660   0.283  16.706  0.4719 -0.7414  1.0419
10528TIP3    H253076   4.536   0.227  16.772 -0.0793 -0.9987 -0.1872
10529TIP3   OH253077   1.554   3.704  13.068 -0.3373  0.6817 -0.0228
10529TIP3    H153078   1.613   3.660  13.129 -2.0192 -1.9466 -0.1491
10529TIP3    H253079   1.566   3.659  12.984 -1.9720  0.5312 -0.2229
10530TIP3   OH253080   6.355   6.674  16.223  0.6182  0.4253  0.4179
10530TIP3    H153081   6.383   6.610  16.158  0.4839  0.8311 -0.0397
10530TIP3    H253082   6.425   6.673  16.289  0.0763 -1.0314  1.0245
10531TIP3   OH253083   3.776   4.337   3.592  0.4142  0.0422 -0.5090
10531TIP3    H153084   3.702   4.396   3.581 -0.3018 -0.9815 -1.4287
10531TIP3    H253085   3.787   4.296   3.505  0.9876 -1.0362  0.0467
10532TIP3   OH253086   6.333   4.582   4.406  0.2978 -0.1789  0.5597
10532TIP3    H153087   6.382   4.632   4.471  0.9449  0.0992 -0.1247
10532TIP3    H253088   6.336   4.636   4.327 -0.1877 -0.6654  0.1991
10533TIP3   OH253089   3.432   1.188  10.564 -0.0918  0.0817 -0.4184
10533TIP3    H153090   3.482   1.175  10.645  0.4308 -2.5248 -1.0719
10533TIP3    H253091   3.372   1.260  10.585  0.0378 -0.4710  2.2814
10534TIP3   OH253092   5.258   4.576   6.708 -0.4060  0.0811 -0.0988
10534TIP3    H153093   5.274   4.504   6.647 -1.4395 -0.2541  0.0102
10534TIP3    H253094   5.331   4.637   6.693  0.8141 -1.2529  0.2314
10535TIP3   OH253095   6.745   6.220  16.496 -0.3667 -0.4186  0.0600
10535TIP3    H153096   6.832   6.223  16.458 -0.5056 -2.9049 -0.6164
10535TIP3    H253097   6.688   6.260  16.431  0.0721  0.0129 -0.0647
10536TIP3   OH253098   0.457   5.126   0.394  0.4716 -0.7094  0.0623
10536TIP3    H153099   0.484   5.092   0.308 -1.6009 -2.1205 -0.0971
10536TIP3    H253100   0.486   5.217   0.393  0.8164 -0.7716 -2.0056
10537TIP3   OH253101   5.442   6.061   0.548 -0.6615  0.5093  0.3139
10537TIP3    H153102   5.361   6.052   0.599 -0.2273 -3.4791  0.6428
10537TIP3    H253103   5.412   6.077   0.459 -1.5222  4.1151  1.0962
10538TIP3   OH253104   0.850   4.626   2.052  0.6907  0.1728  0.3003
10538TIP3    H153105   0.842   4.551   1.992 -0.3968  0.5508 -0.0548
10538TIP3    H253106   0.882   4.588   2.134  0.5688 -0.6175 -0.0106
10539TIP3   OH253107   5.967   6.475  13.716 -0.4568 -0.3632  0.0130
10539TIP3    H153108   5.980   6.398  13.661  0.9465 -0.9964  1.1591
10539TIP3    H253109   5.944   6.439  13.802  2.8895  0.2529  1.3217
10540TIP3   OH253110   4.907   5.047   5.502  0.8324  0.7829 -0.2125
10540TIP3    H153111   4.846   5.103   5.550  0.2613 -0.2256  0.2934
10540TIP3    H253112   4.894   5.071   5.411 -0.2258  0.7153 -0.1022
10541TIP3   OH253113   0.900   4.668  15.735 -0.5692 -0.6997 -0.1480
10541TIP3    H153114   0.897   4.758  15.769  0.3250 -0.3412 -0.9635
10541TIP3    H253115   0.940   4.618  15.806 -0.7688 -0.3906  0.1890
10542TIP3   OH253116   2.358   6.592  14.250 -0.2576  0.9024 -0.4824
10542TIP3    H153117   2.343   6.681  14.284 -1.1037  0.8711 -0.7572
10542TIP3    H253118   2.336   6.535  14.324 -2.6187  0.8111 -1.1787
10543TIP3   OH253119   1.295   3.552   4.854 -0.0998 -0.0120 -0.0720
10543TIP3    H153120   1.286   3.636   4.809 -2.3085 -1.7011 -3.2217
10543TIP3    H253121   1.390   3.538   4.859  0.2976  1.4548 -2.0205
10544TIP3   OH253122   5.192   6.444   3.470  0.5679 -0.1591 -0.3418
10544TIP3    H153123   5.188   6.462   3.376  0.4014  0.5785 -0.1983
10544TIP3    H253124   5.271   6.391   3.480  0.5785 -0.2638 -0.9011
10545TIP3   OH253125   5.704   3.247  11.012  0.0820  0.0946  0.0320
10545TIP3    H153126   5.671   3.311  10.949 -0.3396 -0.4008 -0.2590
10545TIP3    H253127   5.666   3.274  11.096  1.0786  1.0769  0.1973
10546TIP3   OH253128   5.755   4.144  14.227 -0.0784 -0.1082 -0.4041
10546TIP3    H153129   5.662   4.139  14.208  0.0627  0.7002 -1.3853
10546TIP3    H253130   5.763   4.211  14.295 -0.2621 -0.5762  0.0801
10547TIP3   OH253131   2.400   1.506  13.698 -0.3700 -0.0352 -0.3435
10547TIP3    H153132   2.342   1.445  13.744 -1.2766  1.4921  0.6483
10547TIP3    H253133   2.362   1.515  13.611 -0.3306 -0.7378 -0.4353
10548TIP3   OH253134   3.867   2.202   1.159  0.3805 -0.1719 -0.2448
10548TIP3    H153135   3.882   2.162   1.074  1.1165  0.8210 -0.6002
10548TIP3    H253136   3.820   2.136   1.209  0.6494 -1.0663 -1.1548
10549TIP3   OH253137   5.973   0.854  15.553  0.8676 -0.2497 -0.7825
10549TIP3    H153138   6.058   0.859  15.510  0.8591  3.2075 -0.6790
10549TIP3    H253139   5.913   0.898  15.494 -0.0475  0.6607  0.7483
10550TIP3   OH253140   2.239   6.585   5.429 -0.0516 -0.8148  0.3008
10550TIP3    H153141   2.312   6.606   5.487 -0.9452  1.2613  0.7863
10550TIP3    H253142   2.270   6.511   5.376  1.8893 -0.8258  1.3588
10551TIP3   OH253143   2.692   6.178   2.797 -0.4781  0.1071  0.4199
10551TIP3    H153144   2.722   6.092   2.768 -0.9078  0.2935 -0.6200
10551TIP3    H253145   2.599   6.181   2.774 -0.3724  0.9977  0.0465
10552TIP3   OH253146   0.459   6.120   2.434  0.4054 -0.2124  0.3652
10552TIP3    H153147   0.497   6.044   2.392 -0.8179 -1.7314  1.8631
10552TIP3    H253148   0.505   6.127   2.518  1.5068  1.6174 -0.3270
10553TIP3   OH253149   1.304   4.519  12.255 -0.5046 -0.7387  0.5361
10553TIP3    H153150   1.293   4.433  12.295 -0.6912 -0.3044  1.4455
10553TIP3    H253151   1.260   4.512  12.170  1.8504 -2.3793 -0.6567
10554TIP3   OH253152   1.366   5.894   6.836 -0.2150 -0.1572  0.1671
10554TIP3    H153153   1.336   5.921   6.749 -0.1379  0.0572  0.2048
10554TIP3    H253154   1.320   5.813   6.853 -0.3261 -0.1357 -0.0229
10555TIP3   OH253155   1.217   0.712  15.182 -0.5282  0.4390 -0.1025
10555TIP3    H153156   1.290   0.771  15.198  0.4003 -0.7067 -0.0124
10555TIP3    H253157   1.202   0.719  15.087 -0.0344  0.3869 -0.1886
10556TIP3   OH253158   2.882   2.905   0.982  0.1596  0.1929 -0.0198
10556TIP3    H153159   2.914   2.990   1.011  0.4252  0.2969 -0.6065
10556TIP3    H253160   2.930   2.842   1.035  1.2227  0.3565 -0.7652
10557TIP3   OH253161   4.492   5.914  12.489  0.0784  0.6088 -0.3818
10557TIP3    H153162   4.513   5.901  12.582 -1.3491 -0.7987 -0.2145
10557TIP3    H253163   4.399   5.937  12.489  0.3711  1.8886 -1.4068
10558TIP3   OH253164   4.306   5.176  15.623 -0.2053 -0.5887  0.5573
10558TIP3    H153165   4.360   5.224  15.686 -0.2805 -0.6304  0.6541
10558TIP3    H253166   4.227   5.229  15.613 -1.2309 -1.6958  2.2438
10559TIP3   OH253167   4.402   6.746  16.552  0.0007 -0.1185 -0.3426
10559TIP3    H153168   4.493   6.771  16.542 -0.0745  0.0679 -0.5574
10559TIP3    H253169   4.401   6.690  16.630  0.6580 -1.9300 -1.5546
10560TIP3   OH253170   0.997   3.657  12.260 -0.3434 -0.2842 -0.3845
10560TIP3    H153171   1.030   3.672  12.171 -0.9756  2.9686 -0.2102
10560TIP3    H253172   1.022   3.736  12.308 -1.0174 -1.4528  2.0328
10561TIP3   OH253173   2.626   0.905  13.287  0.0293  0.2395 -0.3987
10561TIP3    H153174   2.551   0.859  13.325  0.8988 -0.1583  0.9021
10561TIP3    H253175   2.641   0.861  13.204  0.1006 -1.0902  0.2863
10562TIP3   OH253176   6.580   5.106  13.044 -0.1774  0.2426  0.2567
10562TIP3    H153177   6.639   5.072  12.977 -0.0058 -0.2673  0.6581
10562TIP3    H253178   6.631   5.102  13.125 -0.7542 -0.2187  0.6119
10563TIP3   OH253179   3.028   3.536  15.388  0.2819  0.1301  0.2806
10563TIP3    H153180   3.035   3.546  15.293  1.0393  5.6198  0.5731
10563TIP3    H253181   3.117   3.517  15.417  0.7942  1.9433  0.0011
10564TIP3   OH253182   6.335   2.899  16.915  0.4122  0.4785 -0.4119
10564TIP3    H153183   6.297   2.955  16.847 -1.6276 -0.8235 -0.4369
10564TIP3    H253184   6.264   2.885  16.978  1.6385 -0.0111  0.9334
10565TIP3   OH253185   6.626   3.971   2.071 -0.5739  0.1580 -0.5523
10565TIP3    H153186   6.631   3.983   2.166  1.0586  1.4646 -0.7677
10565TIP3    H253187   6.532   3.961   2.054 -1.0083  1.0529  1.0754
10566TIP3   OH253188   3.749   1.564  13.093 -0.1428  0.2277  0.0585
10566TIP3    H153189   3.695   1.489  13.118 -0.5711  1.1397  2.1582
10566TIP3    H253190   3.831   1.526  13.061 -1.1141 -1.1327 -0.9224
10567TIP3   OH253191   1.740   0.959  13.690  0.1179 -0.1467 -0.7995
10567TIP3    H153192   1.753   1.012  13.611  0.2961  0.3254 -0.4528
10567TIP3    H253193   1.674   1.006  13.740  0.1601 -0.3368 -0.5661
10568TIP3   OH253194   3.922   0.464   4.554  0.6435  0.5598  0.4819
10568TIP3    H153195   3.927   0.407   4.631 -0.1163  0.4719  0.4714
10568TIP3    H253196   3.851   0.525   4.573  0.9064  0.9814  0.1405
10569TIP3   OH253197   6.298   1.342  13.893 -0.5558 -0.4523  0.3062
10569TIP3    H153198   6.261   1.428  13.871 -0.2333 -0.3009  0.3465
10569TIP3    H253199   6.311   1.345  13.988 -2.4447 -1.3033  0.6260
10570TIP3   OH253200   2.159   6.339   3.076  0.2294 -0.3683 -0.1724
10570TIP3    H153201   2.193   6.385   3.152 -0.9462  1.8730 -0.9281
10570TIP3    H253202   2.113   6.264   3.111  0.6298  0.0234  1.2399
10571TIP3   OH253203   1.767   1.491   0.892 -0.6398  0.2974  0.0791
10571TIP3    H153204   1.856   1.460   0.876 -0.5644  0.6143 -0.1438
10571TIP3    H253205   1.732   1.432   0.958  0.2632  1.1045  1.3084
10572TIP3   OH253206   1.885   0.649  16.268 -0.3141  0.1961  0.3220
10572TIP3    H153207   1.980   0.637  16.276 -0.0217  1.3718 -0.9495
10572TIP3    H253208   1.848   0.589  16.332  1.2922 -0.2508  0.8897
10573TIP3   OH253209   0.413   1.976  15.760  0.5976  0.4359  0.2185
10573TIP3    H153210   0.360   1.995  15.837  2.0634  0.4339  1.2625
10573TIP3    H253211   0.434   2.062  15.723  1.0888  0.5139  0.6687
10574TIP3   OH253212   4.050   1.485   0.302 -0.3566 -0.1256  0.3548
10574TIP3    H153213   4.143   1.491   0.282 -0.2390  0.7301  1.1380
10574TIP3    H253214   4.042   1.512   0.393 -1.3408 -0.4649  0.3876
10575TIP3   OH253215   5.386   3.856  17.070 -0.4730  0.1269 -0.1242
10575TIP3    H153216   5.458   3.880  17.128 -0.9490  0.6041  0.2755
10575TIP3    H253217   5.320   3.818  17.128 -1.2476  1.2504 -0.2367
10576TIP3   OH253218   2.909   3.062   0.247 -0.1162 -0.0277 -0.0814
10576TIP3    H153219   2.936   2.974   0.220 -2.0360 -0.5512 -0.5006
10576TIP3    H253220   2.902   3.057   0.342  0.9945  0.0585  0.0100
10577TIP3   OH253221   6.163   6.624  13.594  0.1968 -0.1589  0.2971
10577TIP3    H153222   6.110   6.567  13.650 -0.1693  0.8717  1.0203
10577TIP3    H253223   6.172   6.575  13.512 -0.4507 -1.0730  0.7543
10578TIP3   OH253224   2.021   3.980   2.717  0.0023 -0.9833  0.5621
10578TIP3    H153225   2.074   4.040   2.769 -1.3843  0.8803 -0.0554
10578TIP3    H253226   1.955   3.948   2.779  0.8709 -2.0611  0.9441
10579TIP3   OH253227   3.677   3.051   1.118 -0.1352  0.3330 -0.2437
10579TIP3    H153228   3.717   3.115   1.059 -1.0800  1.2023  0.0357
10579TIP3    H253229   3.716   2.967   1.092 -1.1545  0.5382 -2.7202
10580TIP3   OH253230   6.539   3.241   0.881  0.2870 -0.8631  0.3205
10580TIP3    H153231   6.482   3.211   0.810  0.3725 -1.1228  0.3618
10580TIP3    H253232   6.495   3.319   0.915  0.5987 -0.3220 -0.4799
10581TIP3   OH253233   1.761   6.071   5.857  0.2769 -1.3728  0.0495
10581TIP3    H153234   1.752   6.109   5.769 -1.5970  0.0581  0.8096
10581TIP3    H253235   1.853   6.045   5.862  1.0442  0.7909 -1.4540
10582TIP3   OH253236   2.803   3.082   1.408 -0.1085  0.3524 -0.5907
10582TIP3    H153237   2.815   3.060   1.501 -0.9704  0.8717 -0.3427
10582TIP3    H253238   2.891   3.080   1.371  0.3316  0.7983  0.3929
10583TIP3   OH253239   6.745   0.018   0.907  0.6033 -0.3442 -0.1173
10583TIP3    H153240   6.758  -0.074   0.883 -1.2854 -0.6026 -0.3621
10583TIP3    H253241   6.779   0.024   0.996 -1.4348 -1.9710  0.8801
10584TIP3   OH253242   2.603   5.892   1.452  0.0441  0.1444  0.1044
10584TIP3    H153243   2.580   5.938   1.533 -2.2453 -0.5536 -0.0854
10584TIP3    H253244   2.686   5.849   1.471 -0.4759 -0.0571  2.1161
10585TIP3   OH253245   2.527   5.920  14.700  0.4946 -0.0999 -0.6049
10585TIP3    H153246   2.471   5.993  14.672 -1.4183 -0.2057  2.4900
10585TIP3    H253247   2.602   5.963  14.742 -1.0247  0.2204  1.9498
10586TIP3   OH253248   5.850   4.314  15.735 -0.0713 -0.0465 -0.1222
10586TIP3    H153249   5.776   4.257  15.755 -0.4410  0.8799  1.3372
10586TIP3    H253250   5.811   4.395  15.704  0.4528 -0.5513 -2.2201
10587TIP3   OH253251   1.796   1.561   2.762  0.0645  0.2601  0.6013
10587TIP3    H153252   1.871   1.512   2.794 -0.3103 -0.3114  0.6213
10587TIP3    H253253   1.757   1.505   2.695 -0.0956  0.7386  0.2883
10588TIP3   OH253254   4.426   2.739   3.272  0.0778  0.4593 -0.0293
10588TIP3    H153255   4.470   2.791   3.205  0.3155  0.7494  0.3432
10588TIP3    H253256   4.428   2.795   3.350 -1.1829  0.5828 -0.0659
10589TIP3   OH253257   2.975   4.513  13.998  0.4164 -0.2208 -0.6609
10589TIP3    H153258   2.954   4.512  14.092  1.6840 -3.7340 -0.2459
10589TIP3    H253259   3.025   4.594  13.986  1.1054 -0.1381  1.9680
10590TIP3   OH253260   5.168   6.350  15.824  0.4576  0.4354 -0.3293
10590TIP3    H153261   5.177   6.432  15.777 -0.9237  0.8136  0.0219
10590TIP3    H253262   5.074   6.342  15.841  0.7717 -0.2985  1.2600
10591TIP3   OH253263   2.145   0.783  10.824 -0.2701  0.3865  0.0276
10591TIP3    H153264   2.058   0.744  10.815 -0.4368  0.4824  1.0858
10591TIP3    H253265   2.129   0.867  10.867  0.3425  0.4256  0.1866
10592TIP3   OH253266   2.479   6.495   1.074 -0.1056 -0.2219  0.0573
10592TIP3    H153267   2.499   6.585   1.098 -0.1709 -0.3785  0.6969
10592TIP3    H253268   2.544   6.442   1.120 -0.0320 -0.5040 -0.3588
10593TIP3   OH253269   1.795   2.584   3.792 -0.0994  0.3094  0.4679
10593TIP3    H153270   1.885   2.585   3.760 -0.4966  1.6866 -0.7312
10593TIP3    H253271   1.787   2.664   3.844 -1.0680  1.0799 -0.8178
10594TIP3   OH253272   4.651   3.421   4.171 -0.6295  0.1662 -0.3499
10594TIP3    H153273   4.614   3.382   4.091 -0.2777  0.5306 -0.6933
10594TIP3    H253274   4.746   3.414   4.160 -0.5713 -0.8887  0.5906
10595TIP3   OH253275   6.339   2.135   0.154  0.2965  0.1573 -0.0514
10595TIP3    H153276   6.310   2.114   0.065 -0.4605  0.2671  0.1562
10595TIP3    H253277   6.410   2.198   0.142  1.0148 -0.7475 -0.6056
10596TIP3   OH253278   0.602   2.960  14.265 -0.2286  0.0713 -0.1344
10596TIP3    H153279   0.573   2.943  14.176 -1.1132 -0.5803  0.2686
10596TIP3    H253280   0.627   3.052  14.265  1.5061 -0.3577 -1.5078
10597TIP3   OH253281   1.403   2.789   3.628 -0.2331  1.0056 -0.2230
10597TIP3    H153282   1.359   2.715   3.670 -1.9592  1.0014 -1.8946
10597TIP3    H253283   1.489   2.756   3.603 -0.6422 -0.1537 -0.1453
10598TIP3   OH253284   5.098   3.124   3.761 -0.2626  0.4355  0.0130
10598TIP3    H153285   5.059   3.206   3.730 -0.9831  0.0757 -0.0539
10598TIP3    H253286   5.090   3.128   3.856  1.7803  1.4566  0.1846
10599TIP3   OH253287   4.742   0.851  11.811  0.2540  1.0037  0.1066
10599TIP3    H153288   4.837   0.848  11.819  0.4336  0.1362 -1.8240
10599TIP3    H253289   4.718   0.762  11.785 -0.8419  1.7343 -1.5188
10600TIP3   OH253290   0.468   2.538   1.778  0.1024  0.2681 -0.1733
10600TIP3    H153291   0.489   2.623   1.818  0.4697  0.1304 -0.0685
10600TIP3    H253292   0.553   2.495   1.769 -0.1627 -0.4206  0.5342
10601TIP3   OH253293   5.095   6.138  11.939  0.5132  0.2938 -0.0451
10601TIP3    H153294   5.021   6.100  11.892  1.3283 -1.9004  0.3276
10601TIP3    H253295   5.124   6.210  11.883  0.6069 -1.3705 -2.2876
10602TIP3   OH253296   2.590   4.535  16.260 -0.0514  0.0782  0.5245
10602TIP3    H153297   2.669   4.552  16.311  0.4226  0.3633 -0.2748
10602TIP3    H253298   2.587   4.440  16.250 -1.2969 -0.1951  2.8226
10603TIP3   OH253299   3.594   6.055  13.670 -0.1268  0.2976 -0.1859
10603TIP3    H153300   3.525   5.990  13.680 -1.1037  1.3163 -0.1984
10603TIP3    H253301   3.559   6.119  13.609 -0.1522  2.0710  1.5773
10604TIP3   OH253302   4.615   6.367   4.643  0.6868  0.2836  0.2271
10604TIP3    H153303   4.661   6.410   4.570  1.7635 -0.8053  0.2451
10604TIP3    H253304   4.684   6.327   4.695 -0.2314 -0.7282  0.6977
10605TIP3   OH253305   6.609   5.206  16.189  0.4037 -0.0254  0.6156
10605TIP3    H153306   6.575   5.120  16.214  0.5479 -0.1056  0.5372
10605TIP3    H253307   6.695   5.211  16.231 -0.8854  1.3989  3.3939
10606TIP3   OH253308   2.143   5.384  13.989  0.0109 -0.3148 -0.3145
10606TIP3    H153309   2.196   5.332  14.049 -0.8846 -1.7428 -0.6963
10606TIP3    H253310   2.054   5.351  14.002 -0.4140  0.3857 -1.3556
10607TIP3   OH253311   6.255   2.051   0.566  0.2644 -0.0117 -0.0488
10607TIP3    H153312   6.283   1.961   0.546  1.5223  0.6832 -1.6160
10607TIP3    H253313   6.314   2.106   0.515 -1.2514  1.6883 -0.0477
10608TIP3   OH253314   1.261   4.408  13.780  0.4424  0.0260  0.3337
10608TIP3    H153315   1.258   4.494  13.738 -0.9789  0.4458  1.2048
10608TIP3    H253316   1.299   4.350  13.714 -0.4301  0.9292 -1.0115
10609TIP3   OH253317   2.087   2.222  15.794 -0.2566  0.0362 -0.4348
10609TIP3    H153318   2.113   2.144  15.745  0.9596  0.3850 -0.3745
10609TIP3    H253319   2.152   2.288  15.772  0.2366  0.2708  1.4936
10610TIP3   OH253320   2.337   0.916   1.562  0.1993 -0.0305 -0.0537
10610TIP3    H153321   2.381   0.991   1.602 -1.3303  1.0927 -0.4268
10610TIP3    H253322   2.245   0.928   1.584 -0.3080 -0.8211 -1.6718
10611TIP3   OH253323   0.105   6.145   4.375 -1.0271 -0.2329  0.6939
10611TIP3    H153324   0.076   6.061   4.338  0.2119 -0.7528  0.8595
10611TIP3    H253325   0.153   6.187   4.303 -0.2267 -0.4157  1.1075
10612TIP3   OH253326   3.729   6.508   3.142  0.0092 -0.5197 -0.4032
10612TIP3    H153327   3.684   6.432   3.105 -0.3587  0.3430 -1.8239
10612TIP3    H253328   3.698   6.514   3.232 -0.6724 -1.5044 -0.5628
10613TIP3   OH253329   4.841   5.909   0.339 -0.3382  0.2501  0.0532
10613TIP3    H153330   4.749   5.905   0.365 -0.4698 -0.2069 -0.4578
10613TIP3    H253331   4.890   5.875   0.414 -0.4928  1.5612  0.7699
10614TIP3   OH253332   6.229   3.861   0.616  0.3639 -0.1127 -0.1270
10614TIP3    H153333   6.316   3.892   0.640 -0.2746  2.2044 -0.6019
10614TIP3    H253334   6.174   3.881   0.691  0.0297 -0.6455 -0.2225
10615TIP3   OH253335   3.027   1.137  13.611  0.0310  0.5675 -0.4420
10615TIP3    H153336   2.950   1.130  13.555  0.4953 -2.6518 -0.8850
10615TIP3    H253337   3.101   1.140  13.549  0.4088 -0.1945 -0.0389
10616TIP3   OH253338   4.230   3.344  14.022 -0.3105 -0.0159 -0.6585
10616TIP3    H153339   4.166   3.275  14.035 -1.2008  0.5199 -1.9891
10616TIP3    H253340   4.291   3.308  13.957 -0.5982  0.3106 -1.1183
10617TIP3   OH253341   3.034   0.547   4.700 -0.0474 -0.6236 -0.4281
10617TIP3    H153342   2.984   0.629   4.696 -0.0333 -0.4995  1.2232
10617TIP3    H253343   2.967   0.479   4.708 -0.0185 -0.6421 -0.3442
10618TIP3   OH253344   3.364   3.411  14.492 -0.1268 -0.2049 -0.1562
10618TIP3    H153345   3.276   3.445  14.506  0.4552  0.9538  0.9390
10618TIP3    H253346   3.358   3.318  14.512 -1.4847 -0.5516 -1.9415
10619TIP3   OH253347   3.051   3.186  15.610  0.0169  0.3523  0.0616
10619TIP3    H153348   3.059   3.095  15.583  1.4273  0.4467  0.1145
10619TIP3    H253349   3.131   3.228  15.579 -0.8682  1.7198 -0.4689
10620TIP3   OH253350   0.963   2.448  13.104 -0.1665 -0.2206  0.8337
10620TIP3    H153351   0.918   2.388  13.164  0.0390 -0.1396  1.0719
10620TIP3    H253352   1.055   2.446  13.133 -0.2233  0.5092  1.0980
10621TIP3   OH253353   6.047   1.188   1.449  0.6314 -0.6213 -0.1354
10621TIP3    H153354   6.025   1.151   1.534  1.7484  0.9467  0.8928
10621TIP3    H253355   6.142   1.200   1.451  0.7235 -0.8201 -1.7268
10622TIP3   OH253356   3.732   0.072  14.224 -0.7342  0.7885  0.0861
10622TIP3    H153357   3.786   0.018  14.167 -1.8255  0.1624 -0.3928
10622TIP3    H253358   3.644   0.034  14.218 -0.7395  0.1264  2.8816
10623TIP3   OH253359   2.714   5.818   5.634  0.1014 -1.0139 -0.3245
10623TIP3    H153360   2.750   5.740   5.592  0.5402 -0.3984 -1.1079
10623TIP3    H253361   2.772   5.889   5.607 -0.0886 -0.4629  0.6623
10624TIP3   OH253362   6.821   4.504  12.656  0.3121 -0.3601 -0.2277
10624TIP3    H153363   6.851   4.463  12.575  0.0281 -0.5016 -0.2630
10624TIP3    H253364   6.783   4.587  12.628  1.4322  0.2243 -0.0931
10625TIP3   OH253365   4.614   0.941   3.543 -0.5100  0.6049 -0.6167
10625TIP3    H153366   4.598   0.857   3.500 -1.9328  0.9842 -0.8853
10625TIP3    H253367   4.529   0.967   3.576  0.1885  1.2677  0.7561
10626TIP3   OH253368   1.384   4.813  14.561 -0.1292  0.2288 -0.2775
10626TIP3    H153369   1.469   4.850  14.535  0.1974 -1.3149 -1.5393
10626TIP3    H253370   1.352   4.770  14.482 -1.3731 -0.5504  0.6250
10627TIP3   OH253371   3.715   3.259  13.360  0.2568 -0.0128  0.4997
10627TIP3    H153372   3.684   3.344  13.329  0.9388  0.2897  0.6298
10627TIP3    H253373   3.809   3.272  13.374  0.6299 -1.1387 -0.7260
10628TIP3   OH253374   1.198   4.796   1.161 -0.3947  0.1838  0.3569
10628TIP3    H153375   1.185   4.830   1.072 -2.0468  0.0929  0.5289
10628TIP3    H253376   1.248   4.865   1.205  2.1281 -0.5773 -1.1115
10629TIP3   OH253377   5.373   5.802   5.306  0.2533 -0.0217  0.1601
10629TIP3    H153378   5.443   5.742   5.331  1.6670  1.2992 -0.4724
10629TIP3    H253379   5.412   5.889   5.314 -2.1207  0.9700  2.3288
10630TIP3   OH253380   6.215   3.971   6.212  0.3662 -0.3195 -0.0030
10630TIP3    H153381   6.158   3.908   6.168 -2.5989  1.1807  1.3628
10630TIP3    H253382   6.240   3.928   6.294 -0.8516 -0.1412  0.4843
10631TIP3   OH253383   1.009   4.297   1.469 -0.1959  0.0450  0.1475
10631TIP3    H153384   0.956   4.229   1.510  0.3740  0.6314  1.9584
10631TIP3    H253385   1.075   4.249   1.419  0.3431 -0.7557  1.5924
10632TIP3   OH253386   3.469   2.556   4.401 -0.0784 -0.0010  0.6976
10632TIP3    H153387   3.542   2.494   4.414  0.2917  0.2592 -0.1084
10632TIP3    H253388   3.425   2.558   4.486  2.0169  1.3430  1.8208
10633TIP3   OH253389   2.612   0.719  10.946 -0.0203 -0.3902  0.6166
10633TIP3    H153390   2.695   0.764  10.963 -1.3430  1.7375  1.8154
10633TIP3    H253391   2.600   0.726  10.852  0.3255  0.8446  0.6482
10634TIP3   OH253392   4.452   2.810  15.409  0.1491  0.2429 -0.1985
10634TIP3    H153393   4.472   2.832  15.318 -1.9156  0.2441 -0.6856
10634TIP3    H253394   4.538   2.809  15.452  1.0903  1.0904 -1.9377
10635TIP3   OH253395   4.804   2.786  11.171  0.3155  0.5420 -0.2011
10635TIP3    H153396   4.854   2.721  11.122 -0.4771 -0.4499  0.2692
10635TIP3    H253397   4.870   2.832  11.224  0.5332 -2.6319  2.5957
10636TIP3   OH253398   1.566   4.105   0.594 -0.1597  0.4726 -0.2962
10636TIP3    H153399   1.571   4.010   0.589 -0.7434  0.3906  0.4082
10636TIP3    H253400   1.517   4.131   0.516 -1.6016  0.0139  0.4077
10637TIP3   OH253401   0.568   0.034   4.671 -0.1023 -0.6539  0.0012
10637TIP3    H153402   0.486   0.005   4.711 -0.9567  2.1022  0.4473
10637TIP3    H253403   0.627   0.047   4.744 -0.4276  0.6888  0.0517
10638TIP3   OH253404   4.935   6.691   5.199 -0.5634  0.2177 -0.5724
10638TIP3    H153405   4.937   6.759   5.267  0.8075  1.1784 -1.5120
10638TIP3    H253406   4.999   6.626   5.229  0.0112  0.6212 -0.8973
10639TIP3   OH253407   2.431   2.939   2.196 -0.1074 -0.3544 -0.1253
10639TIP3    H153408   2.418   2.928   2.290  1.0181 -1.3728 -0.0562
10639TIP3    H253409   2.365   2.881   2.157  0.7179 -1.4893  0.1028
10640TIP3   OH253410   1.264   4.758  11.682  0.3497 -0.4754 -0.3457
10640TIP3    H153411   1.184   4.800  11.715 -0.5982 -1.6518 -1.0592
10640TIP3    H253412   1.303   4.823  11.624 -0.4086 -0.1038 -0.4514
10641TIP3   OH253413   3.139   2.235  17.013  0.1861 -0.1187  0.1396
10641TIP3    H153414   3.061   2.259  16.962  0.1476  1.3793  0.8547
10641TIP3    H253415   3.200   2.200  16.947 -0.4833  0.2383 -0.6953
10642TIP3   OH253416   6.457   4.369  15.490 -0.0367 -0.8138  0.6563
10642TIP3    H153417   6.515   4.321  15.549  0.7485 -1.7540 -0.8036
10642TIP3    H253418   6.410   4.301  15.442  0.7464 -0.1537 -1.1312
10643TIP3   OH253419   5.576   0.732   1.731  0.2863 -0.0717 -0.5827
10643TIP3    H153420   5.600   0.810   1.681 -1.0772  1.3605  0.8648
10643TIP3    H253421   5.640   0.729   1.802  0.5079 -0.4445 -0.7969
10644TIP3   OH253422   1.207   3.716  15.976  0.7274 -0.2897 -0.5469
10644TIP3    H153423   1.218   3.622  15.962 -0.3481 -0.3385 -1.1594
10644TIP3    H253424   1.220   3.754  15.889  2.0157  0.2311 -0.1480
10645TIP3   OH253425   6.285   3.550   3.394 -0.1926 -0.2940 -0.1629
10645TIP3    H153426   6.297   3.572   3.301 -1.6638 -1.0231 -0.5473
10645TIP3    H253427   6.212   3.605   3.422 -0.2543 -0.6351  0.3605
10646TIP3   OH253428   2.512   5.958  15.504 -0.5598  0.5757 -0.5492
10646TIP3    H153429   2.451   5.885  15.493 -1.1782  1.1632 -1.0418
10646TIP3    H253430   2.529   5.960  15.598 -1.5004  0.5605 -0.3682
10647TIP3   OH253431   4.245   5.586   4.395  0.3969 -0.2876  0.0861
10647TIP3    H153432   4.188   5.653   4.435  0.3743  0.5131 -1.2436
10647TIP3    H253433   4.185   5.518   4.366  0.3610 -0.6038  0.8756
10648TIP3   OH253434   0.793   3.185   3.904 -0.1619 -0.2752  0.2324
10648TIP3    H153435   0.829   3.231   3.828  0.7358 -1.2239  0.0656
10648TIP3    H253436   0.746   3.110   3.868  1.4306 -1.5216  0.6315
10649TIP3   OH253437   5.855   1.432   1.112 -0.3093  0.5700 -0.0333
10649TIP3    H153438   5.876   1.522   1.088  0.1379  0.7438  0.9747
10649TIP3    H253439   5.856   1.431   1.207  2.4420 -1.1071  0.0394
10650TIP3   OH253440   6.491   0.597   2.239 -0.2572  0.0882  0.0066
10650TIP3    H153441   6.399   0.572   2.247 -0.2733 -0.1997 -0.9556
10650TIP3    H253442   6.509   0.593   2.145  0.5473  0.8449  0.1162
10651TIP3   OH253443   2.224   2.448   1.869 -0.3586  0.1651  0.0906
10651TIP3    H153444   2.262   2.420   1.953 -0.2521 -2.5966 -0.7796
10651TIP3    H253445   2.215   2.367   1.819 -2.7253  1.4020 -1.6714
10652TIP3   OH253446   4.277   2.501  16.283  0.7735  1.0796  0.2747
10652TIP3    H153447   4.299   2.408  16.275 -0.1944  0.8125  0.5796
10652TIP3    H253448   4.298   2.538  16.197  0.5502  0.4446 -0.0613
10653TIP3   OH253449   3.586   5.269   5.527 -0.0657 -0.0368  0.4472
10653TIP3    H153450   3.511   5.235   5.478 -0.0559  0.2713  0.2178
10653TIP3    H253451   3.631   5.191   5.559  0.1957 -0.2543 -0.4385
10654TIP3   OH253452   1.690   4.445  15.898  0.0468 -1.1032 -0.0726
10654TIP3    H153453   1.761   4.466  15.838  0.4937 -0.7978  0.5477
10654TIP3    H253454   1.671   4.352  15.883 -0.9430 -0.6629 -1.8032
10655TIP3   OH253455   1.680   1.393   1.658 -0.0697  0.2227 -0.1370
10655TIP3    H153456   1.688   1.483   1.690 -1.4014  0.3789 -0.1892
10655TIP3    H253457   1.704   1.338   1.734 -1.5360  0.6096  0.6408
10656TIP3   OH253458   5.143   1.912   1.583  0.3220 -0.6085 -0.0412
10656TIP3    H153459   5.076   1.972   1.614  0.8640 -0.5699  1.1053
10656TIP3    H253460   5.110   1.825   1.604  0.5036 -0.6005  0.2922
10657TIP3   OH253461   2.978   3.110   2.850  0.5332  0.1777 -0.2679
10657TIP3    H153462   3.019   3.026   2.872  1.0685  0.0849 -1.5501
10657TIP3    H253463   3.046   3.159   2.803 -0.3196  0.6312 -1.0730
10658TIP3   OH253464   6.720   3.808  12.294 -0.1434 -0.3012  0.1727
10658TIP3    H153465   6.700   3.745  12.363 -1.6509 -0.4152 -0.3494
10658TIP3    H253466   6.641   3.812  12.241 -0.0687  1.9442  0.1220
10659TIP3   OH253467   3.541   3.468  12.042  0.4791  0.0938  0.7032
10659TIP3    H153468   3.551   3.544  12.100  0.5964  0.0019  0.8049
10659TIP3    H253469   3.546   3.393  12.101 -0.3302  0.0260  0.6948
10660TIP3   OH253470   0.476   0.387   2.336  0.1175  0.4469  0.0242
10660TIP3    H153471   0.543   0.374   2.269 -1.3842  1.5969 -1.7972
10660TIP3    H253472   0.456   0.481   2.331 -0.1499  0.5277  1.9980
10661TIP3   OH253473   5.478   6.523  16.821 -0.0417  0.0320 -0.5290
10661TIP3    H153474   5.549   6.461  16.805  0.7459  1.3485 -2.5598
10661TIP3    H253475   5.425   6.519  16.741 -0.8277  0.8737 -0.0642
10662TIP3   OH253476   1.394   4.455  13.426  0.0153  0.4494 -0.1826
10662TIP3    H153477   1.427   4.387  13.367 -1.1270  0.2088 -0.5629
10662TIP3    H253478   1.316   4.490  13.382  0.4177  1.8245  0.1321
10663TIP3   OH253479   0.415   2.753   2.117 -0.1597  0.1344  0.0265
10663TIP3    H153480   0.480   2.749   2.047  0.2411 -0.0116  0.4013
10663TIP3    H253481   0.336   2.714   2.078 -0.1124  0.5684 -0.5190
10664TIP3   OH253482   2.001   6.155   6.364 -0.1846  0.4359 -0.3945
10664TIP3    H153483   2.093   6.177   6.378  0.1280 -0.7349 -0.4994
10664TIP3    H253484   1.953   6.231   6.398  0.8001  0.9746 -0.1519
10665TIP3   OH253485   6.262   2.771   2.201  0.4992 -0.2278 -0.5907
10665TIP3    H153486   6.223   2.807   2.281  4.2386  0.5987  1.0797
10665TIP3    H253487   6.234   2.679   2.200  0.5066 -0.3095  1.7992
10666TIP3   OH253488   2.705   5.869  10.683 -0.0816 -0.2770  0.2781
10666TIP3    H153489   2.706   5.867  10.587 -1.5763  0.1360  0.2346
10666TIP3    H253490   2.722   5.960  10.706  1.1919 -0.5374  0.4537
10667TIP3   OH253491   1.112   0.765  11.989  0.3854  0.4380  0.1310
10667TIP3    H153492   1.152   0.771  11.903  0.2665 -0.1502  0.0326
10667TIP3    H253493   1.039   0.704  11.977 -0.8429  1.8405  0.1902
10668TIP3   OH253494   4.742   4.940   1.683  0.6124  0.7360 -0.0367
10668TIP3    H153495   4.680   4.893   1.626  1.8403 -2.7404  1.2165
10668TIP3    H253496   4.769   4.874   1.747  3.3061  2.9946  1.3259
10669TIP3   OH253497   3.231   6.353   1.049  0.0829 -0.6230 -0.6955
10669TIP3    H153498   3.179   6.273   1.051  1.4693 -1.5424  1.2787
10669TIP3    H253499   3.295   6.337   0.979  0.0922 -1.0700 -0.5911
10670TIP3   OH253500   6.397   4.594   3.221  0.1455 -0.1201  0.2673
10670TIP3    H153501   6.327   4.538   3.253 -0.5196  0.6348  0.1778
10670TIP3    H253502   6.452   4.609   3.298  0.8484 -1.5955  0.0903
10671TIP3   OH253503   5.128   3.059  12.898  0.2022 -0.3338  0.2091
10671TIP3    H153504   5.047   3.106  12.915  1.1877  1.5597 -0.0620
10671TIP3    H253505   5.177   3.067  12.980  0.5412 -0.5454  0.0268
10672TIP3   OH253506   4.904   6.078   2.447  0.1554 -0.2346 -0.1431
10672TIP3    H153507   4.893   6.144   2.378  1.7403 -1.2227 -1.4318
10672TIP3    H253508   4.819   6.073   2.490 -0.6679  0.9719 -1.5333
10673TIP3   OH253509   5.850   1.574  17.011 -0.3157 -0.2031 -0.2617
10673TIP3    H153510   5.920   1.549  16.951  1.1835  0.2249  1.2329
10673TIP3    H253511   5.831   1.494  17.060 -0.0833 -0.0294  0.1084
10674TIP3   OH253512   6.102   3.333   4.799 -0.1232 -0.4308  0.3214
10674TIP3    H153513   6.010   3.319   4.819  0.1359 -0.2116  1.7813
10674TIP3    H253514   6.148   3.302   4.877  1.1080 -1.3812 -0.7329
10675TIP3   OH253515   3.688   6.735  11.136 -0.1511 -0.0193  0.0857
10675TIP3    H153516   3.683   6.645  11.169 -0.9524 -0.2101 -0.5349
10675TIP3    H253517   3.775   6.740  11.095 -0.7729 -1.1064 -1.4979
10676TIP3   OH253518   5.498   2.251   5.771  0.0732 -0.0485  0.5996
10676TIP3    H153519   5.526   2.170   5.814 -1.1337 -0.2455  1.0336
10676TIP3    H253520   5.404   2.257   5.788 -0.4504 -0.0823 -1.9558
10677TIP3   OH253521   6.311   1.707  10.356 -0.1862 -0.4398  0.3519
10677TIP3    H153522   6.284   1.771  10.422  0.7234  1.0832 -0.6957
10677TIP3    H253523   6.336   1.760  10.280 -1.0470 -2.1202 -1.1747
10678TIP3   OH253524   1.028   1.895   2.286  0.4544  0.1545 -0.5375
10678TIP3    H153525   1.068   1.959   2.345  0.4806 -0.8693  0.5940
10678TIP3    H253526   0.934   1.903   2.302  0.5359 -1.2383  0.8958
10679TIP3   OH253527   0.104   3.850  15.413  0.1921 -0.3744 -0.0564
10679TIP3    H153528   0.109   3.773  15.355 -1.3024  0.1782 -0.9917
10679TIP3    H253529   0.091   3.813  15.500  0.3866 -1.2126 -0.3754
10680TIP3   OH253530   6.159   1.716   4.975  0.7870  0.2790  0.6194
10680TIP3    H153531   6.119   1.759   4.899  0.9479  0.5789  0.7021
10680TIP3    H253532   6.115   1.755   5.051  0.7398  0.0965  0.6873
10681TIP3   OH253533   6.328   4.888  14.300 -0.6750  0.7368  0.1617
10681TIP3    H153534   6.294   4.875  14.212 -2.0058  0.8949  0.6354
10681TIP3    H253535   6.399   4.824  14.308 -1.2158  0.0095 -0.6590
10682TIP3   OH253536   3.537   6.709   6.017 -0.0707  0.4822 -0.2231
10682TIP3    H153537   3.527   6.648   5.944  0.0821 -0.7149  0.7268
10682TIP3    H253538   3.455   6.701   6.066  0.7787 -0.5673  1.0772
10683TIP3   OH253539   1.826   3.975   1.442 -0.0968  0.1909 -0.4114
10683TIP3    H153540   1.897   4.001   1.383 -0.5824  0.7394 -0.7601
10683TIP3    H253541   1.794   4.057   1.479 -0.3033 -0.0869  0.0391
10684TIP3   OH253542   5.179   5.164   2.553  0.5201  0.2181 -0.1668
10684TIP3    H153543   5.255   5.223   2.546 -1.3519  2.9987  0.9529
10684TIP3    H253544   5.138   5.167   2.466  0.7276  0.1337 -0.2680
10685TIP3   OH253545   3.012   3.018  15.302 -0.4186 -0.2253  0.3410
10685TIP3    H153546   3.075   3.089  15.298 -2.0060  1.2320 -0.1809
10685TIP3    H253547   3.023   2.972  15.219  0.0095 -0.0306  0.2876
10686TIP3   OH253548   4.412   2.022   3.242 -0.4082  0.3784 -0.2096
10686TIP3    H153549   4.450   2.108   3.224 -0.5026  0.9333  1.9283
10686TIP3    H253550   4.439   2.003   3.332  0.1493 -2.1395 -0.8426
10687TIP3   OH253551   0.326   1.259   3.780 -0.6231 -0.5694 -0.0580
10687TIP3    H153552   0.282   1.276   3.697 -0.3052 -0.8856 -0.2962
10687TIP3    H253553   0.256   1.230   3.839 -0.7884 -0.7458 -0.3379
10688TIP3   OH253554   3.752   5.070  13.494  0.3975 -0.8858  0.3366
10688TIP3    H153555   3.791   5.157  13.504  0.4125 -0.9649  0.9887
10688TIP3    H253556   3.774   5.044  13.404  2.4747 -1.2202  0.8984
10689TIP3   OH253557   1.047   3.006   2.377 -0.3391 -0.2419  0.1664
10689TIP3    H153558   0.972   2.950   2.399  0.7263 -2.3057 -1.1482
10689TIP3    H253559   1.025   3.042   2.291  0.3023 -1.1677 -0.4033
10690TIP3   OH253560   2.309   6.375   5.156  0.0868 -0.0261  0.2674
10690TIP3    H153561   2.293   6.455   5.106 -0.6129  1.2107  2.3465
10690TIP3    H253562   2.286   6.304   5.096  2.6349  1.1613 -2.3475
10691TIP3   OH253563   3.042   1.667   3.570 -0.4286  0.6197  0.1543
10691TIP3    H153564   3.096   1.597   3.533 -1.3968  0.7699 -1.6672
10691TIP3    H253565   3.100   1.742   3.576  0.4533 -0.1142  1.5450
10692TIP3   OH253566   0.017   0.189   4.901  0.0395  0.4140 -0.1506
10692TIP3    H153567   0.097   0.227   4.864 -0.1216  0.8507 -0.0457
10692TIP3    H253568  -0.021   0.139   4.829  0.7698 -0.3761 -0.0079
10693TIP3   OH253569   3.281   3.714  16.011  0.4731 -0.5408 -0.0496
10693TIP3    H153570   3.313   3.628  16.038  0.3625 -0.2555  1.0474
10693TIP3    H253571   3.192   3.696  15.978  0.4610 -0.8543  0.1441
10694TIP3   OH253572   3.546   6.668  16.568 -0.1756  0.1120  0.2525
10694TIP3    H153573   3.541   6.602  16.637  1.6300 -0.7088 -0.3520
10694TIP3    H253574   3.470   6.650  16.512  0.0473 -1.1845  0.3404
10695TIP3   OH253575   4.866   2.013  15.082  0.3198  0.3868  0.2371
10695TIP3    H153576   4.888   2.042  14.994  2.0798 -1.6627 -0.0655
10695TIP3    H253577   4.830   1.925  15.070  0.2912  0.1976  1.5324
10696TIP3   OH253578   0.941   3.372  16.167 -0.3256  0.0127  0.4660
10696TIP3    H153579   0.990   3.292  16.182 -2.3047 -1.3207  0.1941
10696TIP3    H253580   0.968   3.431  16.238  0.5681 -1.1768  1.1420
10697TIP3   OH253581   6.734   5.232  15.324 -0.2229 -0.0604  0.5964
10697TIP3    H153582   6.725   5.143  15.359 -2.3140 -1.0256 -1.9997
10697TIP3    H253583   6.778   5.219  15.240  1.0649  1.6322  0.9718
10698TIP3   OH253584   3.622   4.756   5.892 -0.5755  0.3977 -0.4352
10698TIP3    H153585   3.561   4.751   5.966 -0.5551  3.5515 -0.0661
10698TIP3    H253586   3.567   4.748   5.814 -1.0089  0.0976 -0.1002
10699TIP3   OH253587   2.742   4.960   1.065 -0.2943 -0.6605 -0.3505
10699TIP3    H153588   2.661   4.934   1.109 -0.7434  3.2265  1.5427
10699TIP3    H253589   2.811   4.940   1.128 -0.1842 -0.7135 -0.4876
10700TIP3   OH253590   0.222   3.429  13.453  0.3407  0.4733  0.6297
10700TIP3    H153591   0.277   3.443  13.530 -0.8844 -0.7051  1.7760
10700TIP3    H253592   0.234   3.336  13.432  1.7418  1.0820 -1.5117
10701TIP3   OH253593   1.762   5.073  15.669 -0.5436  0.2594  0.7051
10701TIP3    H153594   1.710   5.078  15.748 -2.3343 -1.7097 -0.2469
10701TIP3    H253595   1.836   5.016  15.692 -1.6741 -1.2736  0.7323
10702TIP3   OH253596   6.354   1.136  11.645  0.1577  0.3983  0.2039
10702TIP3    H153597   6.321   1.215  11.687 -0.3643  1.0653 -1.4081
10702TIP3    H253598   6.438   1.161  11.607  1.0878 -0.4595  1.6074
10703TIP3   OH253599   1.824   5.250   3.517  0.5204 -0.3500 -0.2120
10703TIP3    H153600   1.798   5.159   3.528  1.0241 -0.4754 -0.0204
10703TIP3    H253601   1.761   5.299   3.569 -0.2248 -0.5199 -0.9410
10704TIP3   OH253602   1.202   1.206  15.909  0.2826  0.1451 -0.5655
10704TIP3    H153603   1.262   1.131  15.901 -2.0360 -1.7537 -1.5227
10704TIP3    H253604   1.161   1.213  15.823 -1.2051  1.0484  0.1744
10705TIP3   OH253605   5.325   2.232  15.579  0.5034 -0.2126 -0.2073
10705TIP3    H153606   5.264   2.160  15.591  0.3610  0.1851  1.8752
10705TIP3    H253607   5.409   2.198  15.611  0.6079  0.2972  0.0746
10706TIP3   OH253608   5.243   4.515  15.109 -0.1393  0.1268 -0.2059
10706TIP3    H153609   5.203   4.428  15.108 -0.1510  0.1350 -0.8754
10706TIP3    H253610   5.333   4.499  15.138 -0.6409  0.1316  1.4831
10707TIP3   OH253611   0.870   2.741  15.021 -0.8353  0.1517 -0.3966
10707TIP3    H153612   0.881   2.672  15.086 -2.5646  0.0953 -0.1259
10707TIP3    H253613   0.923   2.813  15.054  0.8328 -0.9335 -0.5772
10708TIP3   OH253614   2.417   5.253  10.500  0.1742 -0.4156  0.1357
10708TIP3    H153615   2.369   5.335  10.514 -0.3753 -0.6369 -0.4402
10708TIP3    H253616   2.508   5.275  10.520  0.1528  0.5316 -0.7415
10709TIP3   OH253617   2.647   3.757  13.476 -1.1588 -0.4161  0.2712
10709TIP3    H153618   2.596   3.717  13.546 -2.9171  2.2120  0.6194
10709TIP3    H253619   2.603   3.840  13.457  1.4434  0.7557 -1.3404
10710TIP3   OH253620   2.849   3.548  13.676  0.1458  0.4622  0.5767
10710TIP3    H153621   2.836   3.631  13.723 -0.5639  1.1615 -0.7805
10710TIP3    H253622   2.899   3.573  13.598 -1.1494 -0.1613 -0.4870
10711TIP3   OH253623   3.005   0.979  13.125 -0.0766 -0.2881 -0.1361
10711TIP3    H153624   2.991   0.933  13.208 -0.1078  0.9830  0.5772
10711TIP3    H253625   2.945   0.936  13.064 -0.7002 -0.6622  0.7193
10712TIP3   OH253626   2.733   6.570   1.611 -0.4850 -0.5788  0.1377
10712TIP3    H153627   2.729   6.639   1.545 -0.8714  0.4166  1.1658
10712TIP3    H253628   2.733   6.488   1.561 -0.4646  0.1522 -1.0906
10713TIP3   OH253629   5.862   3.875   5.312 -0.1041 -0.0013 -0.4792
10713TIP3    H153630   5.880   3.967   5.332 -0.2306  0.0538 -0.6104
10713TIP3    H253631   5.773   3.861   5.343  0.6780 -0.7083  1.6265
10714TIP3   OH253632   2.731   4.111   4.843 -0.2840 -0.0999  0.4618
10714TIP3    H153633   2.823   4.133   4.857 -0.1677 -1.3198  1.8937
10714TIP3    H253634   2.733   4.027   4.796 -0.6036 -0.9533  1.8997
10715TIP3   OH253635   3.513   6.848  15.582 -0.1181  0.4586 -0.3017
10715TIP3    H153636   3.535   6.848  15.675  2.0652  1.4732 -0.7491
10715TIP3    H253637   3.519   6.940  15.556 -0.7875  0.2025 -1.4404
10716TIP3   OH253638   5.955   1.375   0.796  0.2074 -0.1692  0.2775
10716TIP3    H153639   5.991   1.446   0.743 -0.7635 -0.7700 -1.2361
10716TIP3    H253640   6.000   1.384   0.880  2.9781 -0.1028 -1.0839
10717TIP3   OH253641   1.255   0.717   6.312  0.0412 -0.5539  0.3916
10717TIP3    H153642   1.327   0.730   6.373 -0.2823  3.1442  0.2096
10717TIP3    H253643   1.290   0.658   6.245  3.6214  2.2931 -0.5630
10718TIP3   OH253644   2.116   5.039  11.197  0.1831  0.8036 -0.6256
10718TIP3    H153645   2.160   4.964  11.238 -1.6326 -0.3464 -0.6619
10718TIP3    H253646   2.169   5.058  11.120  0.8433 -0.2840 -0.4693
10719TIP3   OH253647   1.285   4.336  11.914  0.5321  0.3226 -0.4624
10719TIP3    H153648   1.222   4.348  11.984  2.2239 -2.0270  1.6733
10719TIP3    H253649   1.249   4.264  11.862  2.4886 -3.0813  2.4500
10720TIP3   OH253650   1.783   6.335   0.288  0.1128  0.0797 -0.2512
10720TIP3    H153651   1.770   6.328   0.194 -0.7971 -2.1614 -0.0315
10720TIP3    H253652   1.835   6.414   0.300  0.7206  0.1121 -2.6690
10721TIP3   OH253653   3.583   0.277  13.576  0.3595 -0.5608  0.5260
10721TIP3    H153654   3.618   0.190  13.596  0.0826 -0.6246  0.7423
10721TIP3    H253655   3.494   0.260  13.544 -0.1156 -0.2822  1.6561
10722TIP3   OH253656   3.375   5.949   2.878 -0.3702 -0.1909 -0.1345
10722TIP3    H153657   3.338   5.868   2.913 -0.1034  0.9619  3.1071
10722TIP3    H253658   3.456   5.922   2.834 -0.6317 -1.7247  0.2836
10723TIP3   OH253659   2.725   3.710   5.731 -0.2575  0.0331  0.3709
10723TIP3    H153660   2.668   3.656   5.787  0.1012 -0.8373 -0.0890
10723TIP3    H253661   2.811   3.705   5.773 -0.3108  0.6201  0.5668
10724TIP3   OH253662   4.327   1.287   0.014  0.7524  0.2045 -0.4892
10724TIP3    H153663   4.306   1.351  -0.054 -0.2260 -0.7972 -1.1542
10724TIP3    H253664   4.313   1.334   0.096  0.0848  0.8572 -0.9655
10725TIP3   OH253665   4.323   5.528  16.577  0.0875  0.3704  0.1619
10725TIP3    H153666   4.291   5.472  16.648  0.3215  1.6921  1.3501
10725TIP3    H253667   4.366   5.467  16.517  2.4199 -0.5689  2.5409
10726TIP3   OH253668   1.189   2.352  10.640 -0.3965  0.0026  0.3141
10726TIP3    H153669   1.232   2.312  10.716  0.0207 -0.1565 -0.0059
10726TIP3    H253670   1.243   2.428  10.619 -0.0032 -0.4670 -0.3802
10727TIP3   OH253671   4.242   2.495   0.703  0.1705  0.8901  0.1984
10727TIP3    H153672   4.190   2.513   0.625 -0.4336 -1.3101  0.0568
10727TIP3    H253673   4.319   2.449   0.671 -0.7278 -1.2743  0.9580
10728TIP3   OH253674   4.576   2.477   3.701 -0.3470  0.4013 -0.4562
10728TIP3    H153675   4.564   2.492   3.794  0.6329 -1.4280  0.0080
10728TIP3    H253676   4.577   2.564   3.662 -0.0022  1.2262  1.3335
10729TIP3   OH253677   0.957   5.641   1.206  0.2122  0.5201  0.3906
10729TIP3    H153678   0.965   5.715   1.146 -2.3749 -0.2593 -1.0916
10729TIP3    H253679   0.891   5.585   1.165  0.6002 -1.5919  2.4845
10730TIP3   OH253680   2.691   2.272  10.990 -0.0945  0.1416  0.0034
10730TIP3    H153681   2.768   2.323  10.965  0.9127 -1.0407  0.5948
10730TIP3    H253682   2.623   2.301  10.929  1.6694 -1.0961 -2.7883
10731TIP3   OH253683   5.217   0.476  12.454  0.6194 -1.1028 -0.0707
10731TIP3    H153684   5.138   0.462  12.402  1.9262 -1.6874 -2.0158
10731TIP3    H253685   5.213   0.409  12.522 -1.2012 -0.2388  0.7421
10732TIP3   OH253686   2.856   2.373   3.571 -0.3540  0.1843  0.2481
10732TIP3    H153687   2.786   2.311   3.550  0.0785 -0.4988  0.7869
10732TIP3    H253688   2.931   2.318   3.591 -0.0209  0.8874  0.9599
10733TIP3   OH253689   4.720   1.174  13.469  0.4076  0.1684 -0.4009
10733TIP3    H153690   4.758   1.088  13.487 -0.8734 -0.3465 -0.0722
10733TIP3    H253691   4.658   1.189  13.541 -0.0857  0.9352 -0.9707
10734TIP3   OH253692   6.673   5.865   5.832 -0.1192 -0.3486  1.1539
10734TIP3    H153693   6.673   5.954   5.866  1.3445  0.2006 -0.1696
10734TIP3    H253694   6.671   5.810   5.910  2.8467  0.8659  2.2320
10735TIP3   OH253695   0.688   2.003  13.436  0.0634  0.5359 -0.5822
10735TIP3    H153696   0.627   1.957  13.378 -0.3136 -0.4700  0.5683
10735TIP3    H253697   0.666   2.095  13.426 -1.3370  0.2302 -0.5620
10736TIP3   OH253698   4.883   6.212   3.016  0.4361  0.4257 -0.5453
10736TIP3    H153699   4.954   6.168   3.064 -0.6188 -0.6458  0.0971
10736TIP3    H253700   4.832   6.140   2.979 -1.3245  1.0863  0.5056
10737TIP3   OH253701   2.225   1.109  13.480 -0.3374  0.2968  0.1929
10737TIP3    H153702   2.160   1.043  13.456  0.8219 -0.2495 -1.6339
10737TIP3    H253703   2.193   1.190  13.440 -1.7532  0.9379  2.4241
10738TIP3   OH253704   2.971   2.926  14.625  0.4301  0.5604  0.4618
10738TIP3    H153705   2.931   2.891  14.546  1.4815 -0.6082  0.4071
10738TIP3    H253706   3.056   2.882  14.630  1.2051  2.0771  1.1946
10739TIP3   OH253707   2.576   1.381  12.488  0.4858  0.2308  0.7811
10739TIP3    H153708   2.632   1.316  12.531  0.2006  0.0763  0.9218
10739TIP3    H253709   2.637   1.448  12.458  0.7874 -0.1117  0.6156
10740TIP3   OH253710   3.256   0.918  16.578 -0.2134  0.1525  0.0949
10740TIP3    H153711   3.317   0.987  16.605  1.3147  0.0153 -2.6959
10740TIP3    H253712   3.179   0.965  16.548 -0.7072  0.4123  1.6417
10741TIP3   OH253713   2.251   3.287  12.564  0.3052  0.0670 -0.5083
10741TIP3    H153714   2.303   3.343  12.622  0.6459 -0.8027  0.0526
10741TIP3    H253715   2.162   3.292  12.599  0.8040 -1.8216  1.2401
10742TIP3   OH253716   0.399   5.470  13.051  0.9766  0.0574 -0.2823
10742TIP3    H153717   0.406   5.391  13.106  0.0672  0.6282  0.6996
10742TIP3    H253718   0.475   5.466  12.993  1.9253 -0.6293  0.9612
10743TIP3   OH253719   4.243   0.864  10.898 -0.1864  0.5042 -0.5811
10743TIP3    H153720   4.190   0.939  10.925  1.6022  1.4695  0.4306
10743TIP3    H253721   4.211   0.792  10.952 -0.1670  1.1878  0.3788
10744TIP3   OH253722   3.717   2.277   3.561  0.4183  0.2425  0.0659
10744TIP3    H153723   3.720   2.316   3.648  1.3516  2.4612 -0.8684
10744TIP3    H253724   3.809   2.277   3.531 -0.2084  4.2124 -2.6989
10745TIP3   OH253725   0.968   4.089   4.418  0.0935 -0.5077  0.2948
10745TIP3    H153726   0.906   4.150   4.457  1.0879  0.2969  0.6568
10745TIP3    H253727   0.921   4.052   4.343 -0.1110  1.6094 -0.6801
10746TIP3   OH253728   0.654   0.393   1.353  0.1583  0.7990 -0.2369
10746TIP3    H153729   0.628   0.484   1.338  1.6141  1.1703 -0.6803
10746TIP3    H253730   0.749   0.397   1.366  0.2283 -0.6459 -0.1525
10747TIP3   OH253731   2.860   5.543  14.440  0.2635 -0.1025  1.0040
10747TIP3    H153732   2.779   5.548  14.490 -1.2652 -1.1319 -1.1898
10747TIP3    H253733   2.840   5.585  14.356  2.4222  0.7711  0.8526
10748TIP3   OH253734   5.175   6.059   2.736 -0.0774 -0.1864  0.1709
10748TIP3    H153735   5.218   5.976   2.718  0.0119 -0.1045 -0.0065
10748TIP3    H253736   5.214   6.120   2.672  1.6347  0.5869  1.8593
10749TIP3   OH253737   3.557   6.761  14.490  0.5306 -0.2923 -0.1541
10749TIP3    H153738   3.576   6.673  14.525  0.5864 -0.3499 -0.3300
10749TIP3    H253739   3.499   6.800  14.555  1.2282 -0.1203  0.3780
10750TIP3   OH253740   4.184   6.844  13.759  0.4953  0.2385  0.2345
10750TIP3    H153741   4.220   6.890  13.683 -0.3619  1.2011  0.3907
10750TIP3    H253742   4.245   6.864  13.830  0.9289 -0.0939 -0.0446
10751TIP3   OH253743   0.283   3.943  15.685 -0.2210  0.2640 -0.2351
10751TIP3    H153744   0.357   3.891  15.718 -0.7807 -0.8653 -0.6902
10751TIP3    H253745   0.220   3.878  15.655 -0.3841  1.2099 -2.1206
10752TIP3   OH253746   2.263   0.666  15.530  0.7853  0.2974 -0.6357
10752TIP3    H153747   2.272   0.672  15.435 -0.4719  0.6086 -0.7482
10752TIP3    H253748   2.208   0.740  15.554  0.6327 -0.0920  0.2728
10753TIP3   OH253749   6.424   1.305   1.989  0.1038 -0.3983  0.1221
10753TIP3    H153750   6.396   1.252   1.915  0.3794  0.9651 -0.9984
10753TIP3    H253751   6.433   1.393   1.953 -0.0218  0.3522  1.8466
10754TIP3   OH253752   5.511   6.379   0.545  0.3168 -0.3117  0.4366
10754TIP3    H153753   5.439   6.343   0.598  1.6425 -1.1946  1.7156
10754TIP3    H253754   5.585   6.383   0.606  0.7241  3.0477 -0.0991
10755TIP3   OH253755   6.315   4.097  16.306 -0.7192  0.3017  0.2904
10755TIP3    H153756   6.388   4.046  16.269 -0.4710  2.0721 -1.8484
10755TIP3    H253757   6.279   4.040  16.374  2.8729 -0.5001  1.7729
10756TIP3   OH253758   2.738   3.817  16.732 -0.0611  0.4919  0.3381
10756TIP3    H153759   2.666   3.858  16.684 -0.6461  1.2292  1.7567
10756TIP3    H253760   2.808   3.807  16.668 -1.7389 -1.2012 -1.3823
10757TIP3   OH253761   4.455   0.774   3.739  0.5153 -0.4211 -0.5618
10757TIP3    H153762   4.509   0.699   3.712  3.0551  0.9085  0.5312
10757TIP3    H253763   4.391   0.736   3.799  0.2681 -2.0527 -1.7702
10758TIP3   OH253764   6.092   0.497  11.010 -0.3368 -0.0188  0.3456
10758TIP3    H153765   6.018   0.482  10.951 -0.9512  2.8001  0.2829
10758TIP3    H253766   6.085   0.426  11.074 -1.6518 -1.2107 -1.0196
10759TIP3   OH253767   6.505   0.749  15.381  0.4123 -0.1218  0.4783
10759TIP3    H153768   6.449   0.742  15.459 -0.6278  0.8184 -0.1428
10759TIP3    H253769   6.572   0.682  15.393 -0.5270 -0.9128  1.5351
10760TIP3   OH253770   3.123   0.102   2.501 -0.3914  0.3454 -0.0309
10760TIP3    H153771   3.098   0.151   2.579 -1.8611 -0.9684  0.3641
10760TIP3    H253772   3.110   0.011   2.525 -0.1542 -0.1228 -1.5793
10761TIP3   OH253773   0.669   4.087  13.827 -0.5616 -0.0575  0.6605
10761TIP3    H153774   0.627   4.032  13.760  0.0506  0.2953 -0.0343
10761TIP3    H253775   0.692   4.167  13.780  0.6227 -0.1351  1.0884
10762TIP3   OH253776   2.235   0.651  14.346  0.1904  0.0376  0.0553
10762TIP3    H153777   2.236   0.594  14.269  1.1332 -0.5581  0.4972
10762TIP3    H253778   2.328   0.666  14.366 -0.0331  1.3225  0.2556
10763TIP3   OH253779   5.735   2.345   1.366  0.2449  0.3945 -0.0467
10763TIP3    H153780   5.736   2.253   1.393 -0.9428  0.3205 -0.2052
10763TIP3    H253781   5.823   2.376   1.386  0.3847 -0.5244  0.8963
10764TIP3   OH253782   6.334   4.615  13.473  0.2166  0.2684  0.1033
10764TIP3    H153783   6.268   4.632  13.406 -1.5612  1.6517  2.0804
10764TIP3    H253784   6.374   4.701  13.489  2.0020 -0.4077 -0.5053
10765TIP3   OH253785   5.165   3.228  15.198  0.1690  0.1117 -0.3133
10765TIP3    H153786   5.091   3.168  15.208 -0.1847  0.5989  0.0338
10765TIP3    H253787   5.241   3.177  15.226 -0.4623  0.6509  2.7767
10766TIP3   OH253788   1.589   5.180  16.632  1.1345  0.7049  0.5199
10766TIP3    H153789   1.657   5.126  16.592  0.2463  0.5171 -0.7724
10766TIP3    H253790   1.609   5.269  16.601  1.9035  0.9715  1.7041
10767TIP3   OH253791   5.892   2.510  13.993  0.0126  0.0116  0.2482
10767TIP3    H153792   5.975   2.471  13.966 -0.8550 -1.6147 -0.1682
10767TIP3    H253793   5.831   2.437  13.998 -1.1092  0.9838  1.7845
10768TIP3   OH253794   4.345   6.028  15.085 -0.4207  0.1672 -0.5307
10768TIP3    H153795   4.398   6.041  15.163 -1.1964  2.9521 -0.3644
10768TIP3    H253796   4.408   6.008  15.016  0.5252  0.2590  0.2874
10769TIP3   OH253797   4.620   3.728  12.318 -0.6397 -0.4507 -0.6876
10769TIP3    H153798   4.706   3.688  12.303 -0.1483  0.0275  0.6502
10769TIP3    H253799   4.638   3.822  12.320 -0.8089 -0.3966  1.4341
10770TIP3   OH253800   6.667   6.618  12.120  0.3673  0.2843  0.1700
10770TIP3    H153801   6.728   6.679  12.078 -0.4465  1.4257  0.5800
10770TIP3    H253802   6.610   6.675  12.173 -0.3386 -0.8564  0.6630
10771TIP3   OH253803   3.432   3.637   0.489  0.6030 -0.1528  0.2606
10771TIP3    H153804   3.499   3.643   0.421  0.4746  0.2189  0.1650
10771TIP3    H253805   3.398   3.547   0.483  1.1056 -0.3484  0.3251
10772TIP3   OH253806   0.690   3.948   3.473  0.3506  0.0118 -0.5951
10772TIP3    H153807   0.685   3.983   3.562 -1.1705 -2.0191  0.2177
10772TIP3    H253808   0.698   3.853   3.486  0.7092 -0.2784 -2.6505
10773TIP3   OH253809   6.850   2.641  13.913  0.2574  0.1457 -0.1194
10773TIP3    H153810   6.788   2.614  13.844 -0.0392  2.0294 -0.6502
10773TIP3    H253811   6.794   2.671  13.984  0.4197  3.5215 -1.2613
10774TIP3   OH253812   4.594   2.396  13.401  0.7119  0.2745  0.2662
10774TIP3    H153813   4.688   2.383  13.403  0.3266 -4.1184 -0.1910
10774TIP3    H253814   4.567   2.363  13.315 -1.3313 -0.1137  0.9921
10775TIP3   OH253815   2.366   2.619   5.135 -0.0789  0.4317  0.0006
10775TIP3    H153816   2.403   2.632   5.048  1.1139 -0.1014  0.3946
10775TIP3    H253817   2.353   2.707   5.170 -0.9360  0.6550 -0.8511
10776TIP3   OH253818   2.048   3.549  15.829  0.0986 -0.6755  0.3972
10776TIP3    H153819   1.996   3.508  15.899  0.9539  1.7629  2.6587
10776TIP3    H253820   2.138   3.544  15.861  0.4790  0.7960 -0.3830
10777TIP3   OH253821   4.599   0.796  16.507 -0.0382 -0.1275  0.4168
10777TIP3    H153822   4.515   0.798  16.553  0.6109  0.8501  1.5998
10777TIP3    H253823   4.661   0.762  16.572  0.0939 -3.3675 -1.1885
10778TIP3   OH253824   2.565   0.453  15.236  0.4341 -0.2314 -0.8425
10778TIP3    H153825   2.528   0.515  15.300  1.5971  0.8156 -1.1385
10778TIP3    H253826   2.567   0.369  15.282  0.2524  0.2745  0.1186
10779TIP3   OH253827   5.251   4.782   0.769  0.1649 -0.2079 -0.0740
10779TIP3    H153828   5.290   4.703   0.806 -1.3350  0.1131  2.4358
10779TIP3    H253829   5.305   4.853   0.802 -1.0615  0.0698  1.4317
10780TIP3   OH253830   0.101   2.016  15.527 -0.2551 -0.0083 -0.1331
10780TIP3    H153831   0.118   1.930  15.565 -0.3181 -0.0961 -0.3031
10780TIP3    H253832   0.135   2.078  15.591  1.9973 -0.1858 -1.0654
10781TIP3   OH253833   1.138   1.114  10.756  0.3085  0.5400  0.0014
10781TIP3    H153834   1.151   1.102  10.850  0.1691  0.4895  0.0140
10781TIP3    H253835   1.067   1.178  10.749  0.4594  0.7009 -0.0698
10782TIP3   OH253836   3.920   3.618  15.751 -1.1045  0.1354 -0.1927
10782TIP3    H153837   3.951   3.694  15.801 -0.2029  0.3599 -1.0732
10782TIP3    H253838   3.934   3.642  15.660 -1.5556 -0.7841 -0.5160
10783TIP3   OH253839   6.289   6.263   0.137  0.1695 -0.1618  0.5129
10783TIP3    H153840   6.195   6.278   0.144  0.4003  1.2220  1.0296
10783TIP3    H253841   6.306   6.263   0.043 -0.3952 -0.8102  0.4038
10784TIP3   OH253842   6.495   3.358  15.698 -0.0768 -0.4259  0.4898
10784TIP3    H153843   6.522   3.272  15.668 -0.6877 -0.8088  1.0084
10784TIP3    H253844   6.401   3.362  15.680 -0.1583 -0.0848  0.9595
10785TIP3   OH253845   3.968   4.527   5.401 -0.3199  0.7587  0.3372
10785TIP3    H153846   3.955   4.433   5.413  0.9733  0.8375  2.9204
10785TIP3    H253847   3.883   4.566   5.420 -0.6600  0.1788  0.0242
10786TIP3   OH253848   2.988   0.167  11.798  0.2768  0.0621 -0.7452
10786TIP3    H153849   2.918   0.223  11.764 -1.8451 -1.6071  0.6036
10786TIP3    H253850   3.014   0.208  11.880 -0.9235 -0.5668 -0.0129
10787TIP3   OH253851   6.586   4.082   4.161  0.4079 -0.0412  0.3529
10787TIP3    H153852   6.555   4.047   4.078  2.7933  0.8188 -0.9867
10787TIP3    H253853   6.519   4.146   4.187  0.5468  1.1216 -1.9370
10788TIP3   OH253854   0.279   3.450   0.693  0.6408  0.4667 -0.9772
10788TIP3    H153855   0.331   3.504   0.752 -0.0775 -0.3000  0.4122
10788TIP3    H253856   0.323   3.365   0.692 -0.8829 -0.4239  0.7958
10789TIP3   OH253857   6.084   1.688  12.022  0.1844 -0.1170  0.3650
10789TIP3    H153858   5.992   1.686  12.048  0.3622  1.5529  1.2377
10789TIP3    H253859   6.128   1.736  12.092  1.6967 -0.6912 -0.1517
10790TIP3   OH253860   1.516   4.028   5.385 -0.1999  0.2618  0.4697
10790TIP3    H153861   1.424   4.017   5.409  0.3850 -3.7531  1.5869
10790TIP3    H253862   1.517   4.018   5.289 -0.9644  0.9492  0.3818
10791TIP3   OH253863   0.623   6.124   2.646  0.3616 -0.2140  0.5880
10791TIP3    H153864   0.668   6.175   2.578 -0.6051  0.1437  0.2115
10791TIP3    H253865   0.682   6.128   2.721  0.6959  0.7385  0.2854
10792TIP3   OH253866   0.714   6.798   5.212 -0.1133 -0.2882  0.4281
10792TIP3    H153867   0.682   6.887   5.201  0.1853 -0.2761 -0.4310
10792TIP3    H253868   0.661   6.762   5.282 -1.5308 -0.0295 -0.4627
10793TIP3   OH253869   3.581   2.645   1.263 -0.1218 -0.1168 -0.4468
10793TIP3    H153870   3.596   2.665   1.356 -1.1643 -0.4393 -0.1908
10793TIP3    H253871   3.633   2.566   1.247  0.1896  0.0295 -0.1854
10794TIP3   OH253872   2.374   6.304  13.475  0.2979  0.2858 -0.0521
10794TIP3    H153873   2.374   6.399  13.459 -0.8284  0.4823  1.0148
10794TIP3    H253874   2.461   6.286  13.512  0.6506  0.8277 -0.5891
10795TIP3   OH253875   6.597   6.499  16.230  0.1701  0.0916 -0.0592
10795TIP3    H153876   6.692   6.513  16.225  0.2098 -0.0450  0.2753
10795TIP3    H253877   6.575   6.453  16.149  0.1893  1.2303 -0.7212
10796TIP3   OH253878   1.855   2.167  13.177 -0.7202 -0.1302  0.3583
10796TIP3    H153879   1.920   2.122  13.232 -0.2957  0.1900  0.1172
10796TIP3    H253880   1.771   2.129  13.205 -0.4888 -0.1478  1.0616
10797TIP3   OH253881   4.609   0.759  15.326 -0.3934  0.2704  0.2929
10797TIP3    H153882   4.542   0.721  15.269  0.7853 -0.0204 -0.9439
10797TIP3    H253883   4.667   0.806  15.267 -0.4300  1.9607  1.5332
10798TIP3   OH253884   6.469   6.000  14.482 -0.1679  1.2304  0.0981
10798TIP3    H153885   6.417   6.080  14.479 -2.8011 -0.2766  1.8004
10798TIP3    H253886   6.422   5.939  14.425  0.5023  0.2058  0.6165
10799TIP3   OH253887   0.484   2.736  14.742 -0.3876 -0.3324  0.4174
10799TIP3    H153888   0.427   2.772  14.675  0.4691 -1.4994 -0.9937
10799TIP3    H253889   0.468   2.642  14.739  0.0907 -0.4606  1.4583
10800TIP3   OH253890   5.648   3.510   6.117 -1.1091 -0.4121  0.5600
10800TIP3    H153891   5.615   3.433   6.162 -0.2303 -0.9943  0.2384
10800TIP3    H253892   5.571   3.551   6.078 -1.6680 -0.7406  1.3119
10801TIP3   OH253893   5.327   1.001  16.055  0.3431  0.0530 -0.5361
10801TIP3    H153894   5.247   0.966  16.092  0.3387 -0.6200 -1.1572
10801TIP3    H253895   5.336   1.088  16.094  0.6877 -0.8652  1.5049
10802TIP3   OH253896   5.920   3.017  14.568 -0.1243  0.5663  0.6609
10802TIP3    H153897   5.902   2.937  14.518 -0.5028 -0.3120  2.1564
10802TIP3    H253898   5.849   3.076  14.544  0.0484  0.3976 -0.3106
10803TIP3   OH253899   3.727   1.659   6.112 -0.1601 -0.1736  0.0595
10803TIP3    H153900   3.730   1.719   6.037  1.5099 -0.5897 -0.2462
10803TIP3    H253901   3.816   1.659   6.146 -0.5860 -1.0266  1.2433
10804TIP3   OH253902   0.541   2.749   3.436 -0.3568 -0.1584  0.1674
10804TIP3    H153903   0.514   2.670   3.388 -1.9086  0.3582  0.1463
10804TIP3    H253904   0.572   2.809   3.368 -2.7691  0.6598 -0.2826
10805TIP3   OH253905   0.851   0.942   4.236 -0.0397 -0.2243  0.9254
10805TIP3    H153906   0.886   1.010   4.294  0.6664  1.7794 -1.6656
10805TIP3    H253907   0.756   0.950   4.244 -0.0665 -1.8478  3.7137
10806TIP3   OH253908   4.650   6.601  11.736  0.3299  0.2909 -0.4431
10806TIP3    H153909   4.632   6.694  11.749  1.9599  0.2337  3.5364
10806TIP3    H253910   4.739   6.598  11.702  1.4215  0.2909  2.1637
10807TIP3   OH253911   3.519   1.725  15.598 -0.0307  0.2531  0.6732
10807TIP3    H153912   3.563   1.646  15.566  0.4181  0.3863  0.9614
10807TIP3    H253913   3.568   1.750  15.676  0.1597  1.1245  0.2873
10808TIP3   OH253914   0.796   5.989  10.587 -0.2495  0.3491  0.4459
10808TIP3    H153915   0.801   5.897  10.560 -0.4532  0.2986  0.5747
10808TIP3    H253916   0.710   6.018  10.557  0.3630  0.8964 -0.8084
10809TIP3   OH253917   3.895   5.355   2.211 -0.2799  0.3287  0.2502
10809TIP3    H153918   3.871   5.447   2.200 -0.3816  0.3512  0.6308
10809TIP3    H253919   3.813   5.311   2.234 -0.3277  0.0493 -0.4319
10810TIP3   OH253920   5.902   0.760   2.067  0.2452  0.3835 -1.2998
10810TIP3    H153921   5.931   0.783   2.156  1.6507 -0.8908 -1.3716
10810TIP3    H253922   5.816   0.720   2.080  0.7300 -0.4374 -0.3851
10811TIP3   OH253923   3.223   5.675   6.461 -0.1263 -0.5845 -0.1329
10811TIP3    H153924   3.150   5.674   6.523 -0.9161 -0.3767 -1.0424
10811TIP3    H253925   3.182   5.679   6.375  0.9677  1.6632 -0.6336
10812TIP3   OH253926   5.532   2.206  13.753 -0.1468 -0.1786  0.6870
10812TIP3    H153927   5.518   2.285  13.701 -0.8495 -0.1670  0.8780
10812TIP3    H253928   5.554   2.238  13.841  0.7650 -0.1993  0.4775
10813TIP3   OH253929   6.298   1.637  14.178  0.5470  0.2035  0.3082
10813TIP3    H153930   6.311   1.549  14.215 -1.2046  0.2869  1.2036
10813TIP3    H253931   6.369   1.689  14.215  0.5547 -0.4208  1.2150
10814TIP3   OH253932   6.284   2.611  13.596  1.5461  0.3660 -0.3046
10814TIP3    H153933   6.293   2.527  13.550  1.4027 -0.0979  0.4894
10814TIP3    H253934   6.288   2.677  13.527 -2.2927 -0.4107 -1.5089
10815TIP3   OH253935   6.713   0.220  16.178 -0.3167 -0.3321 -0.7821
10815TIP3    H153936   6.702   0.234  16.084  0.2610 -1.4186 -1.0309
10815TIP3    H253937   6.638   0.263  16.218 -0.2456  0.6770 -1.6868
10816TIP3   OH253938   4.284   3.023   3.313 -0.4761 -0.2133 -0.4885
10816TIP3    H153939   4.203   3.061   3.347 -1.4331 -0.5177 -2.3116
10816TIP3    H253940   4.345   3.028   3.386 -2.3128 -0.5480  1.1628
10817TIP3   OH253941   3.522   5.655  12.762 -0.7294  0.0665 -0.0420
10817TIP3    H153942   3.579   5.588  12.801 -0.1150  1.4235  1.5380
10817TIP3    H253943   3.454   5.669  12.828  0.0258  2.0498  0.3861
10818TIP3   OH253944   0.432   5.663  14.378 -0.3468 -0.1755  0.2108
10818TIP3    H153945   0.359   5.644  14.438 -0.2444  1.6423  0.9698
10818TIP3    H253946   0.503   5.694  14.435  0.2394  0.2311 -0.7166
10819TIP3   OH253947   6.231   3.211   0.284 -0.3767  0.0487  0.4948
10819TIP3    H153948   6.157   3.173   0.332  0.4356  0.2279  1.9738
10819TIP3    H253949   6.212   3.194   0.192 -1.9578 -0.4339  0.8778
10820TIP3   OH253950   4.535   2.292   6.121  0.5605 -0.1455  0.6565
10820TIP3    H153951   4.618   2.247   6.137  0.6677 -0.1507  0.1156
10820TIP3    H253952   4.561   2.376   6.084  0.3220 -0.1801  0.4100
10821TIP3   OH253953   4.412   4.851  12.489  0.4081 -0.2150  0.0349
10821TIP3    H153954   4.424   4.941  12.520  3.1602 -0.3059 -0.5439
10821TIP3    H253955   4.327   4.825  12.525  0.0419  2.2145  1.1563
10822TIP3   OH253956   2.472   0.608   2.558 -0.2678 -1.0471  0.1498
10822TIP3    H153957   2.538   0.652   2.506 -1.6635  0.3296 -0.5622
10822TIP3    H253958   2.489   0.514   2.547  0.7490 -0.7316 -1.0411
10823TIP3   OH253959   2.761   1.375  11.481 -0.3784 -0.0380  0.3299
10823TIP3    H153960   2.766   1.363  11.387  0.2159  2.0443  0.0453
10823TIP3    H253961   2.669   1.358  11.503 -0.4683 -0.7581 -0.5669
10824TIP3   OH253962   5.533   5.283  10.919  0.4385  0.5143  0.2188
10824TIP3    H153963   5.442   5.263  10.900  0.6268 -0.1986  0.0367
10824TIP3    H253964   5.579   5.200  10.906  0.9403  0.5836  1.4393
10825TIP3   OH253965   5.568   0.422   1.833  0.1358  0.4201  0.2018
10825TIP3    H153966   5.569   0.409   1.738 -0.1597  0.6383  0.1642
10825TIP3    H253967   5.478   0.400   1.859  0.6500 -1.2471  0.6813
10826TIP3   OH253968   3.355   0.737  12.129 -0.2236  0.4449 -0.1636
10826TIP3    H153969   3.315   0.741  12.042 -1.4415  1.2999  0.4099
10826TIP3    H253970   3.333   0.821  12.169 -0.0374 -0.1087  1.1239
10827TIP3   OH253971   4.808   2.031  11.492  0.8174 -0.2223 -0.1269
10827TIP3    H153972   4.768   1.995  11.571 -2.1622 -1.2846 -1.9821
10827TIP3    H253973   4.875   1.967  11.468  1.3172 -0.2055  1.1551
10828TIP3   OH253974   6.547   3.992  15.757 -0.6507  0.5019  0.1207
10828TIP3    H153975   6.567   3.911  15.804 -0.8496  1.3605  1.7823
10828TIP3    H253976   6.451   3.993  15.752 -0.7001  1.0590  0.9522
10829TIP3   OH253977   5.063   0.980  14.225  0.2209 -0.3828  0.4480
10829TIP3    H153978   5.010   1.035  14.282  1.0588  1.7623 -0.6948
10829TIP3    H253979   5.022   0.987  14.139  1.2166 -0.2774 -0.0373
10830TIP3   OH253980   6.203   3.043  12.984  0.1718  0.0774  0.7135
10830TIP3    H153981   6.282   3.010  12.941 -1.5036 -0.7046 -2.0072
10830TIP3    H253982   6.190   2.983  13.058  2.4065  0.6205  1.6328
10831TIP3   OH253983   6.354   4.298   5.475  0.1302  0.0088 -0.0608
10831TIP3    H153984   6.420   4.358   5.509  1.4220 -0.5439 -1.5218
10831TIP3    H253985   6.332   4.242   5.549  0.6079  0.7840  0.6820
10832TIP3   OH253986   3.765   2.745   2.123  1.3218  0.6353  0.1389
10832TIP3    H153987   3.677   2.730   2.158  0.4541  1.6697 -1.5079
10832TIP3    H253988   3.811   2.663   2.140 -0.3926 -0.4661 -0.2477
10833TIP3   OH253989   5.552   5.950   2.049  0.0606  0.1917 -0.5957
10833TIP3    H153990   5.628   5.970   1.994 -0.3800 -0.6980 -1.5506
10833TIP3    H253991   5.587   5.894   2.118 -0.1472 -2.6381 -2.6163
10834TIP3   OH253992   0.678   1.740   0.762  0.0039 -0.3157  0.1994
10834TIP3    H153993   0.765   1.732   0.803 -1.1450 -1.2843  2.6516
10834TIP3    H253994   0.629   1.797   0.822 -1.1949 -0.1452 -0.9177
10835TIP3   OH253995   5.041   1.183  15.190  0.0737 -0.1517 -0.4303
10835TIP3    H153996   5.035   1.276  15.209 -2.3392 -0.3974  0.3466
10835TIP3    H253997   5.103   1.177  15.117  1.1225  1.9128  0.2091
10836TIP3   OH253998   0.080   6.706   3.763 -0.0062  0.2880 -0.1062
10836TIP3    H153999   0.082   6.613   3.738  0.8490  0.4795 -0.8103
10836TIP3    H254000   0.141   6.712   3.836 -1.1925  0.0448  0.9400
10837TIP3   OH254001   6.128   4.449  16.344  0.3143 -0.0261  0.3007
10837TIP3    H154002   6.107   4.409  16.260 -1.4179  0.3976  0.4926
10837TIP3    H254003   6.223   4.440  16.353  0.1664 -2.7957 -0.2848
10838TIP3   OH254004   1.514   6.779  12.909 -1.0581  0.0501  0.3227
10838TIP3    H154005   1.579   6.777  12.979 -1.0606  0.6432  0.3477
10838TIP3    H254006   1.430   6.789  12.954 -0.9637  1.7185  0.2135
10839TIP3   OH254007   0.384   4.938  11.908  0.6170  0.3522  0.1462
10839TIP3    H154008   0.450   4.883  11.950 -0.3265  0.0473  1.3015
10839TIP3    H254009   0.351   4.885  11.836  1.2750  0.3100 -0.1286
10840TIP3   OH254010   1.689   4.447   2.428 -0.3007  0.5644  0.1676
10840TIP3    H154011   1.738   4.397   2.363  2.0578  0.6125  1.7834
10840TIP3    H254012   1.647   4.381   2.484 -2.1102  0.5232 -1.1470
10841TIP3   OH254013   5.442   6.495   3.004 -0.0227 -0.1060  0.4938
10841TIP3    H154014   5.367   6.499   3.063 -1.7631  0.5539 -1.6261
10841TIP3    H254015   5.496   6.570   3.029 -0.9286  0.4026  0.9659
10842TIP3   OH254016   5.653   1.159   0.326 -0.0006 -0.3828 -0.0739
10842TIP3    H154017   5.584   1.198   0.273 -1.0050  1.2329  2.2678
10842TIP3    H254018   5.608   1.097   0.384  0.5829  0.0828  0.9156
10843TIP3   OH254019   1.039   5.468  13.490 -0.7385 -0.3281  0.0578
10843TIP3    H154020   0.986   5.524  13.434  1.2024  0.3320 -1.2253
10843TIP3    H254021   1.090   5.414  13.430  1.0284  0.0307  1.1336
10844TIP3   OH254022   1.973   2.068   2.692 -0.6098 -1.0698 -0.6616
10844TIP3    H154023   1.930   2.000   2.743 -0.5937 -2.8736 -2.8612
10844TIP3    H254024   1.993   2.026   2.608 -0.1920  1.5387 -1.9922
10845TIP3   OH254025   5.290   3.013   6.211  0.6788 -0.1278 -0.6318
10845TIP3    H154026   5.286   3.086   6.272 -1.4472  0.3444 -1.2656
10845TIP3    H254027   5.384   3.000   6.196  1.3101 -0.4329  2.8478
10846TIP3   OH254028   5.072   0.590   4.379 -0.6181 -0.2862  0.4679
10846TIP3    H154029   5.077   0.528   4.452  0.5849 -1.2195 -0.3708
10846TIP3    H254030   5.030   0.541   4.309 -1.3424  0.4588  0.3690
10847TIP3   OH254031   4.464   3.642  14.733 -0.2723 -0.1982  0.0805
10847TIP3    H154032   4.437   3.550  14.735  1.2006 -0.6523  0.2259
10847TIP3    H254033   4.548   3.643  14.779 -0.4062  1.2751  0.3354
10848TIP3   OH254034   2.183   5.093   0.601  0.4939  0.0230  0.4932
10848TIP3    H154035   2.136   5.097   0.684 -1.8242 -0.8148 -0.6746
10848TIP3    H254036   2.161   5.006   0.566 -0.4423  1.1456 -1.9519
10849TIP3   OH254037   6.796   6.483  15.112  0.0681 -0.4574 -0.7162
10849TIP3    H154038   6.761   6.456  15.028 -0.8653  0.0758 -0.5173
10849TIP3    H254039   6.805   6.402  15.162 -1.5430 -0.5645 -0.5411
10850TIP3   OH254040   2.999   6.774  11.260 -0.1540 -0.4182  0.2046
10850TIP3    H154041   3.015   6.775  11.165  0.4186 -0.2045  0.3018
10850TIP3    H254042   3.084   6.753  11.299 -0.0792  0.7776  0.7314
10851TIP3   OH254043   4.117   0.231   0.470  0.0733 -0.1514 -0.0729
10851TIP3    H154044   4.139   0.299   0.535 -0.1521 -0.6672  0.5465
10851TIP3    H254045   4.166   0.258   0.392  0.2049  0.5812  0.2444
10852TIP3   OH254046   2.386   2.448  15.390 -0.0941  0.2031 -0.4877
10852TIP3    H154047   2.316   2.505  15.422  2.0611  2.6184  0.2840
10852TIP3    H254048   2.424   2.496  15.317  0.3726 -1.3676 -1.3054
10853TIP3   OH254049   4.498   5.296  12.085 -0.0281  0.4281  0.3312
10853TIP3    H154050   4.584   5.335  12.070  0.2175 -0.7129 -1.6331
10853TIP3    H254051   4.470   5.331  12.170  2.1962  1.1143  0.8590
10854TIP3   OH254052   4.690   3.950   4.976 -0.3171  0.0916  0.1103
10854TIP3    H154053   4.696   3.890   4.902 -2.1476 -1.2428  0.9553
10854TIP3    H254054   4.764   3.928   5.032 -1.3581 -1.9835  0.7697
10855TIP3   OH254055   1.589   3.742   4.927  0.0520 -0.3515  0.4506
10855TIP3    H154056   1.504   3.777   4.952  0.1479  1.0227 -1.0110
10855TIP3    H254057   1.574   3.649   4.915 -1.1480 -0.1855  0.5663
10856TIP3   OH254058   5.218   6.323   4.535 -0.1608 -0.3965  0.2217
10856TIP3    H154059   5.177   6.238   4.549 -1.3725  0.0779 -0.2869
10856TIP3    H254060   5.218   6.333   4.439  1.8492 -0.6981  0.1520
10857TIP3   OH254061   2.654   2.188   3.560 -1.1919  0.2425 -0.0147
10857TIP3    H154062   2.596   2.228   3.495  0.8380 -0.2119 -2.2278
10857TIP3    H254063   2.666   2.098   3.529  2.0518  0.7885 -0.7365
10858TIP3   OH254064   2.758   1.585   2.443 -0.2514  0.4787 -0.3545
10858TIP3    H154065   2.799   1.526   2.506  1.2196  1.1770 -0.6190
10858TIP3    H254066   2.752   1.669   2.490  0.3388  0.8591 -0.9396
10859TIP3   OH254067   0.009   2.432  11.908  0.2836 -0.0684 -0.1281
10859TIP3    H154068  -0.002   2.454  12.001  0.1904 -0.9111  0.0681
10859TIP3    H254069   0.094   2.470  11.885  1.8830 -2.5633  1.1792
10860TIP3   OH254070   1.410   6.147  11.899 -0.0694 -0.3962 -0.6043
10860TIP3    H154071   1.472   6.175  11.966  1.2891 -0.7973 -1.6552
10860TIP3    H254072   1.350   6.088  11.945 -2.2974  3.1068  1.4023
10861TIP3   OH254073   4.335   4.335   0.831  0.4467  0.0624 -0.1265
10861TIP3    H154074   4.252   4.354   0.786  1.2808  0.2871 -1.6532
10861TIP3    H254075   4.319   4.358   0.922 -0.4865  2.3793 -0.7891
10862TIP3   OH254076   3.938   5.549  11.727  0.3658  0.1009 -0.1690
10862TIP3    H154077   3.936   5.492  11.650 -0.5047  0.9009 -0.7628
10862TIP3    H254078   4.029   5.579  11.733  0.5830 -0.4829 -0.4849
10863TIP3   OH254079   3.486   6.671  11.823  0.0818  0.1152  0.9111
10863TIP3    H154080   3.581   6.660  11.828  0.0688 -1.2812 -1.0190
10863TIP3    H254081   3.450   6.595  11.869 -0.1154  0.6207  1.6062
10864TIP3   OH254082   4.414   1.941  13.728 -0.4045 -0.1196  0.5605
10864TIP3    H154083   4.433   2.031  13.753  0.9833 -0.0869 -0.5119
10864TIP3    H254084   4.499   1.900  13.719 -0.9973 -1.2838  0.1226
10865TIP3   OH254085   5.951   5.164   2.105 -0.3501 -0.4944 -0.2103
10865TIP3    H154086   5.946   5.087   2.163  1.9712 -0.6107 -0.0653
10865TIP3    H254087   5.860   5.188   2.090 -1.1186 -2.5096  0.7665
10866TIP3   OH254088   2.255   3.425   4.895  0.6671  0.1108 -0.1025
10866TIP3    H154089   2.284   3.488   4.960  0.1468 -0.2763  0.5064
10866TIP3    H254090   2.335   3.377   4.870  0.6771 -0.5445  1.1275
10867TIP3   OH254091   4.709   4.976  15.325 -0.2445 -0.1351  0.1237
10867TIP3    H154092   4.647   4.984  15.397  0.2153 -0.1493  0.5241
10867TIP3    H254093   4.762   4.900  15.347 -1.6027 -1.5878 -1.3878
10868TIP3   OH254094   0.782   0.439  11.505  0.5955 -0.2790 -0.2597
10868TIP3    H154095   0.815   0.480  11.585 -0.1751 -0.0958 -0.0287
10868TIP3    H254096   0.826   0.354  11.502  1.3058  0.0795 -0.1171
10869TIP3   OH254097   4.570   5.260  16.661 -0.6722 -0.4334  0.1675
10869TIP3    H154098   4.592   5.183  16.714 -1.1728 -1.1505 -0.6267
10869TIP3    H254099   4.645   5.270  16.602 -1.4102 -1.5202 -1.0298
10870TIP3   OH254100   2.081   5.956   3.518  0.2367 -0.6149  0.5359
10870TIP3    H154101   2.059   5.973   3.610  2.4527  0.0939  0.9830
10870TIP3    H254102   2.176   5.956   3.516  0.2418  0.0999 -1.8955
10871TIP3   OH254103   2.400   0.988   5.466 -0.4746  0.7769  0.2994
10871TIP3    H154104   2.337   1.007   5.536 -2.4684  0.7465 -1.3936
10871TIP3    H254105   2.362   1.029   5.389  2.1535  1.6475 -0.6162
10872TIP3   OH254106   0.663   6.821   2.525 -0.3829 -0.4248  0.2341
10872TIP3    H154107   0.753   6.844   2.503 -0.6950  1.7445  0.9595
10872TIP3    H254108   0.626   6.787   2.444  0.5301  0.5822 -0.6308
10873TIP3   OH254109   2.234   0.456   3.595 -0.3575 -0.4772 -0.0217
10873TIP3    H154110   2.194   0.369   3.601  1.0475 -1.0965  0.8247
10873TIP3    H254111   2.328   0.439   3.593 -0.0432  1.0427  0.5137
10874TIP3   OH254112   5.610   5.658  14.333  0.0776 -0.3263  0.0136
10874TIP3    H154113   5.628   5.729  14.271 -0.2812 -0.2707 -0.0269
10874TIP3    H254114   5.683   5.598  14.321  0.7085  0.3368  0.4913
10875TIP3   OH254115   1.573   0.074   0.421  0.0832  0.3179 -0.2815
10875TIP3    H154116   1.503   0.132   0.391  0.8126  1.5040  0.2142
10875TIP3    H254117   1.590   0.102   0.511  1.2346  0.1192 -0.4114
10876TIP3   OH254118   0.862   0.010  11.815 -0.6988 -0.8732  0.0063
10876TIP3    H154119   0.775   0.026  11.777 -0.9150 -1.2541  0.3279
10876TIP3    H254120   0.866  -0.085  11.826  0.3577 -1.0192 -1.4008
10877TIP3   OH254121   6.305   6.545   5.422 -0.4944 -0.3334 -0.0179
10877TIP3    H154122   6.370   6.504   5.480  1.0452  0.0743 -1.3832
10877TIP3    H254123   6.239   6.478   5.409  0.2689 -1.2041  0.4462
10878TIP3   OH254124   0.677   2.937   3.880 -0.1745 -0.0061  0.6873
10878TIP3    H154125   0.626   2.946   3.800  1.0920  1.7259 -0.0047
10878TIP3    H254126   0.712   2.848   3.876 -0.9132 -0.2766 -0.1806
10879TIP3   OH254127   2.786   2.111  14.065 -0.4970 -0.6396  0.3693
10879TIP3    H154128   2.720   2.158  14.015  0.0290  0.7281  0.9047
10879TIP3    H254129   2.865   2.117  14.011  0.1706  1.1600  1.4314
10880TIP3   OH254130   4.239   1.234   4.846  0.0945 -0.2067 -0.3124
10880TIP3    H154131   4.184   1.248   4.769 -1.1104  1.4995  0.7788
10880TIP3    H254132   4.324   1.270   4.822  0.3092 -1.4004 -1.4613
10881TIP3   OH254133   3.992   1.031   3.092 -0.2166  0.2883  0.3949
10881TIP3    H154134   4.066   0.980   3.059  0.8180  1.3713  0.9635
10881TIP3    H254135   4.033   1.107   3.134 -1.6884  1.3856 -0.0916
10882TIP3   OH254136   0.094   2.491   1.728  0.0094 -0.0163 -0.0830
10882TIP3    H154137   0.174   2.442   1.745  0.4141  0.3127 -1.0091
10882TIP3    H254138   0.064   2.459   1.643 -1.4088 -0.8732  0.6990
10883TIP3   OH254139   2.669   6.607   6.008  0.6369  0.2140  0.0284
10883TIP3    H154140   2.745   6.549   6.002 -1.5779 -2.9399 -0.3269
10883TIP3    H254141   2.621   6.575   6.084 -1.4172  0.5536 -1.0491
10884TIP3   OH254142   0.096   5.433   0.398 -0.3354  0.3976 -0.0992
10884TIP3    H154143   0.022   5.383   0.433 -0.0434  0.3850  0.5007
10884TIP3    H254144   0.057   5.515   0.368 -0.6164  0.3345  0.0815
10885TIP3   OH254145   6.469   5.015   6.204  0.2062 -0.4513 -0.3607
10885TIP3    H154146   6.475   4.922   6.185  0.7242 -0.5658  0.3549
10885TIP3    H254147   6.425   5.020   6.288  1.4302 -0.1179  0.2784
10886TIP3   OH254148   6.043   1.336  14.701 -0.0917 -0.6466 -0.2207
10886TIP3    H154149   6.082   1.253  14.675  1.8657 -0.1189  0.7936
10886TIP3    H254150   6.054   1.393  14.625  2.1154 -0.2316  0.3330
10887TIP3   OH254151   1.390   2.690  13.038 -0.5456 -0.3124 -1.4039
10887TIP3    H154152   1.328   2.697  13.110  0.1177  1.5582 -0.9446
10887TIP3    H254153   1.336   2.693  12.959 -1.1015  0.6268 -1.0076
10888TIP3   OH254154   4.871   1.776   2.845 -0.3618  0.4182  0.9893
10888TIP3    H154155   4.825   1.702   2.884 -1.4499  1.0435  0.9060
10888TIP3    H254156   4.915   1.819   2.919  0.3368 -0.3345  1.0268
10889TIP3   OH254157   2.402   2.807  12.807 -0.3566 -0.9079  0.1936
10889TIP3    H154158   2.405   2.893  12.764  0.8106  0.1584  2.2602
10889TIP3    H254159   2.422   2.745  12.737  0.0959  0.5957 -1.0860
10890TIP3   OH254160   1.028   3.546   2.033  0.4816  0.1965  0.0167
10890TIP3    H154161   1.063   3.548   1.943 -1.7440 -0.7198 -0.9402
10890TIP3    H254162   0.933   3.543   2.021  0.1542 -0.6368  2.4012
10891TIP3   OH254163   1.891   2.673  16.389 -0.0222  0.0523  0.1257
10891TIP3    H154164   1.973   2.660  16.341 -0.3238  0.8849 -0.6426
10891TIP3    H254165   1.825   2.627  16.337 -0.1467 -0.0856  0.4039
10892TIP3   OH254166   2.573   4.492  14.899  0.2143 -0.2940 -0.4081
10892TIP3    H154167   2.483   4.465  14.919 -0.5427  0.2566 -2.8121
10892TIP3    H254168   2.563   4.570  14.844  2.2169  0.5168  0.3046
10893TIP3   OH254169   2.243   0.965  12.488 -0.2854  0.3257  0.1588
10893TIP3    H154170   2.181   0.942  12.419  0.9830 -0.5498 -0.7372
10893TIP3    H254171   2.326   0.929  12.458  0.5185  0.8507  1.6632
10894TIP3   OH254172   2.103   2.856   5.442 -0.1763 -0.4243  0.1524
10894TIP3    H154173   2.193   2.860   5.411 -1.2177 -0.6755 -3.3979
10894TIP3    H254174   2.067   2.943   5.423 -1.2303 -0.9881 -0.5410
10895TIP3   OH254175   0.741   6.788  13.787  0.5361  0.1107 -0.1912
10895TIP3    H154176   0.756   6.763  13.878 -0.0795  0.5547  0.0325
10895TIP3    H254177   0.733   6.883  13.788  2.7543  0.3531 -1.0324
10896TIP3   OH254178   3.342   3.282   1.752  0.1042 -0.6688 -0.3585
10896TIP3    H154179   3.251   3.311   1.759  0.3476 -0.3465  2.0505
10896TIP3    H254180   3.361   3.240   1.835  1.9541 -1.4450 -1.1126
10897TIP3   OH254181   0.260   5.350  10.567 -0.0837  0.0743  0.0968
10897TIP3    H154182   0.276   5.256  10.562  2.0452  0.2508  2.0119
10897TIP3    H254183   0.326   5.389  10.510 -0.3173  0.4386  0.0717
10898TIP3   OH254184   3.202   6.839  11.781 -0.9008 -0.0014  0.7206
10898TIP3    H154185   3.207   6.776  11.852  0.2987 -0.9485 -0.1371
10898TIP3    H254186   3.121   6.887  11.795 -1.0615 -0.6929  2.2664
10899TIP3   OH254187   3.806   1.692  16.564 -0.1616  0.5622  0.3548
10899TIP3    H154188   3.750   1.761  16.600  0.9774  1.4992  0.3825
10899TIP3    H254189   3.844   1.730  16.485 -2.0456 -1.2054 -1.5454
10900TIP3   OH254190   3.150   5.348   4.431 -0.4748  0.0991 -0.3493
10900TIP3    H154191   3.155   5.359   4.335  2.3419 -0.8179 -0.4142
10900TIP3    H254192   3.208   5.274   4.449 -0.5319  0.5954  2.1354
10901TIP3   OH254193   6.116   4.377   1.282  0.8018 -0.1736 -0.0822
10901TIP3    H154194   6.055   4.436   1.237  2.6089  2.5416  0.7812
10901TIP3    H254195   6.138   4.311   1.216  0.4692  1.4875 -1.9623
10902TIP3   OH254196   1.113   4.292  15.781  0.8521  0.3930 -0.1612
10902TIP3    H154197   1.106   4.279  15.876 -1.3645 -1.3936 -0.4863
10902TIP3    H254198   1.131   4.385  15.770  0.3675  0.7761  1.9792
10903TIP3   OH254199   2.233   2.027  13.976  0.6035 -0.4828  0.2503
10903TIP3    H154200   2.275   1.950  14.014  1.1334 -0.1269  0.3875
10903TIP3    H254201   2.304   2.077  13.936 -0.1002 -1.6965 -2.8070
10904TIP3   OH254202   3.484   0.218  15.140 -0.2090  0.1331  0.1559
10904TIP3    H154203   3.443   0.186  15.060 -0.2711  2.4541 -0.8412
10904TIP3    H254204   3.412   0.257  15.190  0.0883  0.1685  0.5641
10905TIP3   OH254205   1.831   3.653   4.221  0.5948  0.7126 -0.1344
10905TIP3    H154206   1.853   3.560   4.216 -1.3255  0.1859  0.3175
10905TIP3    H254207   1.851   3.687   4.135  0.7223 -0.2829 -0.5164
10906TIP3   OH254208   3.516   1.071   3.291 -0.0498  0.3338  0.0902
10906TIP3    H154209   3.608   1.092   3.301 -0.0182 -0.1189  0.8091
10906TIP3    H254210   3.515   0.981   3.260 -0.2615 -0.1144  1.3355
10907TIP3   OH254211   0.625   5.923   2.299  0.4967  0.2363  0.2549
10907TIP3    H154212   0.542   5.879   2.282  1.5887 -1.5670 -0.7061
10907TIP3    H254213   0.678   5.905   2.221  2.2468  0.1832  1.4043
10908TIP3   OH254214   0.678   0.605   4.362  0.6197 -0.6290  0.1440
10908TIP3    H154215   0.609   0.580   4.301 -0.5487 -0.3460  1.2987
10908TIP3    H254216   0.648   0.688   4.399  1.4135 -0.6751  0.9261
10909TIP3   OH254217   1.552   6.358  15.116 -0.2263 -0.0953 -0.0045
10909TIP3    H154218   1.611   6.359  15.041  0.9303  0.2082  0.8747
10909TIP3    H254219   1.477   6.411  15.089  0.3490  0.3235 -0.8022
10910TIP3   OH254220   2.735   2.637  17.118 -0.1994 -0.2439 -0.3729
10910TIP3    H154221   2.826   2.668  17.121 -0.3295  0.1826 -0.7052
10910TIP3    H254222   2.725   2.600  17.030 -1.2344  2.5479 -1.5319
10911TIP3   OH254223   0.165   4.992  16.019  0.1670 -0.1287  0.2887
10911TIP3    H154224   0.116   5.073  16.007  1.5892  0.6378 -0.5791
10911TIP3    H254225   0.192   4.993  16.110 -1.0648 -0.3831  0.6797
10912TIP3   OH254226   3.829   5.580  14.000  0.1040 -0.3680  0.3121
10912TIP3    H154227   3.829   5.676  14.000 -1.7433 -0.3256 -0.1366
10912TIP3    H254228   3.922   5.556  13.998  0.5935  1.4090 -0.3582
10913TIP3   OH254229   1.640   6.016  12.638 -0.4832  0.0482 -0.2266
10913TIP3    H154230   1.618   5.939  12.585  0.6753 -0.1095 -0.5211
10913TIP3    H254231   1.730   5.999  12.667 -0.0323  1.5117 -0.6948
10914TIP3   OH254232   6.762   6.186   4.200  0.1872 -0.2050 -0.3815
10914TIP3    H154233   6.855   6.188   4.220 -0.0934 -0.3929  1.0271
10914TIP3    H254234   6.721   6.236   4.271 -1.0822 -2.9146  0.9679
10915TIP3   OH254235   3.195   1.865  13.473 -0.1545 -0.0103  0.0959
10915TIP3    H154236   3.161   1.919  13.401 -1.3445 -0.4395  0.3056
10915TIP3    H254237   3.124   1.864  13.537  0.0407 -1.3906  0.3179
10916TIP3   OH254238   2.260   6.407  15.823  0.1175 -0.2718  0.3424
10916TIP3    H154239   2.276   6.399  15.917 -0.8767 -0.7339  0.4797
10916TIP3    H254240   2.203   6.483  15.814  0.9323  0.3230  0.0125
10917TIP3   OH254241   0.153   1.627   0.573 -0.2970 -0.0798  0.4089
10917TIP3    H154242   0.205   1.549   0.593  1.6565  0.6342 -1.5139
10917TIP3    H254243   0.140   1.669   0.658  0.1520 -1.5600  1.2471
10918TIP3   OH254244   2.763   1.218  16.039  0.1394  0.1273  0.4076
10918TIP3    H154245   2.728   1.133  16.013  0.1603  0.3795 -0.5021
10918TIP3    H254246   2.732   1.231  16.128  0.7717 -1.1688  0.8382
10919TIP3   OH254247   0.855   6.452  16.434  0.4564 -0.4659  0.3109
10919TIP3    H154248   0.852   6.458  16.529 -0.9460  0.3182  0.2455
10919TIP3    H254249   0.763   6.441  16.408  0.7961 -0.4359 -0.9580
10920TIP3   OH254250   2.753   6.206  16.007  0.0922  0.6541  0.0998
10920TIP3    H154251   2.734   6.204  16.101 -0.4391 -1.0488 -0.0134
10920TIP3    H254252   2.729   6.119  15.976  0.5873  1.0806 -1.5643
10921TIP3   OH254253   3.935   0.148   3.962 -0.4870  0.8091 -0.1331
10921TIP3    H154254   3.955   0.122   3.872  0.3362  1.5206 -0.1748
10921TIP3    H254255   3.922   0.065   4.009 -0.8086  0.4290 -0.8709
10922TIP3   OH254256   1.453   4.329   5.024 -0.1276 -0.1586  0.1348
10922TIP3    H154257   1.359   4.324   5.007 -0.3856 -2.3141  1.7573
10922TIP3    H254258   1.485   4.397   4.964 -2.7344  0.8430 -0.2486
10923TIP3   OH254259   2.565   1.486   5.163  0.8855  0.2980  0.1997
10923TIP3    H154260   2.619   1.424   5.212  0.3632  0.2840  0.7593
10923TIP3    H254261   2.616   1.503   5.083  1.1145 -0.7162  0.1112
10924TIP3   OH254262   3.516   1.962   2.647  0.4628  0.0471 -0.0938
10924TIP3    H154263   3.463   1.889   2.680  1.0954 -0.9522 -1.2208
10924TIP3    H254264   3.503   1.961   2.552  2.4486 -0.1977 -0.3904
10925TIP3   OH254265   2.289   0.822   0.618 -0.0910 -0.0910  1.1345
10925TIP3    H154266   2.377   0.854   0.598  0.7760 -2.5180  0.7259
10925TIP3    H254267   2.232   0.898   0.605  1.5836  0.8535 -1.3886
10926TIP3   OH254268   5.269   5.520   4.417 -0.1131  0.3201 -0.1023
10926TIP3    H154269   5.262   5.613   4.439  0.2890  0.2360  0.3977
10926TIP3    H254270   5.351   5.492   4.458  1.0383  0.3041 -2.2914
10927TIP3   OH254271   5.338   3.944   0.896 -0.2769 -0.6130  0.0731
10927TIP3    H154272   5.332   3.889   0.974  0.8155 -0.5069  0.2505
10927TIP3    H254273   5.400   3.897   0.839 -1.7369 -1.1553 -1.1361
10928TIP3   OH254274   5.542   0.918  14.846 -0.0578  0.9488  0.7161
10928TIP3    H154275   5.521   0.942  14.756 -2.4321  1.5845  1.3572
10928TIP3    H254276   5.628   0.876  14.841 -0.8721 -0.5968 -2.0709
10929TIP3   OH254277   3.430   3.015   4.412  0.2489  0.0209  0.5712
10929TIP3    H154278   3.432   3.091   4.353 -0.7072 -0.6020 -0.2899
10929TIP3    H254279   3.516   3.016   4.454  1.6465 -0.3999 -2.0105
10930TIP3   OH254280   2.440   6.318   3.510 -0.5328 -0.4635  0.0936
10930TIP3    H154281   2.387   6.277   3.442 -0.3368  0.7639 -0.8315
10930TIP3    H254282   2.474   6.398   3.469  0.7762 -0.4357  1.1579
10931TIP3   OH254283   2.320   2.081   4.930  0.8848  0.0726  0.3889
10931TIP3    H154284   2.344   2.000   4.975  0.3896  0.2267  0.9385
10931TIP3    H254285   2.231   2.066   4.899  1.2637 -0.0843 -0.6827
10932TIP3   OH254286   6.457   2.159   4.234  0.2874  0.3784  0.7612
10932TIP3    H154287   6.412   2.080   4.265 -0.7970  0.4226 -0.6332
10932TIP3    H254288   6.427   2.227   4.294 -0.1997  0.0747  0.8778
10933TIP3   OH254289   6.258   0.169   0.157  0.8451 -0.0886  0.1692
10933TIP3    H154290   6.182   0.139   0.108 -0.7824  1.4741  1.5930
10933TIP3    H254291   6.323   0.193   0.091 -0.3603 -0.2758 -1.1077
10934TIP3   OH254292   1.769   0.666  17.048  0.2646 -0.5703 -0.5369
10934TIP3    H154293   1.738   0.595  17.104 -2.2031 -0.0635 -1.1304
10934TIP3    H254294   1.754   0.634  16.959  0.2687  0.2170 -0.8288
10935TIP3   OH254295   2.830   3.577   1.761 -0.3197  0.1250 -0.0611
10935TIP3    H154296   2.892   3.545   1.695  0.7821 -2.2267  1.9140
10935TIP3    H254297   2.849   3.670   1.769  3.8621 -0.5996  1.1412
10936TIP3   OH254298   3.692   3.556   5.256 -0.0586 -0.4447 -0.2277
10936TIP3    H154299   3.612   3.525   5.215 -1.5584  0.9160  1.4853
10936TIP3    H254300   3.696   3.509   5.340  0.1944  0.4550  0.2843
10937TIP3   OH254301   5.074   6.462   2.457  0.6473 -0.0821 -0.0545
10937TIP3    H154302   5.085   6.542   2.510  0.6061  1.1991 -1.8837
10937TIP3    H254303   4.980   6.451   2.451  0.6400  0.1612 -0.4041
10938TIP3   OH254304   2.452   2.569   0.041 -0.3263 -0.2062 -0.8664
10938TIP3    H154305   2.443   2.483   0.081 -1.5832 -0.6888 -2.1163
10938TIP3    H254306   2.546   2.583   0.034 -0.0993 -0.8696  0.5882
10939TIP3   OH254307   0.016   4.094   0.825 -0.5250  0.8292  0.3447
10939TIP3    H154308   0.091   4.050   0.865 -1.2282 -2.3262 -1.5002
10939TIP3    H254309   0.050   4.129   0.743 -1.2190 -2.0041 -1.2938
10940TIP3   OH254310   4.145   6.595   4.385  0.6013 -0.7446 -0.1153
10940TIP3    H154311   4.088   6.561   4.454  2.4394 -4.2095 -0.1077
10940TIP3    H254312   4.218   6.636   4.433  0.3756 -0.3756 -0.0797
10941TIP3   OH254313   1.370   5.765  11.716 -0.0169  0.0667 -0.4702
10941TIP3    H154314   1.292   5.765  11.772  0.7374 -0.2902  0.6179
10941TIP3    H254315   1.418   5.843  11.741 -0.1530  0.4419 -1.3455
10942TIP3   OH254316   0.454   0.199  14.942 -0.1022 -0.2731  0.6204
10942TIP3    H154317   0.504   0.185  14.862  1.0665  0.6497  1.1559
10942TIP3    H254318   0.520   0.217  15.009 -1.0683 -0.7536  1.7346
10943TIP3   OH254319   6.123   5.501   5.474 -0.0827 -1.2105  0.2549
10943TIP3    H154320   6.043   5.449   5.482 -0.9706  0.0224 -0.4328
10943TIP3    H254321   6.102   5.569   5.411  0.4911  1.0125  2.3090
10944TIP3   OH254322   0.354   6.089  14.112  0.1438  0.0066 -0.4155
10944TIP3    H154323   0.317   6.052  14.032  1.7213  0.4365 -1.3887
10944TIP3    H254324   0.416   6.155  14.082 -1.6947  2.6867  1.2438
10945TIP3   OH254325   2.340   5.821   4.986  0.0978  0.2095  0.1125
10945TIP3    H154326   2.354   5.843   4.894 -0.4001  0.3300  0.0644
10945TIP3    H254327   2.249   5.791   4.990  0.0051  0.5406  0.6257
10946TIP3   OH254328   6.708   5.636  15.117  0.4135 -0.4477  0.1274
10946TIP3    H154329   6.797   5.614  15.146  1.1774 -0.0682 -1.7730
10946TIP3    H254330   6.708   5.616  15.024 -1.7545 -1.1267  0.2397
10947TIP3   OH254331   0.853   4.927  12.422  0.5537 -0.5092  0.5179
10947TIP3    H154332   0.829   5.004  12.474 -0.9437 -0.3284 -0.3971
10947TIP3    H254333   0.790   4.925  12.351  0.4568 -2.6776  0.6000
10948TIP3   OH254334   2.453   5.339  11.827  0.1792  0.1095  0.5546
10948TIP3    H154335   2.367   5.297  11.822 -0.2384  0.9941  0.1676
10948TIP3    H254336   2.493   5.302  11.905 -0.8957  0.3150  1.2221
10949TIP3   OH254337   5.330   1.244   2.951 -0.0549  0.3960  0.6533
10949TIP3    H154338   5.254   1.205   2.994 -1.2296  1.0806 -0.6913
10949TIP3    H254339   5.401   1.233   3.013 -1.1831 -0.5263  1.8500
10950TIP3   OH254340   2.200   2.694   2.981  0.0342 -0.4044 -0.0068
10950TIP3    H154341   2.287   2.656   2.965  0.2996 -0.2176  0.9447
10950TIP3    H254342   2.212   2.748   3.059 -0.6064  0.7596 -0.7046
10951TIP3   OH254343   1.796   4.330   1.945 -0.1846  0.8667 -0.1635
10951TIP3    H154344   1.746   4.388   1.888  0.3023  0.7419 -0.7182
10951TIP3    H254345   1.784   4.243   1.908 -0.7022  0.6370  0.5204
10952TIP3   OH254346   2.692   1.294   1.976 -0.7627  0.2122  0.2701
10952TIP3    H154347   2.762   1.347   2.014  0.5446 -1.0528 -0.2829
10952TIP3    H254348   2.731   1.257   1.896 -1.8804 -0.9261  0.2219
10953TIP3   OH254349   6.515   3.530   0.920  0.1782 -0.2317 -0.6017
10953TIP3    H154350   6.550   3.581   0.993 -2.2266  0.7555 -0.0707
10953TIP3    H254351   6.581   3.540   0.851  1.8004  0.0171  0.9059
10954TIP3   OH254352   1.411   1.587  15.211 -0.5349  0.3716  0.0799
10954TIP3    H154353   1.317   1.584  15.196 -0.2613 -0.3933 -1.7668
10954TIP3    H254354   1.431   1.680  15.222 -1.7160  0.4189  2.3836
10955TIP3   OH254355   0.721   5.495  14.326 -0.7654 -0.3030  0.0606
10955TIP3    H154356   0.742   5.572  14.272 -0.6159 -0.8222 -0.6267
10955TIP3    H254357   0.792   5.492  14.391  0.1932 -0.8622 -0.9914
10956TIP3   OH254358   3.766   6.024  13.424 -0.3058  0.0851  0.8079
10956TIP3    H154359   3.763   5.937  13.385 -0.3999  0.3777  0.1413
10956TIP3    H254360   3.859   6.044  13.433 -0.2599  0.6168 -0.6695
10957TIP3   OH254361   1.085   6.380   1.443 -0.7040  0.3609  0.8213
10957TIP3    H154362   0.992   6.358   1.437 -0.3394 -0.9078 -2.1332
10957TIP3    H254363   1.129   6.312   1.392  2.0806 -0.0024  3.4162
10958TIP3   OH254364   2.410   5.025   3.410 -0.5422  0.2416 -0.4955
10958TIP3    H154365   2.354   4.991   3.479 -0.7114 -0.6574 -1.0680
10958TIP3    H254366   2.450   5.104   3.449  0.1372 -0.7771  0.9834
10959TIP3   OH254367   2.527   0.379  11.356 -0.5182  0.0352  0.0588
10959TIP3    H154368   2.476   0.387  11.437 -0.2684  1.9849  0.0800
10959TIP3    H254369   2.494   0.299  11.315 -0.5270 -1.1124  2.1482
10960TIP3   OH254370   0.252   0.412   3.193 -0.2231 -0.2119 -0.5219
10960TIP3    H154371   0.180   0.416   3.130 -1.8330  0.8321  1.2760
10960TIP3    H254372   0.210   0.389   3.276  1.6552 -0.4727  0.4005
10961TIP3   OH254373   0.305   2.189  12.080 -0.1382 -0.5865 -0.9227
10961TIP3    H154374   0.236   2.160  12.138  0.3664 -1.2658 -0.6567
10961TIP3    H254375   0.259   2.216  12.000 -0.8355  0.4103 -0.2053
10962TIP3   OH254376   0.260   3.100  14.305 -0.4660  0.3533 -0.5088
10962TIP3    H154377   0.338   3.074  14.354 -0.1855  1.8806 -0.1158
10962TIP3    H254378   0.238   3.022  14.253  1.5631  0.0258 -0.9534
10963TIP3   OH254379   6.469   2.642  16.264 -0.2249  0.8266 -0.0315
10963TIP3    H154380   6.488   2.717  16.208  3.1749 -0.1026 -0.2955
10963TIP3    H254381   6.463   2.679  16.353 -2.6680  1.8636 -0.5237
10964TIP3   OH254382   1.998   0.403  14.826 -0.1409  0.7277 -0.1937
10964TIP3    H154383   2.008   0.498  14.818  1.1105  0.9022  2.4950
10964TIP3    H254384   1.950   0.390  14.907 -0.4774 -0.9619 -0.6231
10965TIP3   OH254385   5.980   5.262   5.787  0.1278 -0.1463 -0.6265
10965TIP3    H154386   5.958   5.225   5.872 -2.1159 -0.2706 -1.2145
10965TIP3    H254387   6.002   5.186   5.733  0.7383 -0.1360 -0.4018
10966TIP3   OH254388   5.112   0.174   1.661  0.0659 -0.4187 -0.5047
10966TIP3    H154389   5.060   0.112   1.713  0.4730 -0.5944 -0.3065
10966TIP3    H254390   5.050   0.244   1.639 -0.1956 -0.5034 -0.0596
10967TIP3   OH254391   2.084   0.798  12.300 -0.4739  0.2222  0.5065
10967TIP3    H154392   1.996   0.767  12.279 -1.0969  1.2840  1.4241
10967TIP3    H254393   2.111   0.848  12.223 -0.8021  0.1445  0.3398
10968TIP3   OH254394   5.389   6.001   5.921  0.5260  0.7665 -0.4105
10968TIP3    H154395   5.398   6.095   5.937  1.1533  0.4142  1.5489
10968TIP3    H254396   5.476   5.965   5.940  0.4092 -0.1816 -1.5362
10969TIP3   OH254397   5.075   2.726  11.025  0.0996 -0.0340 -0.5585
10969TIP3    H154398   5.115   2.723  11.112 -0.8586 -0.0748 -0.1083
10969TIP3    H254399   5.063   2.819  11.007  0.6633 -0.0099 -0.8232
10970TIP3   OH254400   0.278   3.015  16.918  0.1097  0.4282 -0.5481
10970TIP3    H154401   0.275   3.093  16.862  0.9269  1.0227  0.2174
10970TIP3    H254402   0.357   2.969  16.891  0.1426  0.3647 -0.3461
10971TIP3   OH254403   3.816   1.661   1.280  0.1094 -0.1088 -0.1072
10971TIP3    H154404   3.879   1.590   1.265  0.9071  0.4219  0.6421
10971TIP3    H254405   3.871   1.738   1.295 -0.7391  0.5195 -0.1795
10972TIP3   OH254406   6.086   0.812  13.881 -0.0611  0.0849 -0.7191
10972TIP3    H154407   6.158   0.809  13.944 -1.6523  0.4138  1.2215
10972TIP3    H254408   6.089   0.901  13.845  0.0206  0.3679 -0.0301
10973TIP3   OH254409   1.628   6.010  14.696 -0.1441  0.4053  0.3732
10973TIP3    H154410   1.687   5.942  14.728 -0.6145  0.1737  0.7597
10973TIP3    H254411   1.687   6.078  14.662  0.3300 -0.1122  0.1370
10974TIP3   OH254412   4.493   6.257  15.494 -0.5445  0.0764 -0.0105
10974TIP3    H154413   4.459   6.185  15.547 -1.2528  0.1791 -0.3051
10974TIP3    H254414   4.415   6.294  15.452  0.1583 -1.7779 -3.3659
10975TIP3   OH254415   3.001   5.401   5.538 -0.1318  0.5306  0.2486
10975TIP3    H154416   3.067   5.440   5.481 -0.7332 -0.7757 -1.4130
10975TIP3    H254417   2.925   5.458   5.530 -0.2411  0.3071 -0.3389
10976TIP3   OH254418   2.438   2.447  12.902 -0.3440 -0.2492 -0.0710
10976TIP3    H154419   2.454   2.353  12.889  0.9756 -0.1122  0.3726
10976TIP3    H254420   2.385   2.452  12.981 -0.2516 -0.6164  0.0145
10977TIP3   OH254421   5.948   2.529  11.344 -0.0445  0.2356 -0.3000
10977TIP3    H154422   5.982   2.581  11.417 -0.3921 -0.1399  0.1382
10977TIP3    H254423   5.925   2.445  11.384  1.6799 -0.7231 -1.2111
10978TIP3   OH254424   6.720   1.979  14.506 -0.3944 -0.2824 -0.1811
10978TIP3    H154425   6.663   1.903  14.521  1.7592 -1.9849 -0.0454
10978TIP3    H254426   6.745   2.007  14.594 -0.9925  0.4667 -0.2394
10979TIP3   OH254427   2.597   6.013   5.351  0.4576 -0.0454 -0.0530
10979TIP3    H154428   2.554   5.960   5.417  1.8153 -0.0151  0.8964
10979TIP3    H254429   2.554   6.099   5.357 -1.0436 -0.6946 -0.8905
10980TIP3   OH254430   0.814   2.445  12.880 -0.5831 -0.0241 -0.0449
10980TIP3    H154431   0.879   2.431  12.949 -2.5960  1.2341  2.2586
10980TIP3    H254432   0.866   2.460  12.801  1.8401 -1.3913  1.1519
10981TIP3   OH254433   3.472   4.407   0.709  0.3206  0.1523 -0.0492
10981TIP3    H154434   3.455   4.391   0.616 -1.3383  1.6987 -0.0581
10981TIP3    H254435   3.398   4.367   0.754  1.3769 -1.0398  0.6787
10982TIP3   OH254436   5.280   0.778   2.606  0.6530  0.0434 -0.2369
10982TIP3    H154437   5.224   0.709   2.641  2.1649 -1.5272 -0.7905
10982TIP3    H254438   5.332   0.807   2.680 -1.0854  1.8233  0.3882
10983TIP3   OH254439   1.710   5.238   3.963 -0.1376 -0.5617 -0.0674
10983TIP3    H154440   1.774   5.249   4.034  1.1738 -0.2502 -1.2480
10983TIP3    H254441   1.707   5.323   3.920  0.9267 -1.3654 -1.8404
10984TIP3   OH254442   0.760   1.124  10.885  0.5084  0.0454  0.1472
10984TIP3    H154443   0.828   1.190  10.871  0.4262  0.6151  2.0571
10984TIP3    H254444   0.725   1.106  10.798  2.6792  0.1701 -0.8271
10985TIP3   OH254445   0.925   3.509   2.757 -0.3456 -0.3207 -0.2970
10985TIP3    H154446   0.849   3.492   2.701 -0.7187 -1.1566  0.4448
10985TIP3    H254447   0.932   3.604   2.759 -0.8479 -0.2559 -1.0688
10986TIP3   OH254448   6.223   6.828   2.550  0.4272  0.1513 -0.7693
10986TIP3    H154449   6.154   6.821   2.484 -0.2939  0.8525 -0.1198
10986TIP3    H254450   6.300   6.788   2.510 -0.1348  0.1107 -1.8292
10987TIP3   OH254451   4.899   0.539  15.561  0.0785  0.2846  0.2869
10987TIP3    H154452   4.918   0.499  15.476  2.3897  0.4015  0.6750
10987TIP3    H254453   4.816   0.585  15.548  0.3835  0.3383 -1.9121
10988TIP3   OH254454   6.439   4.003   0.690  0.8353  0.0019  0.0902
10988TIP3    H154455   6.501   3.986   0.761 -0.7490 -3.8280  0.7916
10988TIP3    H254456   6.378   4.067   0.726  1.9348  0.5844  0.9592
10989TIP3   OH254457   0.654   1.737   3.881 -0.1598  1.0324 -0.3325
10989TIP3    H154458   0.583   1.792   3.848 -1.9030 -2.2047 -2.6062
10989TIP3    H254459   0.612   1.681   3.947  1.2846  1.5705  1.1185
10990TIP3   OH254460   3.960   3.837  10.908 -0.2242  0.1349  0.2093
10990TIP3    H154461   3.928   3.769  10.848  1.6584 -2.4483  1.9313
10990TIP3    H254462   4.015   3.893  10.852  1.7147 -2.3551 -0.5985
10991TIP3   OH254463   5.796   5.380  14.359  0.0584 -0.5240 -0.3489
10991TIP3    H154464   5.844   5.326  14.422 -0.9023 -0.2644  0.6434
10991TIP3    H254465   5.709   5.340  14.354 -1.3849  1.9801  1.9477
10992TIP3   OH254466   2.213   4.695  12.573 -0.4811 -0.1414  0.2507
10992TIP3    H154467   2.136   4.681  12.517  0.5905  1.6054 -1.8064
10992TIP3    H254468   2.219   4.790  12.581  1.5200 -0.2278  0.2506
10993TIP3   OH254469   0.346   0.895   1.113  0.2286  0.5997  0.5407
10993TIP3    H154470   0.353   0.813   1.161  0.9389  1.0650  1.2626
10993TIP3    H254471   0.433   0.906   1.073 -0.2280  0.4217 -0.5136
10994TIP3   OH254472   2.806   0.213  13.241 -0.0725 -0.1506  0.5176
10994TIP3    H154473   2.795   0.277  13.311  0.4571  1.3223 -0.7056
10994TIP3    H254474   2.899   0.189  13.245  0.2452  0.8384 -0.3923
10995TIP3   OH254475   5.387   4.978   3.506 -0.1139 -0.3571 -0.3559
10995TIP3    H154476   5.455   4.971   3.574 -0.4111  2.0952  0.2886
10995TIP3    H254477   5.307   4.950   3.550  0.2960 -2.7416 -0.9662
10996TIP3   OH254478   6.213   4.421  17.018 -0.1707  0.7270  0.1641
10996TIP3    H154479   6.268   4.370  17.078 -0.3218  0.8966  0.4501
10996TIP3    H254480   6.202   4.505  17.062 -1.5740  0.3160  0.6291
10997TIP3   OH254481   4.659   1.928   4.168  0.3814  0.3829 -0.0201
10997TIP3    H154482   4.657   1.873   4.246  0.7788  1.1757  0.5638
10997TIP3    H254483   4.581   1.983   4.175  0.2740  0.2758 -0.3244
10998TIP3   OH254484   5.124   0.575   5.797  0.2324  0.4460 -0.5750
10998TIP3    H154485   5.152   0.536   5.879  0.3089 -0.2917 -0.9486
10998TIP3    H254486   5.204   0.616   5.762  0.3523  0.1935 -0.5987
10999TIP3   OH254487   1.609   2.370   5.197  0.3460 -0.2327 -0.2943
10999TIP3    H154488   1.622   2.349   5.104 -0.8224  0.7597 -0.6940
10999TIP3    H254489   1.560   2.296   5.232 -0.6935  0.1700 -0.8756
11000TIP3   OH254490   3.993   1.477   1.242 -0.4019  0.0212  0.6966
11000TIP3    H154491   4.073   1.495   1.292 -0.6964 -0.7099  1.4617
11000TIP3    H254492   4.024   1.455   1.154  0.2674 -0.5221  1.0589
11001TIP3   OH254493   6.609   5.508   1.983  0.8421  0.7751 -0.4122
11001TIP3    H154494   6.581   5.600   1.990 -0.2427  0.4507 -0.3414
11001TIP3    H254495   6.535   5.463   1.942  2.0230  0.2182 -1.9991
11002TIP3   OH254496   6.355   6.226  14.317  0.2852  0.6181 -0.3003
11002TIP3    H154497   6.320   6.140  14.294  2.2151 -0.1736 -0.5434
11002TIP3    H254498   6.299   6.257  14.388 -0.9544 -0.4649 -0.7692
11003TIP3   OH254499   0.980   2.150   2.031 -0.2099 -0.6052  0.3892
11003TIP3    H154500   0.946   2.234   2.061 -0.6411 -0.7750  0.3868
11003TIP3    H254501   1.068   2.145   2.068  0.6095  0.7230 -1.2072
11004TIP3   OH254502   0.014   5.437  12.035  0.6953  0.4404  0.1998
11004TIP3    H154503   0.002   5.491  12.113  1.5132  2.0080 -0.7176
11004TIP3    H254504  -0.074   5.404  12.015  0.6760 -1.2235  2.5775
11005TIP3   OH254505   1.609   5.295   5.940  0.2882 -0.1723 -0.0837
11005TIP3    H154506   1.619   5.389   5.925  1.3319 -0.0970  0.9407
11005TIP3    H254507   1.521   5.286   5.976  0.5748  0.5754  0.8585
11006TIP3   OH254508   4.451   3.207   6.633 -0.5317 -0.0807  0.7592
11006TIP3    H154509   4.541   3.186   6.658 -0.8526  0.5817  2.6327
11006TIP3    H254510   4.454   3.299   6.607 -0.4869 -0.3562 -0.2588
11007TIP3   OH254511   2.771   5.880   6.254  0.1714  0.6745  0.1021
11007TIP3    H154512   2.823   5.949   6.212  0.9398  0.7872  1.1783
11007TIP3    H254513   2.817   5.799   6.232 -0.7486  0.4766 -1.1877
11008TIP3   OH254514   6.593   5.969   4.125  0.0073 -0.1705 -0.2921
11008TIP3    H154515   6.555   5.971   4.037  0.3478  1.0218 -0.4244
11008TIP3    H254516   6.643   6.050   4.132  2.2215 -1.4524  0.0254
11009TIP3   OH254517   6.622   2.206  16.119 -0.0150  0.6106  0.5250
11009TIP3    H154518   6.673   2.286  16.125 -0.6986  1.1041 -0.0474
11009TIP3    H254519   6.550   2.228  16.059  1.0053 -1.0783 -1.4514
11010TIP3   OH254520   5.138   5.801   0.814  0.2570 -0.2488 -0.4382
11010TIP3    H154521   5.069   5.739   0.838  3.2246 -3.0840  1.8239
11010TIP3    H254522   5.118   5.880   0.864 -0.6025 -1.5405  1.3776
11011TIP3   OH254523   6.168   3.143   1.628  0.2092  0.1472  0.0779
11011TIP3    H154524   6.227   3.068   1.619 -0.4023 -0.2933 -0.3841
11011TIP3    H254525   6.138   3.139   1.718  1.2302  0.6438  0.4513
11012TIP3   OH254526   5.104   2.422   5.408  0.1500 -0.2475 -0.0854
11012TIP3    H154527   5.027   2.432   5.464  0.1193 -3.2911  0.6231
11012TIP3    H254528   5.158   2.499   5.427 -1.8733  1.0486  0.7383
11013TIP3   OH254529   4.381   4.605  10.767  0.2813  0.0028  0.6192
11013TIP3    H154530   4.463   4.572  10.805 -0.1526  0.2152  1.7816
11013TIP3    H254531   4.350   4.534  10.711  0.7638 -0.4716  0.9486
11014TIP3   OH254532   2.219   3.382  15.187  0.2697  0.0703 -0.3067
11014TIP3    H154533   2.128   3.357  15.198 -0.0680  1.4448  0.2652
11014TIP3    H254534   2.255   3.378  15.276  0.8606 -0.7548 -0.5705
11015TIP3   OH254535   2.613   5.146   4.857  0.1626  0.6990  0.4139
11015TIP3    H154536   2.623   5.225   4.804 -0.8363  1.1760  0.9023
11015TIP3    H254537   2.664   5.079   4.811  1.9562  1.8762  0.5644
11016TIP3   OH254538   0.837   5.513   4.943  0.5481  0.0235  0.1041
11016TIP3    H154539   0.855   5.426   4.909  1.7115  0.9968 -2.0152
11016TIP3    H254540   0.921   5.543   4.979  0.2770  0.4277  0.4135
11017TIP3   OH254541   6.419   2.936   0.083 -0.0118  0.1185 -0.2720
11017TIP3    H154542   6.398   2.916  -0.008  1.5792  0.6268 -0.7815
11017TIP3    H254543   6.475   3.014   0.079  0.0802  0.1637  1.1482
11018TIP3   OH254544   6.346   5.262  13.077  0.1962 -0.1975  0.0588
11018TIP3    H154545   6.365   5.343  13.030  0.0494 -0.3412 -0.2561
11018TIP3    H254546   6.428   5.213  13.075 -0.0410 -0.5881 -0.8360
11019TIP3   OH254547   1.018   2.842   3.918 -0.2445 -0.1422 -0.0743
11019TIP3    H154548   1.076   2.782   3.871 -0.0163 -1.0528  1.3341
11019TIP3    H254549   1.077   2.910   3.951 -0.2429 -0.1137 -0.1345
11020TIP3   OH254550   5.592   1.185  15.622  0.0731  0.4917  0.6206
11020TIP3    H154551   5.526   1.249  15.596  0.4000  0.9795  0.9707
11020TIP3    H254552   5.558   1.146  15.702  0.5111  1.2259  1.1774
11021TIP3   OH254553   3.319   3.945  15.381  0.2576  0.5188 -0.0414
11021TIP3    H154554   3.234   3.938  15.337 -0.0503 -1.4530  0.7794
11021TIP3    H254555   3.342   4.038  15.374 -1.7741  1.0281 -0.6156
11022TIP3   OH254556   1.464   3.961   3.416  0.1178 -0.0525 -0.1547
11022TIP3    H154557   1.393   3.907   3.451 -0.0088 -0.8873 -1.6430
11022TIP3    H254558   1.536   3.899   3.400  0.2324  0.3347 -1.1802
11023TIP3   OH254559   1.335   2.724   2.532 -0.8892 -0.0722 -0.0098
11023TIP3    H154560   1.241   2.708   2.534 -1.2371  1.8758  1.4526
11023TIP3    H254561   1.351   2.762   2.445 -1.0515 -2.2252 -1.0519
11024TIP3   OH254562   3.342   2.810  12.168  0.5536 -0.0501  0.3234
11024TIP3    H154563   3.422   2.833  12.215 -0.1920  0.4199  1.4064
11024TIP3    H254564   3.337   2.874  12.097  1.8409 -0.9406 -0.6183
11025TIP3   OH254565   0.621   5.279   4.781  0.1371  0.2840 -0.1114
11025TIP3    H154566   0.607   5.366   4.746 -0.5055  0.1539 -0.1815
11025TIP3    H254567   0.621   5.222   4.704  0.8497  0.2522 -0.0959
11026TIP3   OH254568   1.246   2.299  13.817 -0.0997 -0.2239  0.5373
11026TIP3    H154569   1.212   2.368  13.873 -1.0033  0.1169 -0.3874
11026TIP3    H254570   1.330   2.276  13.854 -0.7363 -0.1121  2.1060
11027TIP3   OH254571   2.789   0.857   4.189 -0.2402  0.3752  0.7016
11027TIP3    H154572   2.811   0.770   4.221 -1.8137 -0.8915 -1.3391
11027TIP3    H254573   2.833   0.918   4.249  0.6767 -1.7991  2.3524
11028TIP3   OH254574   6.318   2.089  16.966 -0.0912  0.2429 -0.3454
11028TIP3    H154575   6.260   2.013  16.956 -0.8155  0.8570 -0.9220
11028TIP3    H254576   6.349   2.107  16.877 -1.5405  1.8605 -0.5538
11029TIP3   OH254577   0.047   5.164  11.656  0.0375 -0.3365  0.2887
11029TIP3    H154578   0.086   5.234  11.708 -0.4808 -0.0002  0.2281
11029TIP3    H254579  -0.001   5.209  11.587  0.0580 -0.7630 -0.0051
11030TIP3   OH254580   3.502   2.977   2.769  0.4752 -0.8201  0.2306
11030TIP3    H154581   3.557   3.056   2.771  1.3586 -1.4294  1.8854
11030TIP3    H254582   3.554   2.914   2.718 -0.1660 -0.4169 -0.9656
11031TIP3   OH254583   5.950   6.150  13.251  0.3629  0.8665 -0.0294
11031TIP3    H154584   5.959   6.065  13.293 -1.2331  0.0004 -1.3182
11031TIP3    H254585   6.025   6.156  13.192 -0.5424 -0.5812 -1.4012
11032TIP3   OH254586   3.925   4.163  10.675  0.0661 -0.0463  0.1912
11032TIP3    H154587   3.877   4.167  10.757 -0.2303 -0.8664  0.0706
11032TIP3    H254588   3.863   4.124  10.613 -0.4522  2.4468 -0.9858
11033TIP3   OH254589   1.206   5.814  11.449 -0.0522  0.2440 -0.3325
11033TIP3    H154590   1.244   5.900  11.464  0.9951 -0.2366 -0.1744
11033TIP3    H254591   1.278   5.753  11.459 -1.1095 -0.8152  1.2723
11034TIP3   OH254592   5.216   5.471  13.545 -0.2798  0.2357  0.4330
11034TIP3    H154593   5.224   5.481  13.640  0.2779 -0.0580  0.4215
11034TIP3    H254594   5.123   5.454  13.530 -0.2405 -0.5217  1.0085
11035TIP3   OH254595   5.419   5.362  15.958  0.0687  0.0732 -0.2728
11035TIP3    H154596   5.350   5.393  16.017 -0.2025 -1.7989  0.4601
11035TIP3    H254597   5.372   5.331  15.881  0.1524 -0.5009 -0.0934
11036TIP3   OH254598   4.315   3.479  17.035  0.1924 -0.6016  0.1789
11036TIP3    H154599   4.369   3.454  16.960  0.6436 -1.2636  0.7040
11036TIP3    H254600   4.226   3.480  17.002  0.5901  1.6146 -0.9999
11037TIP3   OH254601   4.948   4.900  14.137 -0.6703  0.1530 -0.0560
11037TIP3    H154602   4.931   4.847  14.059  0.6981  1.3501 -1.2331
11037TIP3    H254603   5.017   4.853  14.184 -0.1253  0.4028 -0.6011
11038TIP3   OH254604   3.975   4.706   4.345  0.4240 -0.3610  0.3901
11038TIP3    H154605   3.882   4.684   4.343  0.6216 -1.2178  0.4803
11038TIP3    H254606   3.991   4.750   4.261  0.1292 -1.0137 -0.0117
11039TIP3   OH254607   5.957   1.106  14.450 -0.5823  0.0551 -0.9159
11039TIP3    H154608   5.863   1.101  14.429 -0.7521  1.1434 -0.4922
11039TIP3    H254609   5.999   1.125  14.366 -0.6687 -0.9616 -1.2060
11040TIP3   OH254610   4.419   2.068  14.113 -0.0961 -0.4534 -0.8038
11040TIP3    H154611   4.439   2.122  14.036 -0.4438 -0.9712 -1.2665
11040TIP3    H254612   4.378   2.128  14.175  0.8479  0.1311 -0.7223
11041TIP3   OH254613   5.400   3.082  14.991 -0.2893 -0.0993 -0.1745
11041TIP3    H154614   5.419   3.176  14.991  1.3373 -0.4012  0.2280
11041TIP3    H254615   5.405   3.057  15.083 -2.6152 -0.2743 -0.0214
11042TIP3   OH254616   4.580   4.403   6.124  0.0968 -0.0178 -0.3859
11042TIP3    H154617   4.510   4.376   6.066  1.9129  0.0235 -2.7639
11042TIP3    H254618   4.627   4.471   6.075  2.1890 -0.5418  0.7421
11043TIP3   OH254619   4.191   4.770  13.154  0.3663  0.6495 -0.1124
11043TIP3    H154620   4.266   4.813  13.114  0.3621 -0.2296 -1.0862
11043TIP3    H254621   4.202   4.785  13.248  1.6795  0.6550 -0.2528
11044TIP3   OH254622   6.610   5.338  16.868  0.1692 -0.3755 -0.2210
11044TIP3    H154623   6.551   5.355  16.942  1.4706 -0.5262  0.8782
11044TIP3    H254624   6.683   5.290  16.906  1.5955  0.8423 -1.3206
11045TIP3   OH254625   4.741   0.221  14.404  0.2314 -0.0420 -0.0667
11045TIP3    H154626   4.740   0.155  14.335 -0.4352 -0.2968  0.1865
11045TIP3    H254627   4.649   0.236  14.425  0.4512 -0.9372  1.6935
11046TIP3   OH254628   3.286   1.930  17.043 -0.0599  0.2609 -0.3347
11046TIP3    H154629   3.255   1.928  17.133 -1.8134 -1.0717 -0.9094
11046TIP3    H254630   3.378   1.906  17.048  0.5896  2.7598  1.3001
11047TIP3   OH254631   0.518   3.398  11.439 -0.4597 -0.2073  0.9185
11047TIP3    H154632   0.598   3.407  11.387 -1.4432  1.3299 -0.4299
11047TIP3    H254633   0.484   3.487  11.447 -2.5899 -0.9278  0.5605
11048TIP3   OH254634   2.258   6.484   1.322 -0.3172  0.3465  0.3989
11048TIP3    H154635   2.342   6.526   1.304  0.6951 -0.8248  2.1473
11048TIP3    H254636   2.249   6.417   1.254  0.0194  0.6721  0.0322
11049TIP3   OH254637   1.175   1.550   0.683 -0.2966  0.6787  0.4514
11049TIP3    H154638   1.136   1.485   0.625  0.9895  0.2980 -0.0181
11049TIP3    H254639   1.187   1.627   0.627 -0.2507  0.7407  0.5462
11050TIP3   OH254640   2.533   4.119   6.029 -0.3398  0.7155 -0.3176
11050TIP3    H154641   2.549   4.060   5.955 -2.8384  1.1184 -1.2579
11050TIP3    H254642   2.614   4.170   6.037  1.9579 -2.6462  0.4995
11051TIP3   OH254643   0.410   3.086   0.308 -0.0029  0.2484 -0.5461
11051TIP3    H154644   0.338   3.150   0.304 -0.7145 -0.5266 -0.4762
11051TIP3    H254645   0.385   3.018   0.245  0.4942 -0.2061 -0.2637
11052TIP3   OH254646   0.334   4.749   5.394  0.4343  0.2463 -0.1865
11052TIP3    H154647   0.409   4.795   5.432  0.6005  0.7171 -1.0480
11052TIP3    H254648   0.356   4.740   5.301 -0.0051 -0.7769 -0.2040
11053TIP3   OH254649   6.543   4.659   0.523  0.2829  0.0038  0.2533
11053TIP3    H154650   6.624   4.618   0.553 -0.0567 -0.6957  0.2297
11053TIP3    H254651   6.474   4.617   0.574 -0.2374 -0.7587 -1.0264
11054TIP3   OH254652   1.959   6.187  16.713  0.6070 -0.4401 -0.4584
11054TIP3    H154653   1.966   6.093  16.730 -0.8070 -0.3951  0.5037
11054TIP3    H254654   1.955   6.193  16.617  0.1500 -1.4015 -0.5150
11055TIP3   OH254655   0.329   1.482   6.227  0.1830  0.4316  0.4269
11055TIP3    H154656   0.245   1.494   6.183  1.2310  1.1465 -1.4897
11055TIP3    H254657   0.343   1.387   6.227 -0.3791  0.3503  0.2879
11056TIP3   OH254658   3.388   4.090  12.383 -0.2538 -0.2452  0.1617
11056TIP3    H154659   3.335   4.092  12.304  1.1790  0.7081 -0.8095
11056TIP3    H254660   3.339   4.033  12.443 -2.0746  0.1678 -0.8719
11057TIP3   OH254661   1.755   5.005   0.527 -0.1130  0.0935 -0.3770
11057TIP3    H154662   1.704   4.930   0.498  0.1633 -0.2839  0.0858
11057TIP3    H254663   1.846   4.981   0.510 -0.0685  0.6697 -0.9931
11058TIP3   OH254664   2.073   1.515   3.208  0.2134  0.3400 -0.4578
11058TIP3    H154665   2.125   1.438   3.231  1.3385  1.4232  0.8443
11058TIP3    H254666   2.069   1.566   3.289 -3.2228  0.1858 -0.3588
11059TIP3   OH254667   0.949   4.521  16.345  0.0636 -0.3202 -0.2108
11059TIP3    H154668   0.895   4.480  16.412 -1.4157 -0.1145 -1.2281
11059TIP3    H254669   0.976   4.604  16.384  1.4162 -1.3120  1.0915
11060TIP3   OH254670   5.156   4.021  11.546 -0.1623  0.5629  0.1391
11060TIP3    H154671   5.097   3.975  11.487  0.0298  3.0393 -2.1243
11060TIP3    H254672   5.163   3.963  11.622 -0.5242 -2.7726 -2.1402
11061TIP3   OH254673   2.531   6.280  14.645 -0.2821  0.4336  0.3105
11061TIP3    H154674   2.616   6.319  14.666 -0.7634  0.7589  1.8082
11061TIP3    H254675   2.501   6.243  14.728 -1.6081  0.3351 -0.1938
11062TIP3   OH254676   3.491   0.245  11.583  0.6117  0.6173 -0.8569
11062TIP3    H154677   3.474   0.259  11.676  0.1415 -1.8436 -0.5162
11062TIP3    H254678   3.475   0.331  11.543 -0.8389  1.3316  1.0998
11063TIP3   OH254679   6.286   1.986   1.479  0.1189  0.4644  0.1173
11063TIP3    H154680   6.215   1.959   1.537 -0.0992 -0.0618 -0.3807
11063TIP3    H254681   6.350   1.915   1.484  0.3215  0.6435  0.0870
11064TIP3   OH254682   5.762   3.873  14.075 -0.1347 -0.2078  0.4515
11064TIP3    H154683   5.747   3.966  14.089  0.0058 -0.0153 -0.5711
11064TIP3    H254684   5.802   3.868  13.987 -1.3403 -1.3305 -0.0683
11065TIP3   OH254685   5.314   0.333   1.525 -0.1446  0.0739 -0.4917
11065TIP3    H154686   5.236   0.356   1.475  0.0165 -0.1102 -0.8335
11065TIP3    H254687   5.282   0.317   1.614 -0.5612 -0.3927 -0.7176
11066TIP3   OH254688   4.228   1.394  16.339 -0.6403 -0.6435 -0.3229
11066TIP3    H154689   4.303   1.412  16.396 -1.7374  0.6717  0.8005
11066TIP3    H254690   4.162   1.357  16.397 -1.5426  0.0676 -0.8548
11067TIP3   OH254691   6.780   0.084  14.197 -0.2021  0.4081 -0.4125
11067TIP3    H154692   6.768   0.157  14.137 -3.3608  0.4129  0.0476
11067TIP3    H254693   6.699   0.083  14.249  0.7650 -1.9688  1.1897
11068TIP3   OH254694   1.465   5.237  11.651  0.3100  0.1316 -0.1012
11068TIP3    H154695   1.504   5.200  11.729 -0.5858 -0.1522  0.2275
11068TIP3    H254696   1.533   5.293  11.613  0.7590  0.2381  0.8558
11069TIP3   OH254697   4.813   4.594   2.666 -0.4773 -0.2846 -0.3520
11069TIP3    H154698   4.742   4.537   2.635  1.4561 -1.7953 -2.2461
11069TIP3    H254699   4.851   4.630   2.586  2.1583 -1.0994  0.4619
11070TIP3   OH254700   4.668   4.165  13.605 -0.0234  0.5452 -0.4531
11070TIP3    H154701   4.752   4.143  13.566  0.8902  0.1759  1.5828
11070TIP3    H254702   4.689   4.197  13.693 -2.0421 -0.7456  0.5983
11071TIP3   OH254703   6.504   1.593   1.010  0.0938 -0.3426  0.0062
11071TIP3    H154704   6.567   1.584   1.080 -0.8663  0.9943  1.1031
11071TIP3    H254705   6.556   1.615   0.933  1.0711 -0.7643  0.5358
11072TIP3   OH254706   3.410   2.192  13.610  0.0336 -0.3417 -0.3398
11072TIP3    H154707   3.393   2.176  13.703  2.0478 -0.1328  0.1159
11072TIP3    H254708   3.503   2.215  13.606 -0.6418  2.6531 -2.0337
11073TIP3   OH254709   0.772   4.518  16.085 -0.0891  0.4207  0.2778
11073TIP3    H154710   0.735   4.547  16.169  0.1018 -0.0693  0.5348
11073TIP3    H254711   0.866   4.537  16.093  0.0394 -0.2435  0.4488
11074TIP3   OH254712   2.278   3.831  11.711  0.2551 -0.7383  0.6573
11074TIP3    H154713   2.238   3.899  11.766  1.3082  1.0384 -0.6841
11074TIP3    H254714   2.297   3.875  11.628  0.0876 -2.9559 -0.6260
11075TIP3   OH254715   2.418   6.332  13.931 -0.1734 -0.0508  0.0097
11075TIP3    H154716   2.362   6.407  13.912  0.9387  0.8938  0.3140
11075TIP3    H254717   2.385   6.262  13.875 -1.5142  0.5301  0.0491
11076TIP3   OH254718   2.912   1.528  14.771  0.4035  0.1724 -0.0176
11076TIP3    H154719   2.978   1.591  14.800 -0.8256  1.1919  0.6703
11076TIP3    H254720   2.932   1.449  14.822  1.0818  0.4738  0.2006
11077TIP3   OH254721   5.944   1.226  12.058  0.3505  0.7022  0.5067
11077TIP3    H154722   5.877   1.294  12.064 -0.8670 -0.4158  0.1543
11077TIP3    H254723   5.957   1.213  11.964 -0.6937 -0.7016  0.5188
11078TIP3   OH254724   4.052   3.694  15.266 -0.2742 -0.1400 -0.1548
11078TIP3    H154725   4.056   3.742  15.183 -1.5531  0.2049 -0.0401
11078TIP3    H254726   4.081   3.758  15.331 -0.4858 -0.0067 -0.1895
11079TIP3   OH254727   2.786   4.751   6.056 -0.4262  0.0124  0.1006
11079TIP3    H154728   2.735   4.831   6.067  1.0277  1.1353 -0.8516
11079TIP3    H254729   2.786   4.735   5.962  1.6881  0.6033 -0.0651
11080TIP3   OH254730   5.090   4.177  15.166  0.0292 -0.1813  0.2629
11080TIP3    H154731   5.171   4.163  15.118 -0.3328 -0.8899 -0.1586
11080TIP3    H254732   5.028   4.210  15.101 -0.3910 -0.9014  0.2856
11081TIP3   OH254733   5.346   0.011  16.710 -0.1379 -0.5881 -0.2809
11081TIP3    H154734   5.403  -0.028  16.644  0.3528 -0.6187  0.1456
11081TIP3    H254735   5.404   0.070  16.759 -1.0807  1.5332 -1.5961
11082TIP3   OH254736   2.751   3.817   0.162  0.2113  0.3172 -0.1781
11082TIP3    H154737   2.722   3.906   0.180  0.0442  0.3632 -0.6556
11082TIP3    H254738   2.771   3.780   0.248  0.1782  0.7787  0.0295
11083TIP3   OH254739   5.974   2.185  13.429  0.7885 -0.2345 -0.0701
11083TIP3    H154740   6.041   2.131  13.472  1.5894  0.5852 -0.2376
11083TIP3    H254741   5.900   2.185  13.489  0.0698 -2.9070 -0.8277
11084TIP3   OH254742   3.984   1.895   1.321 -0.7129 -0.3521 -0.1463
11084TIP3    H154743   4.014   1.859   1.237  0.5644  0.6405 -0.1546
11084TIP3    H254744   4.064   1.925   1.364 -1.4724  0.2414  0.9113
11085TIP3   OH254745   5.518   3.832   4.241 -0.2613  1.0461 -0.2983
11085TIP3    H154746   5.593   3.800   4.191 -1.8143 -0.3344 -1.8585
11085TIP3    H254747   5.529   3.794   4.328  0.8141  0.8234 -0.5214
11086TIP3   OH254748   5.973   4.470  12.837 -0.1590  0.1620  0.1288
11086TIP3    H154749   5.931   4.436  12.758  0.5352  0.9897 -0.6303
11086TIP3    H254750   6.054   4.419  12.845  0.2323  0.7123 -0.2478
11087TIP3   OH254751   5.773   2.245  15.628  0.3127 -0.2951 -0.1858
11087TIP3    H154752   5.691   2.195  15.636  0.6576 -0.7530  0.5884
11087TIP3    H254753   5.831   2.186  15.579 -0.2886  0.6435 -2.1444
11088TIP3   OH254754   5.557   6.511   5.105  0.0831 -0.6327  0.1799
11088TIP3    H154755   5.519   6.589   5.145  0.5406 -0.6367  0.6379
11088TIP3    H254756   5.481   6.459   5.076 -0.2216 -0.0936  0.0086
11089TIP3   OH254757   6.555   5.261  16.594  0.3065 -0.6572  0.3725
11089TIP3    H154758   6.559   5.275  16.689 -0.6666 -0.2101  0.3561
11089TIP3    H254759   6.571   5.167  16.584 -0.4139 -0.8733  1.0608
11090TIP3   OH254760   1.991   0.666  11.386  0.0795  0.0459  0.6679
11090TIP3    H154761   1.938   0.746  11.384  0.1923  0.1142  0.2401
11090TIP3    H254762   2.080   0.695  11.363  0.3731 -0.0161  1.7078
11091TIP3   OH254763   4.381   3.831  16.518  0.1194 -0.6442  0.2490
11091TIP3    H154764   4.401   3.924  16.505  2.7710 -1.1210  0.3654
11091TIP3    H254765   4.376   3.821  16.613 -1.0669 -0.4936  0.2178
11092TIP3   OH254766   4.455   6.096   5.049 -0.0618  0.1667 -0.7377
11092TIP3    H154767   4.524   6.101   5.115 -1.8424 -0.7000  1.3103
11092TIP3    H254768   4.433   6.187   5.031 -0.4394  0.4338  0.9139
11093TIP3   OH254769   0.144   1.850   3.493  0.8855 -0.0517  0.1094
11093TIP3    H154770   0.231   1.842   3.530  0.8151 -0.0752  0.2719
11093TIP3    H254771   0.136   1.942   3.469  0.5618  0.1980  1.0941
11094TIP3   OH254772   0.266   6.572   0.632 -0.0239  1.2079  0.3205
11094TIP3    H154773   0.171   6.566   0.636  0.0451 -0.0565  3.5998
11094TIP3    H254774   0.287   6.651   0.683  0.7073  0.7079  0.8171
11095TIP3   OH254775   4.644   5.318  13.615  0.1809  0.0976 -0.0177
11095TIP3    H154776   4.691   5.356  13.540  1.3760 -0.0621  0.6255
11095TIP3    H254777   4.589   5.250  13.576  0.0258  0.6958 -0.8675
11096TIP3   OH254778   2.670   2.425  13.191  0.0932 -0.1349  0.8372
11096TIP3    H154779   2.656   2.461  13.103 -0.0914  1.2065  1.3918
11096TIP3    H254780   2.610   2.351  13.196 -0.9678  0.6614  0.3395
11097TIP3   OH254781   2.069   3.479  14.139  0.0098 -0.4975 -0.1729
11097TIP3    H154782   2.031   3.502  14.224  0.4851 -1.5054  0.3209
11097TIP3    H254783   2.040   3.389  14.124 -1.4317  0.1835 -1.8566
11098TIP3   OH254784   1.633   0.622  12.997 -0.0886 -0.1150 -0.1923
11098TIP3    H154785   1.645   0.563  13.071  1.2458 -2.4807 -2.1360
11098TIP3    H254786   1.550   0.594  12.957 -1.8950  2.4849  1.3994
11099TIP3   OH254787   0.537   4.806   3.076  0.3784 -0.6022  0.7192
11099TIP3    H154788   0.526   4.869   3.147 -0.9738 -0.8115  0.7373
11099TIP3    H254789   0.630   4.787   3.074  0.6629  0.6296  1.3733
11100TIP3   OH254790   0.242   4.765  15.365  0.3217  0.5189 -0.0689
11100TIP3    H154791   0.242   4.793  15.457  0.6919  1.7016 -0.4240
11100TIP3    H254792   0.247   4.669  15.370  3.3225  0.6124  1.1619
11101TIP3   OH254793   5.486   1.826   4.937 -0.2420  0.0409 -0.0849
11101TIP3    H154794   5.457   1.877   5.013 -1.8741 -1.7377  0.5746
11101TIP3    H254795   5.544   1.759   4.974  0.5629  0.3603 -0.7197
11102TIP3   OH254796   2.830   4.100   5.784 -0.0976 -0.2042 -0.1489
11102TIP3    H154797   2.884   4.085   5.706 -0.5716  1.2964 -0.8026
11102TIP3    H254798   2.816   4.194   5.785 -0.9277 -0.3220  1.2198
11103TIP3   OH254799   5.506   1.466  11.118 -0.3104 -0.1160  0.5280
11103TIP3    H154800   5.450   1.476  11.040 -0.1147  0.3087  0.4405
11103TIP3    H254801   5.595   1.475  11.085 -0.2292  0.1353  0.8118
11104TIP3   OH254802   2.364   5.040  11.717 -0.4728  0.4294 -0.6175
11104TIP3    H154803   2.326   5.093  11.786 -0.7043 -0.3233 -0.1534
11104TIP3    H254804   2.293   5.027  11.654 -0.5375  0.3275 -0.5244
11105TIP3   OH254805   4.684   2.393   2.831 -0.0055  0.5447  0.2209
11105TIP3    H154806   4.648   2.316   2.875  0.2662 -0.3639 -1.1024
11105TIP3    H254807   4.658   2.466   2.887  0.4539 -0.5619  1.9672
11106TIP3   OH254808   2.494   6.626  12.383 -0.1412  0.9167 -0.9611
11106TIP3    H154809   2.416   6.631  12.438 -1.3890 -0.0476 -2.5568
11106TIP3    H254810   2.509   6.717  12.355  1.8671  1.8511  2.6146
11107TIP3   OH254811   2.620   6.595  14.128 -0.2827  0.7079 -0.2059
11107TIP3    H154812   2.648   6.524  14.070 -0.1421  1.3294 -0.9184
11107TIP3    H254813   2.534   6.567  14.159 -1.0639  1.0262 -1.9360
11108TIP3   OH254814   6.006   2.812   2.940 -0.5081  0.0984 -0.1324
11108TIP3    H154815   5.936   2.751   2.920 -0.3032  0.1033 -0.8808
11108TIP3    H254816   6.085   2.758   2.943 -0.2062  0.4121 -1.5637
11109TIP3   OH254817   1.728   4.153   4.679 -0.7884  0.6944 -0.0020
11109TIP3    H154818   1.741   4.165   4.585 -0.5201  1.1518  0.0895
11109TIP3    H254819   1.799   4.202   4.720 -1.7166  1.6890  0.4669
11110TIP3   OH254820   2.721   0.462  13.679  0.0922  0.2577 -0.6573
11110TIP3    H154821   2.644   0.405  13.682  0.8862 -0.8342 -0.2587
11110TIP3    H254822   2.705   0.529  13.746 -1.1284  0.8924 -1.5509
11111TIP3   OH254823   0.736   0.133   2.172 -0.1789 -0.2491 -0.2040
11111TIP3    H154824   0.686   0.188   2.111 -0.1068  1.5197  1.2700
11111TIP3    H254825   0.794   0.193   2.217  0.6634 -1.7194  0.7642
11112TIP3   OH254826   5.020   3.000   2.952  0.1670 -0.3062  1.0134
11112TIP3    H154827   5.111   2.990   2.980 -0.0917 -1.2344  1.5595
11112TIP3    H254828   5.025   3.052   2.871  1.3011 -1.5207  0.2694
11113TIP3   OH254829   4.263   2.125   2.708  0.1059  0.5319 -0.1220
11113TIP3    H154830   4.299   2.160   2.626  0.6831 -0.8520 -0.4868
11113TIP3    H254831   4.175   2.095   2.685  0.3755 -0.1223 -0.3157
11114TIP3   OH254832   2.454   1.542  10.880  0.0816  0.0556  0.1915
11114TIP3    H154833   2.421   1.490  10.954  0.5888  1.0479  1.1516
11114TIP3    H254834   2.453   1.481  10.806 -1.7450 -0.5844  0.6757
11115TIP3   OH254835   1.196   1.579  15.758  0.6250  0.2266 -0.3326
11115TIP3    H154836   1.282   1.603  15.791  1.1031 -0.4044 -1.0974
11115TIP3    H254837   1.135   1.627  15.814  1.4799  1.1740 -0.1918
11116TIP3   OH254838   5.641   6.214   0.172  0.0524  0.0479  0.0531
11116TIP3    H154839   5.607   6.301   0.192  0.0851  0.5067 -1.7589
11116TIP3    H254840   5.729   6.213   0.210  0.0157  0.7787  0.1650
11117TIP3   OH254841   0.604   1.399  16.287 -0.2664 -0.2239 -0.2824
11117TIP3    H154842   0.630   1.396  16.195 -1.9187  2.5991 -0.9477
11117TIP3    H254843   0.673   1.448  16.330  0.9213 -2.2302  0.2426
11118TIP3   OH254844   6.617   2.567  13.731  0.2044 -0.3887  0.1757
11118TIP3    H154845   6.554   2.496  13.732  0.0922 -0.2945  1.9917
11118TIP3    H254846   6.574   2.636  13.679 -0.4315 -0.9811 -0.0992
11119TIP3   OH254847   2.918   5.190   3.813  0.2178  0.3257  0.6485
11119TIP3    H154848   2.879   5.124   3.870 -0.5469  1.3981  1.4126
11119TIP3    H254849   3.005   5.156   3.793 -0.1375 -0.8786  1.0529
11120TIP3   OH254850   6.470   2.790   2.824  0.0164 -0.3124 -0.1997
11120TIP3    H154851   6.512   2.705   2.825 -0.5927 -0.6397 -1.3729
11120TIP3    H254852   6.477   2.821   2.734 -0.5275  0.4919  0.0133
11121TIP3   OH254853   3.678   0.474  11.926  0.1990 -0.2430 -0.1172
11121TIP3    H154854   3.756   0.439  11.883  0.6737 -0.2547  0.7417
11121TIP3    H254855   3.624   0.397  11.945 -0.0526 -0.2322 -0.7322
11122TIP3   OH254856   4.884   4.651   4.555 -0.2027 -0.1985  0.5561
11122TIP3    H154857   4.906   4.574   4.607 -1.5675 -1.4273 -0.5795
11122TIP3    H254858   4.825   4.702   4.612 -0.9000 -1.0289  0.6063
11123TIP3   OH254859   3.688   0.842   0.166  0.2354  0.1801 -0.9342
11123TIP3    H154860   3.771   0.862   0.123 -0.1314  0.0474 -1.7115
11123TIP3    H254861   3.711   0.784   0.239  0.9703  1.1372 -0.3801
11124TIP3   OH254862   5.688   0.892   3.077 -0.0024 -0.6568  0.5533
11124TIP3    H154863   5.732   0.819   3.121  0.8078 -1.2089 -1.0958
11124TIP3    H254864   5.725   0.893   2.988 -1.1308  0.7895  0.0530
11125TIP3   OH254865   3.494   6.099   4.367  0.2218  0.0802 -0.9307
11125TIP3    H154866   3.456   6.153   4.298 -3.3933 -0.4039  0.5063
11125TIP3    H254867   3.484   6.009   4.336 -0.8903 -0.1088 -0.0930
11126TIP3   OH254868   4.473   1.957  13.128  0.2544 -0.7511  0.0219
11126TIP3    H154869   4.426   2.034  13.160  1.5884  0.7256 -1.3644
11126TIP3    H254870   4.498   1.910  13.207  0.4924  0.9336  0.9996
11127TIP3   OH254871   2.810   6.704  13.107  0.7748 -0.2527  0.2986
11127TIP3    H154872   2.887   6.749  13.074  0.5704 -0.5960 -0.6933
11127TIP3    H254873   2.789   6.639  13.040  0.3404 -0.9919  1.1189
11128TIP3   OH254874   5.277   1.566  14.197  0.4885  0.1134  0.1095
11128TIP3    H154875   5.316   1.653  14.208 -0.0286  0.3218  0.3464
11128TIP3    H254876   5.213   1.559  14.268  0.7644 -0.6009  0.2895
11129TIP3   OH254877   2.542   5.454   1.037  1.0303 -0.5708  0.0389
11129TIP3    H154878   2.526   5.392   1.108  0.8976 -0.7238 -0.1221
11129TIP3    H254879   2.589   5.403   0.971 -0.6182 -1.0190 -0.8662
11130TIP3   OH254880   2.371   0.047  15.465 -0.1583 -0.0589 -0.1593
11130TIP3    H154881   2.312  -0.024  15.489  1.3900 -0.8483  1.4955
11130TIP3    H254882   2.332   0.125  15.505 -0.9077 -0.2867 -0.4333
11131TIP3   OH254883   3.277   5.078  16.520 -0.1687 -0.2768  0.2983
11131TIP3    H154884   3.345   5.022  16.558  0.6065 -0.1326 -0.8301
11131TIP3    H254885   3.318   5.164  16.511  0.5919 -0.8403 -3.0839
11132TIP3   OH254886   5.636   3.013  11.824 -0.3401  0.1969  0.2073
11132TIP3    H154887   5.578   2.946  11.789 -0.8691  0.3652  0.7629
11132TIP3    H254888   5.660   2.982  11.911 -0.8603  0.8879  0.6066
11133TIP3   OH254889   2.940   6.508   6.042 -0.3490  0.2359  0.2986
11133TIP3    H154890   2.936   6.518   6.137 -0.0803 -1.8126  0.5868
11133TIP3    H254891   3.017   6.558   6.016 -1.2213  1.9873  0.9303
11134TIP3   OH254892   4.140   0.783  12.198 -0.5380  0.3355  0.1453
11134TIP3    H154893   4.112   0.832  12.275 -1.2975 -1.8243  1.3397
11134TIP3    H254894   4.236   0.781  12.206 -0.6500 -1.0073  1.8645
11135TIP3   OH254895   0.358   3.430  12.265  0.5649 -0.1621  0.1559
11135TIP3    H154896   0.362   3.347  12.218  1.1140  0.7932 -1.6183
11135TIP3    H254897   0.444   3.471  12.249 -0.3251  1.5290 -0.6607
11136TIP3   OH254898   6.171   0.214   1.799 -0.5194  0.6835 -0.6839
11136TIP3    H154899   6.178   0.254   1.713 -1.6736  1.0301 -0.6382
11136TIP3    H254900   6.165   0.120   1.781 -0.1223  0.7058 -0.9369
11137TIP3   OH254901   1.293   0.002  12.324 -0.4259  1.0972  0.4335
11137TIP3    H154902   1.282  -0.079  12.275  0.4139  1.0182  0.3730
11137TIP3    H254903   1.387   0.020  12.321 -0.3152  1.0046  2.1391
11138TIP3   OH254904   6.010   2.597  15.043  0.2543  0.1404  0.4999
11138TIP3    H154905   5.927   2.645  15.047 -0.1522 -0.4964 -0.1733
11138TIP3    H254906   5.989   2.510  15.076  0.9820  0.3881  1.6729
11139TIP3   OH254907   5.288   2.713   0.709  0.2099  0.4513  0.0079
11139TIP3    H154908   5.359   2.708   0.645 -1.1682 -0.1685 -1.5265
11139TIP3    H254909   5.277   2.623   0.740  0.7029  0.7070  0.9427
11140TIP3   OH254910   5.998   0.289  15.039 -0.0751  0.0017  0.2452
11140TIP3    H154911   6.011   0.269  15.132  2.1790  2.1291  0.4752
11140TIP3    H254912   6.086   0.305  15.005 -1.0742  2.4487 -1.4578
11141TIP3   OH254913   3.846   3.710   3.899  0.0201  0.6730  0.0684
11141TIP3    H154914   3.831   3.725   3.992  1.5017  1.8681  0.1498
11141TIP3    H254915   3.902   3.782   3.872  1.3591 -0.7961 -1.2660
11142TIP3   OH254916   0.081   2.197   5.627  0.1557  0.0852  0.3551
11142TIP3    H154917   0.005   2.174   5.681  1.1145 -0.8431  1.3760
11142TIP3    H254918   0.154   2.151   5.669  1.6207  2.3866  0.5209
11143TIP3   OH254919   1.676   2.238  15.981 -0.4196  0.2793 -0.4454
11143TIP3    H154920   1.714   2.270  15.898  1.1779 -1.7228 -0.5680
11143TIP3    H254921   1.665   2.144  15.967  1.1629 -0.3645  2.0116
11144TIP3   OH254922   2.250   0.699   4.586  0.4607  0.1513  0.5047
11144TIP3    H154923   2.269   0.701   4.680 -0.7941  0.5762  0.7538
11144TIP3    H254924   2.253   0.790   4.558 -2.9154  0.4928  0.9324
11145TIP3   OH254925   5.136   0.237  13.976  0.3981 -0.3513 -0.3687
11145TIP3    H154926   5.133   0.244  14.071 -0.0821 -2.1194 -0.2192
11145TIP3    H254927   5.224   0.265  13.952  0.7836 -0.6364  0.6727
11146TIP3   OH254928   0.776   4.032  11.570  0.2918  0.2675 -0.3530
11146TIP3    H154929   0.817   3.990  11.646  0.2915  0.3001 -0.3353
11146TIP3    H254930   0.684   4.008  11.577  0.2391  0.5294 -0.1732
11147TIP3   OH254931   0.042   2.498  14.724 -0.3405  0.4641  0.4262
11147TIP3    H154932   0.029   2.432  14.793  0.9476 -0.6483 -0.3389
11147TIP3    H254933   0.091   2.568  14.767  0.2787 -0.1331  0.7215
11148TIP3   OH254934   2.973   0.430  13.177 -0.0257 -0.3836  0.3011
11148TIP3    H154935   2.965   0.496  13.246  0.2612 -0.1859  0.1470
11148TIP3    H254936   2.883   0.407  13.155 -0.1915 -2.5453  2.7414
11149TIP3   OH254937   3.400   0.547   0.840  0.2727 -0.1932  0.1225
11149TIP3    H154938   3.360   0.609   0.778  0.5422 -1.5552 -1.4923
11149TIP3    H254939   3.390   0.589   0.925  0.0819  1.8743 -0.8449
11150TIP3   OH254940   0.681   2.056  12.783 -0.1601 -0.2849 -0.1171
11150TIP3    H154941   0.670   2.136  12.732  1.6296 -0.3360 -0.6171
11150TIP3    H254942   0.647   1.987  12.727 -1.6159  0.0564  0.2745
11151TIP3   OH254943   5.140   2.727  14.535 -0.0504  0.1029 -0.6481
11151TIP3    H154944   5.090   2.765  14.463  1.8039 -0.6302 -2.4325
11151TIP3    H254945   5.202   2.795  14.560 -1.1446  0.6217  0.8286
11152TIP3   OH254946   0.215   6.338   1.181  0.0782  0.5689  0.1846
11152TIP3    H154947   0.257   6.264   1.138 -2.0492 -0.0644 -0.9356
11152TIP3    H254948   0.189   6.304   1.267  0.9173  0.6676  0.4875
11153TIP3   OH254949   4.210   4.742  13.432  0.2255  0.5030 -0.1115
11153TIP3    H154950   4.287   4.785  13.471  1.0569  0.4701 -1.6466
11153TIP3    H254951   4.139   4.763  13.492  1.6023 -0.4030  1.9912
11154TIP3   OH254952   3.353   1.345  16.356  0.3941  0.1789 -0.1551
11154TIP3    H154953   3.301   1.321  16.432 -0.4398 -0.7367 -0.9819
11154TIP3    H254954   3.325   1.435  16.336 -0.0330  0.1063  0.0941
11155TIP3   OH254955   2.144   6.684  15.184 -0.1425 -0.3392 -0.1745
11155TIP3    H154956   2.158   6.692  15.279 -1.7092  0.0245  0.0405
11155TIP3    H254957   2.146   6.590  15.168  4.1164 -0.4266 -0.4844
11156TIP3   OH254958   5.022   2.172  10.819  0.2573  0.5795  0.1416
11156TIP3    H154959   5.063   2.105  10.874 -0.0124  1.2108  1.1273
11156TIP3    H254960   5.006   2.246  10.878  0.5924  1.5443 -0.9300
11157TIP3   OH254961   0.215   1.126  12.033  0.1035 -0.3811 -0.8497
11157TIP3    H154962   0.227   1.102  12.125 -0.2426  0.0395 -0.6941
11157TIP3    H254963   0.225   1.221  12.031  1.4477 -0.5086 -1.4594
11158TIP3   OH254964   6.744   4.006  15.066  0.1606  0.0048 -0.2916
11158TIP3    H154965   6.804   4.064  15.019  1.2453 -0.7740  0.0877
11158TIP3    H254966   6.786   3.920  15.064 -0.7615 -0.4819  0.3251
11159TIP3   OH254967   4.600   6.090   1.517 -0.0061 -0.1235 -0.1935
11159TIP3    H154968   4.565   6.169   1.558 -0.1802  0.5421 -1.5921
11159TIP3    H254969   4.523   6.037   1.497 -0.1173  0.4958 -1.5341
11160TIP3   OH254970   1.407   4.931  16.399 -0.2938 -0.5223 -0.5361
11160TIP3    H154971   1.322   4.960  16.365  0.2433 -0.1367 -1.5665
11160TIP3    H254972   1.407   4.959  16.490 -1.0560 -0.0499 -0.6746
11161TIP3   OH254973   1.510   1.691   1.973 -0.0790  0.4006  0.4691
11161TIP3    H154974   1.578   1.624   1.965 -0.6040  0.1293 -2.7863
11161TIP3    H254975   1.432   1.643   2.002  0.3056  0.2082  1.2295
11162TIP3   OH254976   1.842   1.529  11.216 -0.2411  0.1459 -0.2006
11162TIP3    H154977   1.907   1.501  11.280  0.3531 -1.1204 -1.3146
11162TIP3    H254978   1.783   1.454  11.207 -0.8654  0.6566 -0.4622
11163TIP3   OH254979   3.185   1.214  14.923 -0.7122  0.2284 -0.4725
11163TIP3    H154980   3.199   1.282  14.989 -0.5797  1.4863 -1.7289
11163TIP3    H254981   3.242   1.240  14.850 -2.0034 -0.2185 -1.6806
11164TIP3   OH254982   4.335   4.688   5.601  0.1413 -0.2167 -0.3680
11164TIP3    H154983   4.412   4.728   5.560  1.4315  0.2130  2.3007
11164TIP3    H254984   4.275   4.761   5.617  1.6084  0.4931  2.5693
11165TIP3   OH254985   4.681   6.433  15.308 -0.1044  0.3977 -0.5109
11165TIP3    H154986   4.636   6.499  15.257  0.7808  0.4372 -1.2734
11165TIP3    H254987   4.612   6.385  15.353 -0.7629  1.7679 -0.0267
11166TIP3   OH254988   2.303   3.639  11.916  0.6366  0.1901 -0.2824
11166TIP3    H154989   2.395   3.643  11.942 -0.2599  2.4738  3.0929
11166TIP3    H254990   2.295   3.705  11.847  1.4792  0.0262 -0.5511
11167TIP3   OH254991   5.384   5.412  12.148  0.1403 -0.4671 -0.0582
11167TIP3    H154992   5.359   5.481  12.209 -0.7178 -0.3877 -0.4838
11167TIP3    H254993   5.477   5.428  12.130 -0.1617  0.8882 -0.5309
11168TIP3   OH254994   6.440   2.279   1.660 -0.4438  0.2290  0.4154
11168TIP3    H154995   6.473   2.347   1.719 -0.4789  0.9301 -0.3628
11168TIP3    H254996   6.411   2.209   1.719  0.1846  0.6126  1.1988
11169TIP3   OH254997   1.641   5.662  12.105  0.2135  0.4687 -0.3161
11169TIP3    H154998   1.614   5.579  12.066 -0.0110 -0.2911  1.3839
11169TIP3    H254999   1.724   5.682  12.063 -0.0712 -0.2545 -1.2558
11170TIP3   OH255000   3.874   4.685  15.425  0.5096  0.7519 -0.3034
11170TIP3    H155001   3.964   4.667  15.453 -0.5047 -0.2036  2.7306
11170TIP3    H255002   3.856   4.774  15.455 -0.0575  0.3371  0.6316
11171TIP3   OH255003   6.757   4.773  15.575  0.4541 -0.1956 -0.3172
11171TIP3    H155004   6.831   4.712  15.580  0.3499 -0.2337  0.9099
11171TIP3    H255005   6.755   4.817  15.660 -2.2539 -1.7843  0.5668
11172TIP3   OH255006   4.237   6.286   1.355 -0.2323  0.2282 -0.6209
11172TIP3    H155007   4.281   6.202   1.364 -0.1495  0.3004 -0.3336
11172TIP3    H255008   4.308   6.349   1.339 -0.1298  0.4742  0.6601
11173TIP3   OH255009   6.116   3.528  10.601 -0.4348  0.6114 -0.1741
11173TIP3    H155010   6.185   3.588  10.628 -1.3322  1.5636  0.0941
11173TIP3    H255011   6.162   3.451  10.568  0.7431  1.4294 -0.4960
11174TIP3   OH255012   0.204   0.095   0.140  0.4765  0.1306  0.3955
11174TIP3    H155013   0.235   0.153   0.071  1.3013  0.5390  1.0990
11174TIP3    H255014   0.273   0.096   0.206  0.1454 -1.0182  0.7901
11175TIP3   OH255015   6.770   3.666  12.971 -0.2099  0.2050 -0.1026
11175TIP3    H155016   6.859   3.633  12.958 -0.4153 -0.0284 -0.9728
11175TIP3    H255017   6.713   3.591  12.952 -0.6242  0.6045 -0.4602
11176TIP3   OH255018   1.789   0.745   0.562  0.1143  0.0410 -0.4593
11176TIP3    H155019   1.732   0.683   0.607  1.2783 -0.3445  0.5215
11176TIP3    H255020   1.872   0.741   0.609  1.0390  0.4487 -1.9650
11177TIP3   OH255021   4.909   2.867  11.644 -0.6272  0.9717 -0.6927
11177TIP3    H155022   4.814   2.875  11.652 -1.0934  0.1991 -4.0069
11177TIP3    H255023   4.926   2.775  11.665 -0.4607  1.2919  0.6569
11178TIP3   OH255024   2.904   6.052  12.853  0.3313  0.0887  0.3123
11178TIP3    H155025   2.827   6.026  12.804  0.9399 -0.8912 -0.1450
11178TIP3    H255026   2.975   6.052  12.789  0.8854  0.0956  0.9110
11179TIP3   OH255027   3.628   5.035   3.474  0.0045  0.6208  0.2990
11179TIP3    H155028   3.559   4.991   3.524 -0.6382  0.3154 -0.8017
11179TIP3    H255029   3.660   4.968   3.413  1.2746  0.7685  0.7809
11180TIP3   OH255030   0.206   5.370   0.989 -0.6802 -0.3196 -0.1135
11180TIP3    H155031   0.145   5.320   1.043  0.6322 -0.3535  1.4043
11180TIP3    H255032   0.234   5.442   1.045 -1.1430  1.0945 -1.6325
11181TIP3   OH255033   5.181   3.458   0.380  0.2982 -0.2013 -0.3215
11181TIP3    H155034   5.086   3.460   0.364  0.1191  0.9983  0.6574
11181TIP3    H255035   5.199   3.369   0.410 -0.9660  0.1858  1.7792
11182TIP3   OH255036   6.339   0.753  13.279 -0.4776  0.2899 -0.1304
11182TIP3    H155037   6.306   0.743  13.368  1.7989  1.7507  0.9738
11182TIP3    H255038   6.388   0.673  13.262 -0.8207  0.0576 -0.0218
11183TIP3   OH255039   4.827   0.271   0.141  0.1701  0.0404 -0.1502
11183TIP3    H155040   4.850   0.226   0.060  0.1637  1.0531 -0.7160
11183TIP3    H255041   4.846   0.206   0.210  2.5004  0.0113 -0.7467
11184TIP3   OH255042   3.717   5.711  12.037 -0.6860 -0.4387  0.7426
11184TIP3    H155043   3.735   5.716  12.131 -1.6016  0.2985  0.8928
11184TIP3    H255044   3.704   5.617  12.021  0.1482 -0.6481  1.2039
11185TIP3   OH255045   2.177   6.017   2.919 -0.8369 -0.0405  0.2012
11185TIP3    H155046   2.262   6.056   2.939 -1.1141 -0.5356  2.6376
11185TIP3    H255047   2.196   5.952   2.851  0.5369  0.5154  0.0153
11186TIP3   OH255048   1.817   3.473   2.116  0.8691 -0.2969 -0.0942
11186TIP3    H155049   1.731   3.438   2.139  0.2263  0.6696 -0.9602
11186TIP3    H255050   1.868   3.466   2.197 -0.0382 -0.8332  0.4431
11187TIP3   OH255051   6.339   6.020  16.834  0.6061  0.2780  0.3091
11187TIP3    H155052   6.354   6.037  16.741 -1.6035 -0.0374 -0.1511
11187TIP3    H255053   6.328   5.925  16.839 -1.8197  0.5230  0.4418
11188TIP3   OH255054   6.550   1.926   2.933  0.0966 -0.0576  0.2528
11188TIP3    H155055   6.528   2.006   2.884  2.7983  0.6771  0.0884
11188TIP3    H255056   6.469   1.904   2.980 -1.6494  0.9873 -2.0658
11189TIP3   OH255057   6.207   0.549  11.937  0.4939 -0.5813 -0.1419
11189TIP3    H155058   6.144   0.479  11.953 -0.5646  0.8776  2.9153
11189TIP3    H255059   6.154   0.622  11.906  0.9994  0.0017  0.3429
11190TIP3   OH255060   0.311   4.121  10.407 -0.0806  0.0997  0.5919
11190TIP3    H155061   0.331   4.056  10.340  1.3105  0.9516  0.1376
11190TIP3    H255062   0.335   4.079  10.489 -1.7568 -0.9366  0.6217
11191TIP3   OH255063   2.423   6.192   2.945 -0.0468 -0.0505  0.4223
11191TIP3    H155064   2.458   6.258   3.005 -1.8587 -1.0190  2.6820
11191TIP3    H255065   2.348   6.234   2.903  0.4330  0.1854 -0.2237
11192TIP3   OH255066   4.471   3.620   4.258  0.0186 -0.3237 -0.9151
11192TIP3    H155067   4.539   3.553   4.249  0.2925 -0.2680  0.5589
11192TIP3    H255068   4.414   3.607   4.182 -0.3901 -2.7473 -0.2617
11193TIP3   OH255069   1.459   2.378  13.434 -0.0345  0.2792 -0.0603
11193TIP3    H155070   1.525   2.316  13.464  0.2890 -0.1659 -1.6054
11193TIP3    H255071   1.375   2.336  13.454  0.1232  0.6235  1.4466
11194TIP3   OH255072   5.816   6.749  16.299  0.3865 -0.4033  0.6566
11194TIP3    H155073   5.798   6.750  16.393  1.9899 -4.7371  1.2420
11194TIP3    H255074   5.903   6.710  16.291 -0.1891 -1.3249 -2.6475
11195TIP3   OH255075   6.340   4.530   5.228 -0.1448 -0.1195 -0.2546
11195TIP3    H155076   6.338   4.549   5.322  1.0944  2.2252 -0.6117
11195TIP3    H255077   6.430   4.503   5.211  0.2859  1.6897 -1.0696
11196TIP3   OH255078   0.674   5.394  16.456 -0.1289  0.4706 -0.1970
11196TIP3    H155079   0.704   5.321  16.510  0.8311  1.2352  0.3458
11196TIP3    H255080   0.749   5.454  16.453 -0.5775  1.0103 -1.3901
11197TIP3   OH255081   0.477   2.648  12.848 -0.0384  0.3107  0.5583
11197TIP3    H155082   0.536   2.620  12.917  3.6754  2.0419 -1.6176
11197TIP3    H255083   0.481   2.744  12.851 -4.6821  0.7530  1.6453
11198TIP3   OH255084   4.353   0.213  10.986  0.7200  0.0856  0.3634
11198TIP3    H155085   4.281   0.152  10.970 -0.7790  1.7748  0.3352
11198TIP3    H255086   4.386   0.233  10.898  0.7671 -0.1636  0.3226
11199TIP3   OH255087   3.648   1.709   0.268  0.3299 -0.0966  0.4326
11199TIP3    H155088   3.671   1.635   0.212  1.1601 -0.7264  1.5751
11199TIP3    H255089   3.654   1.785   0.210  0.1707 -0.8256 -0.5757
11200TIP3   OH255090   2.963   2.791   1.850 -0.0367  0.2010 -0.5988
11200TIP3    H155091   2.887   2.777   1.906  1.3539  2.1475  1.9975
11200TIP3    H255092   2.992   2.703   1.827  0.5201 -0.9337  3.6519
11201TIP3   OH255093   4.982   5.257  12.202 -0.3235 -0.4083  0.1133
11201TIP3    H155094   4.991   5.293  12.290 -1.8241 -2.4561  1.2178
11201TIP3    H255095   5.001   5.164  12.212 -0.3575 -0.6643 -1.7732
11202TIP3   OH255096   4.527   0.227   6.143 -0.0637 -0.0014  0.5717
11202TIP3    H155097   4.498   0.141   6.112  0.6997 -0.1124  0.1309
11202TIP3    H255098   4.468   0.289   6.099  0.3396 -0.2219 -0.3142
11203TIP3   OH255099   2.314   5.979  16.680  0.4245 -0.0197  0.2431
11203TIP3    H155100   2.231   5.993  16.725 -0.0305  0.8107 -0.7973
11203TIP3    H255101   2.377   6.034  16.727 -0.2787  1.7148 -0.7297
11204TIP3   OH255102   2.328   2.648   4.856  0.1129  0.2380 -0.3888
11204TIP3    H155103   2.322   2.738   4.825 -3.4407  0.6163  0.9333
11204TIP3    H255104   2.240   2.612   4.844  0.7663 -2.2629  1.4071
11205TIP3   OH255105   2.742   0.035  14.856 -0.2342  0.6663 -0.2817
11205TIP3    H155106   2.659   0.011  14.898  0.9118 -0.0707  1.7359
11205TIP3    H255107   2.778   0.102  14.914  1.4880 -0.4719  0.0160
11206TIP3   OH255108   6.305   3.978   1.294  0.5401 -0.1423  0.2974
11206TIP3    H155109   6.232   3.916   1.303  1.0692 -0.6314  1.2790
11206TIP3    H255110   6.277   4.036   1.223 -0.3713 -0.9320 -0.0213
11207TIP3   OH255111   0.531   3.501   2.699 -0.1814  0.3204 -0.4270
11207TIP3    H155112   0.490   3.544   2.773  0.1931  2.0047 -1.1613
11207TIP3    H255113   0.613   3.466   2.734 -0.4784  0.2192  0.1753
11208TIP3   OH255114   3.549   5.872  14.775 -0.2345  0.2082 -0.0127
11208TIP3    H155115   3.501   5.794  14.804  0.3837 -0.4871 -0.8152
11208TIP3    H255116   3.632   5.838  14.743 -1.1464  0.7776 -3.3546
11209TIP3   OH255117   3.817   0.675   2.351  0.2924 -0.1483 -0.0907
11209TIP3    H155118   3.858   0.712   2.429  0.0570  0.4952 -0.2652
11209TIP3    H255119   3.890   0.652   2.294  0.4787 -0.9545  0.4630
11210TIP3   OH255120   4.642   2.500   3.322 -0.0168  0.1538  0.2151
11210TIP3    H155121   4.595   2.581   3.303  0.7465  0.8078  1.0184
11210TIP3    H255122   4.731   2.516   3.291 -0.2157 -0.9543 -1.0073
11211TIP3   OH255123   1.259   4.666  14.368  0.0606 -0.3000 -0.3368
11211TIP3    H155124   1.245   4.675  14.274  0.0717  2.1624 -0.1471
11211TIP3    H255125   1.285   4.574  14.379 -0.5604 -0.8106 -2.6277
11212TIP3   OH255126   4.644   6.565   4.013 -0.4350  0.3474 -0.6405
11212TIP3    H155127   4.666   6.491   3.956  0.4786  0.8478 -0.9671
11212TIP3    H255128   4.562   6.540   4.055 -0.0596 -0.9233 -0.6221
11213TIP3   OH255129   2.355   2.692  10.565  0.3037  0.2528 -0.3141
11213TIP3    H155130   2.428   2.673  10.625 -0.3224  2.1951  1.1414
11213TIP3    H255131   2.295   2.618  10.577  0.8027 -0.0416  0.5030
11214TIP3   OH255132   6.354   2.010   6.024  0.1983  0.3642  0.1542
11214TIP3    H155133   6.432   2.046   6.067  0.4018 -0.0946  0.1856
11214TIP3    H255134   6.376   1.918   6.009  0.0231  0.4557 -0.6992
11215TIP3   OH255135   4.482   4.785  17.060  0.0990 -0.9492  0.0141
11215TIP3    H155136   4.423   4.717  17.090 -0.6762  0.5796  2.1989
11215TIP3    H255137   4.548   4.792  17.130  0.9816 -0.4100 -0.8451
11216TIP3   OH255138   1.148   6.256  12.392 -0.0967 -0.6459 -0.1322
11216TIP3    H155139   1.156   6.250  12.488  1.1573  2.2061  0.0420
11216TIP3    H255140   1.235   6.282  12.362 -0.3744 -1.8604 -2.1426
11217TIP3   OH255141   4.696   4.381   3.857  0.5435 -0.3214  0.0200
11217TIP3    H155142   4.726   4.302   3.901  1.3257 -1.2575 -2.1010
11217TIP3    H255143   4.613   4.355   3.816 -1.1886  1.0728  2.3436
11218TIP3   OH255144   4.107   0.665   1.202 -0.3888  0.9334  0.0026
11218TIP3    H155145   4.164   0.614   1.260  0.4948 -0.4349 -1.9560
11218TIP3    H255146   4.154   0.747   1.188  0.3883  0.4348 -0.3761
11219TIP3   OH255147   5.938   4.804  15.665 -0.0805 -0.5873 -0.1922
11219TIP3    H155148   5.866   4.857  15.698  0.4101  0.5822 -0.9205
11219TIP3    H255149   6.016   4.844  15.703  0.4243  0.2725 -2.0399
11220TIP3   OH255150   5.975   1.936   6.301  0.2730 -0.3969  0.2070
11220TIP3    H155151   5.968   1.979   6.216 -2.8426 -2.6776 -0.8689
11220TIP3    H255152   6.064   1.902   6.304  1.0915  1.4723 -1.1819
11221TIP3   OH255153   3.989   5.957   3.974 -0.2584  0.0512 -0.0800
11221TIP3    H155154   4.009   5.933   4.065  0.6024  1.8065  0.2368
11221TIP3    H255155   4.063   5.924   3.924  1.9785  3.4247  0.6201
11222TIP3   OH255156   3.027   0.776   1.926 -0.3814 -0.0744 -0.0262
11222TIP3    H155157   2.982   0.705   1.881 -0.1706  0.0760 -0.4743
11222TIP3    H255158   3.059   0.737   2.007 -0.1999 -0.5139 -0.3080
11223TIP3   OH255159   1.594   2.487  12.813  0.4985 -0.9856 -0.0784
11223TIP3    H155160   1.594   2.580  12.836 -1.0349 -0.7877 -0.8047
11223TIP3    H255161   1.682   2.472  12.776  1.2304 -0.1663  1.2464
11224TIP3   OH255162   4.479   4.157   3.282  0.5052 -0.2864 -0.1205
11224TIP3    H155163   4.523   4.129   3.362 -0.1070 -0.9730 -0.0130
11224TIP3    H255164   4.520   4.240   3.260  0.1893  0.2700  1.2997
11225TIP3   OH255165   0.414   5.490  15.985 -0.2953 -0.2555 -0.2759
11225TIP3    H155166   0.506   5.486  16.010 -0.9212 -0.4146  2.2726
11225TIP3    H255167   0.400   5.581  15.958  0.2075  0.2951  1.2165
11226TIP3   OH255168   1.044   5.411   5.719 -0.5560 -0.3595  0.2861
11226TIP3    H155169   1.058   5.506   5.722  0.8024 -0.5125 -0.1061
11226TIP3    H255170   1.029   5.386   5.810  0.2712  0.0927  0.5630
11227TIP3   OH255171   2.617   2.974   6.013 -0.0220 -0.1645 -0.6484
11227TIP3    H155172   2.541   2.915   6.006  0.1052 -0.6896  1.5445
11227TIP3    H255173   2.579   3.061   6.026 -0.2798 -0.3608 -0.0229
11228TIP3   OH255174   4.114   4.895  11.866  0.1788 -0.1320 -0.1324
11228TIP3    H155175   4.072   4.821  11.820  3.2409 -1.1739 -1.5310
11228TIP3    H255176   4.153   4.947  11.796  1.8843  0.2815  1.0610
11229TIP3   OH255177   0.830   1.669  15.553 -0.3042 -0.0915 -0.5926
11229TIP3    H155178   0.896   1.726  15.591 -0.7570 -1.0358  1.8137
11229TIP3    H255179   0.748   1.716  15.565 -0.7186 -1.2018  1.6568
11230TIP3   OH255180   1.798   3.764   5.178 -0.1304  0.0324  0.0921
11230TIP3    H155181   1.730   3.830   5.164  1.0834  0.9091 -2.0169
11230TIP3    H255182   1.874   3.814   5.208  0.9306 -0.2915 -1.9196
11231TIP3   OH255183   3.404   0.490  11.511 -0.2437  0.1530 -0.6340
11231TIP3    H155184   3.424   0.583  11.517  0.2619 -0.0336  3.2320
11231TIP3    H255185   3.319   0.481  11.555  0.4689 -1.3488  0.5111
11232TIP3   OH255186   2.367   4.213  15.219 -0.2113 -0.0782 -0.0650
11232TIP3    H155187   2.429   4.241  15.286  0.7607  0.7111 -1.2485
11232TIP3    H255188   2.288   4.265  15.236  0.8782  1.9949 -0.9900
11233TIP3   OH255189   5.372   3.939  14.465  0.2336  0.4084 -0.1780
11233TIP3    H155190   5.405   3.849  14.463 -0.6313 -0.0283  2.1945
11233TIP3    H255191   5.439   3.990  14.420  1.0842 -1.3057 -0.9542
11234TIP3   OH255192   0.781   4.639  14.447 -0.5319 -0.1188  0.0462
11234TIP3    H155193   0.796   4.559  14.397 -1.3378  1.6636 -3.3459
11234TIP3    H255194   0.704   4.619  14.501 -1.4458 -1.3235 -1.6075
11235TIP3   OH255195   3.564   0.973  14.971  0.6115  0.1780  0.2003
11235TIP3    H155196   3.602   0.982  15.059 -0.8461 -0.0277  0.8787
11235TIP3    H255197   3.500   0.902  14.980 -0.6694  1.1985 -0.6320
11236TIP3   OH255198   4.674   4.498  11.884  0.1211 -0.3331  0.0889
11236TIP3    H155199   4.749   4.459  11.839  0.6569  0.2142  0.5009
11236TIP3    H255200   4.698   4.589  11.897 -0.7281 -0.0852 -0.0079
11237TIP3   OH255201   5.029   5.678   3.756 -0.0279 -0.1033 -0.1552
11237TIP3    H155202   5.002   5.756   3.803  0.0650  0.1332 -0.4868
11237TIP3    H255203   4.948   5.644   3.717 -0.1471 -0.4441  0.3807
11238TIP3   OH255204   1.249   3.415  11.033  0.5204 -0.6098 -0.2087
11238TIP3    H155205   1.207   3.367  10.961 -0.8617 -0.8011  0.6800
11238TIP3    H255206   1.339   3.383  11.034  0.2974 -1.3125 -1.2500
11239TIP3   OH255207   0.325   4.604  11.631 -0.1482 -0.2747  0.2477
11239TIP3    H155208   0.338   4.520  11.675  2.7775 -0.8001 -1.3991
11239TIP3    H255209   0.268   4.582  11.557 -2.2522 -0.0385  1.7025
11240TIP3   OH255210   0.179   4.912   3.870  0.2276  0.3252  0.0019
11240TIP3    H155211   0.203   4.959   3.790  0.2057 -1.0030 -0.8216
11240TIP3    H255212   0.137   4.832   3.838  0.9199 -0.5919  1.3238
11241TIP3   OH255213   1.343   1.592   4.611  0.0461 -0.6607  0.0284
11241TIP3    H155214   1.406   1.658   4.642 -0.1191 -0.7162  0.4949
11241TIP3    H255215   1.301   1.560   4.691 -0.3770 -0.8257 -0.2562
11242TIP3   OH255216   0.057   1.070  10.550  0.1773  0.2165 -0.3601
11242TIP3    H155217  -0.032   1.094  10.573 -0.4581 -2.7740  0.8590
11242TIP3    H255218   0.048   0.988  10.502  2.1935  0.9654 -2.1642
11243TIP3   OH255219   6.232   6.164  16.314 -0.3890  0.1139 -0.7929
11243TIP3    H155220   6.199   6.096  16.372  0.0166  0.1361 -0.5351
11243TIP3    H255221   6.267   6.231  16.372  1.6244 -0.6454 -1.0503
11244TIP3   OH255222   4.839   5.133   5.236  0.3087 -0.0788  0.6002
11244TIP3    H155223   4.747   5.161   5.244 -0.2845 -1.9384  0.7370
11244TIP3    H255224   4.879   5.198   5.179 -0.8952  1.2120  1.1714
11245TIP3   OH255225   0.601   3.257   3.276 -0.1366  0.0822 -0.4693
11245TIP3    H155226   0.623   3.280   3.366  0.7206 -1.9839 -0.0942
11245TIP3    H255227   0.658   3.312   3.222  2.5466 -1.6443  0.4007
11246TIP3   OH255228   5.543   4.286  12.012 -0.1301  0.2563 -0.3528
11246TIP3    H155229   5.465   4.339  12.029  0.2718  1.4435 -1.9737
11246TIP3    H255230   5.615   4.349  12.012  0.8606 -0.8084  1.0222
11247TIP3   OH255231   1.258   2.178   0.563  0.2455  0.1381 -0.2771
11247TIP3    H155232   1.298   2.094   0.543 -1.1340 -0.2548 -1.5485
11247TIP3    H255233   1.214   2.165   0.647 -2.0244 -1.2552 -1.5532
11248TIP3   OH255234   5.950   4.919  10.946  0.4289 -0.3857  0.4166
11248TIP3    H155235   5.949   4.843  11.005 -0.5350 -2.5218 -2.1568
11248TIP3    H255236   5.993   4.888  10.867  0.4994  1.9544 -0.5472
11249TIP3   OH255237   1.988   0.543  15.323  0.5103  0.1312 -0.2993
11249TIP3    H155238   2.080   0.566  15.310  0.7579 -0.4202  0.4190
11249TIP3    H255239   1.977   0.540  15.418 -0.0319 -0.6457 -0.3774
11250TIP3   OH255240   4.238   3.983  13.409 -0.0126 -0.4671  0.5788
11250TIP3    H155241   4.266   3.891  13.401  0.7395 -0.1171 -1.0787
11250TIP3    H255242   4.305   4.023  13.464  0.7114 -0.5026 -0.2490
11251TIP3   OH255243   2.102   2.809  15.272  0.3657  0.2483 -0.0442
11251TIP3    H155244   2.080   2.884  15.216 -0.4867 -0.6724 -0.9848
11251TIP3    H255245   2.063   2.829  15.357 -1.2969  0.1548 -0.7475
11252TIP3   OH255246   6.374   2.596   5.545  0.1332 -0.0713  0.0715
11252TIP3    H155247   6.458   2.559   5.573  0.2313  0.0474 -0.0617
11252TIP3    H255248   6.397   2.682   5.510 -0.4724  1.6044  3.3871
11253TIP3   OH255249   2.835   6.213   0.969 -0.2068  0.1200 -0.5143
11253TIP3    H155250   2.812   6.137   1.022 -3.1475  1.2384 -0.0438
11253TIP3    H255251   2.869   6.277   1.031 -0.1658  0.1121 -0.5286
11254TIP3   OH255252   4.569   4.598  11.602  0.3124 -0.0735  0.4441
11254TIP3    H155253   4.566   4.570  11.694 -0.1763 -0.1917  0.3968
11254TIP3    H255254   4.627   4.535  11.559  2.1935  1.1593  1.0612
11255TIP3   OH255255   4.983   0.853   5.140 -0.1938  0.0115 -0.4515
11255TIP3    H155256   4.953   0.917   5.205 -0.1567 -0.8312  0.4327
11255TIP3    H255257   4.908   0.795   5.127  0.2472 -0.6642 -0.0703
11256TIP3   OH255258   3.227   3.634   5.330  0.2880 -0.5873 -0.6762
11256TIP3    H155259   3.286   3.585   5.273  0.1862 -0.0747 -1.2277
11256TIP3    H255260   3.167   3.568   5.364  0.4016 -0.9086 -1.0903
11257TIP3   OH255261   0.076   4.350   4.005  0.0053 -0.4597  0.7464
11257TIP3    H155262   0.043   4.300   4.080 -2.4505 -1.1677 -0.7184
11257TIP3    H255263   0.029   4.433   4.009  1.6436  0.4912  1.2768
11258TIP3   OH255264   0.076   2.178   2.590  0.2910  0.1625 -0.0500
11258TIP3    H155265   0.060   2.121   2.665  0.5764  0.0194 -0.0965
11258TIP3    H255266   0.015   2.251   2.603 -0.8366 -0.6588 -0.5582
11259TIP3   OH255267   0.508   2.864   4.183 -0.4320 -0.4311  0.5433
11259TIP3    H155268   0.497   2.844   4.276  1.1577 -1.3541  0.5575
11259TIP3    H255269   0.562   2.793   4.149 -0.8726 -0.0382 -1.0697
11260TIP3   OH255270   2.898   5.280  11.039  0.0323 -0.3347 -0.4301
11260TIP3    H155271   2.840   5.250  10.968 -2.2636  1.9124  0.3396
11260TIP3    H255272   2.888   5.375  11.039  1.9478 -0.0723  1.3348
11261TIP3   OH255273   5.165   2.511   4.182 -0.0538  0.1385  0.0281
11261TIP3    H155274   5.172   2.571   4.256  0.9217 -0.9658  0.8634
11261TIP3    H255275   5.184   2.425   4.219 -0.0077 -0.4989 -1.4210
11262TIP3   OH255276   5.455   4.412   6.002 -0.3170 -0.3767  0.1094
11262TIP3    H155277   5.479   4.504   6.013  1.3474 -0.7162 -0.4007
11262TIP3    H255278   5.436   4.381   6.090 -1.2489  0.5279  0.2484
11263TIP3   OH255279   2.586   3.548   1.655  0.3491 -0.2504  0.7750
11263TIP3    H155280   2.613   3.504   1.575 -1.2658 -1.1713  0.7105
11263TIP3    H255281   2.667   3.589   1.687  0.9228  0.6654 -1.6025
11264TIP3   OH255282   0.690   4.716   2.443 -0.1448  0.5633 -0.5692
11264TIP3    H155283   0.695   4.798   2.394 -0.9045  1.6576  1.1162
11264TIP3    H255284   0.607   4.676   2.414 -1.2255  1.8139  0.6809
11265TIP3   OH255285   1.362   5.145  13.833  0.1276  0.2890  0.0641
11265TIP3    H155286   1.312   5.068  13.806  1.2979  0.1990 -2.0051
11265TIP3    H255287   1.449   5.132  13.795  1.2565  1.2429  2.1417
11266TIP3   OH255288   2.508   4.658  15.985  0.1292 -0.0984 -0.1602
11266TIP3    H155289   2.548   4.668  16.071 -0.0686 -2.4513  0.2553
11266TIP3    H255290   2.530   4.569  15.958  0.2512  0.5917 -2.6121
11267TIP3   OH255291   0.581   2.836  14.002  0.4878  0.2562  0.3331
11267TIP3    H155292   0.528   2.757  13.997  0.0717  0.4821  1.0052
11267TIP3    H255293   0.570   2.878  13.917 -0.1313  0.1201  0.3430
11268TIP3   OH255294   0.694   0.425  15.060 -0.0864  0.1748 -0.7432
11268TIP3    H155295   0.771   0.479  15.079  0.4039 -0.1573 -1.7415
11268TIP3    H255296   0.695   0.357  15.128 -1.4328  2.0719  1.3482
11269TIP3   OH255297   4.472   3.406   2.153 -0.4005  0.1877 -0.1469
11269TIP3    H155298   4.441   3.486   2.196 -0.9653  0.7133 -1.4665
11269TIP3    H255299   4.447   3.335   2.212  2.3830  1.0958  2.3518
11270TIP3   OH255300   2.042   0.773  12.732  0.3269 -0.6320  0.3513
11270TIP3    H155301   2.034   0.856  12.684  1.4871  0.1695  1.4891
11270TIP3    H255302   1.975   0.717  12.693  0.5403  0.3173 -1.5037
11271TIP3   OH255303   3.388   5.845   6.233 -0.2361  0.0930  0.3468
11271TIP3    H155304   3.380   5.750   6.225 -1.3782  0.1604  0.4551
11271TIP3    H255305   3.410   5.859   6.325 -1.9236 -0.0040  0.8004
11272TIP3   OH255306   5.695   1.910   6.386 -0.1055 -0.2586 -0.4064
11272TIP3    H155307   5.790   1.920   6.390  0.1195 -1.4861 -1.7518
11272TIP3    H255308   5.679   1.819   6.410 -1.0164  0.0814  0.3712
11273TIP3   OH255309   0.610   3.717  15.005  0.3501 -0.4693 -0.1720
11273TIP3    H155310   0.540   3.759  14.956  1.6580 -0.0869 -1.8031
11273TIP3    H255311   0.678   3.700  14.940  2.4447  0.6544  1.5947
11274TIP3   OH255312   1.244   5.999  12.030 -0.2839 -0.3856 -0.0240
11274TIP3    H155313   1.196   6.019  12.110  0.4445 -1.0841  0.5972
11274TIP3    H255314   1.258   5.904  12.033  2.3696 -0.0384  0.5400
11275TIP3   OH255315   6.334   2.375  13.436  0.5051  0.1298  0.2969
11275TIP3    H155316   6.268   2.353  13.370  1.6017 -0.7756 -0.5317
11275TIP3    H255317   6.413   2.392  13.385  1.4533 -0.8517  1.3937
11276TIP3   OH255318   4.849   3.247  10.505 -0.7290 -0.4404 -0.4129
11276TIP3    H155319   4.844   3.191  10.427 -1.0676 -1.3817  0.2717
11276TIP3    H255320   4.758   3.273  10.522 -0.6497 -0.1976 -0.3593
11277TIP3   OH255321   2.856   0.473  15.244  0.2247 -0.6318  0.3177
11277TIP3    H155322   2.760   0.480  15.240  0.1756 -1.4941 -0.3093
11277TIP3    H255323   2.883   0.545  15.302 -0.4134  2.7160 -3.1267
11278TIP3   OH255324   6.337   1.685  15.226  0.0706  0.7052  0.2671
11278TIP3    H155325   6.383   1.669  15.143 -2.3538  1.7526 -1.4129
11278TIP3    H255326   6.299   1.600  15.249  1.9771  0.0441  1.2025
11279TIP3   OH255327   5.216   4.999   4.506  0.7807 -0.1247 -0.3794
11279TIP3    H155328   5.229   5.080   4.456  1.1927 -0.0474 -0.1520
11279TIP3    H255329   5.179   4.937   4.442 -3.2655  1.3066  0.2549
11280TIP3   OH255330   3.247   5.971  16.790  0.5530  0.2830  0.2919
11280TIP3    H155331   3.213   6.059  16.773  1.2812  0.4638 -0.2912
11280TIP3    H255332   3.339   5.985  16.813  0.7715 -0.3515 -0.1570
11281TIP3   OH255333   3.565   1.373  12.239 -0.3319  0.3332  0.0777
11281TIP3    H155334   3.535   1.463  12.251 -1.0964  0.3590 -1.6896
11281TIP3    H255335   3.652   1.382  12.198  0.3067  0.2443  1.3658
11282TIP3   OH255336   3.645   4.743   1.259  0.0400  0.1445  0.3857
11282TIP3    H155337   3.625   4.715   1.348 -1.5235 -0.9530 -0.2694
11282TIP3    H255338   3.568   4.793   1.231  0.5035  0.4683 -0.3566
11283TIP3   OH255339   0.385   2.889   0.118 -0.1982 -0.2880 -0.1724
11283TIP3    H155340   0.443   2.856   0.049 -0.3580 -0.4473 -0.2308
11283TIP3    H255341   0.300   2.852   0.097 -0.1496 -0.7334  0.3837
11284TIP3   OH255342   3.821   6.151   5.228 -0.3077  0.7023 -0.0868
11284TIP3    H155343   3.807   6.135   5.321  0.9423 -0.0239 -0.0113
11284TIP3    H255344   3.750   6.104   5.184 -1.4177  1.7516  0.5018
11285TIP3   OH255345   3.260   5.318  12.290 -0.0047  0.7061  0.4021
11285TIP3    H155346   3.182   5.334  12.236  0.1216  1.6689  0.5003
11285TIP3    H255347   3.230   5.254  12.356 -0.3113 -0.0396 -0.4352
11286TIP3   OH255348   2.467   5.474   0.382 -0.4341  0.0976 -0.3535
11286TIP3    H155349   2.539   5.412   0.392  0.1698  0.2209 -3.1945
11286TIP3    H255350   2.479   5.537   0.453  1.5416 -0.5754 -0.0401
11287TIP3   OH255351   5.880   6.784   4.842  0.7461 -0.0636 -0.3318
11287TIP3    H155352   5.843   6.840   4.910 -0.3097 -1.7419  0.5424
11287TIP3    H255353   5.938   6.841   4.793 -0.9199  2.0141 -0.0307
11288TIP3   OH255354   2.440   5.946   3.088 -0.0265  0.7154  0.2337
11288TIP3    H155355   2.526   5.937   3.128  1.0384 -0.7373 -2.1458
11288TIP3    H255356   2.441   6.033   3.050  0.2602  0.8283  0.4909
11289TIP3   OH255357   2.053   4.284   0.199 -0.0114 -0.0988  0.0197
11289TIP3    H155358   2.135   4.331   0.214 -0.5276  0.3776  1.5931
11289TIP3    H255359   2.056   4.258   0.107  0.8883  1.8687 -0.5544
11290TIP3   OH255360   2.207   1.315  14.753  1.2983 -0.0588  0.2772
11290TIP3    H155361   2.301   1.311  14.741  1.1618  0.1834 -1.1151
11290TIP3    H255362   2.190   1.405  14.780  1.2430  0.8384 -2.4261
11291TIP3   OH255363   0.547   6.375   1.207 -0.3904  0.1966  0.4561
11291TIP3    H155364   0.454   6.376   1.183 -0.0173 -0.0580 -1.1054
11291TIP3    H255365   0.593   6.402   1.127  0.9054  0.0107  1.1100
11292TIP3   OH255366   1.127   0.388  11.603  0.6090 -0.0251  0.1688
11292TIP3    H155367   1.125   0.302  11.645 -1.4322 -1.1144 -1.8801
11292TIP3    H255368   1.063   0.440  11.652  0.2424 -0.3960  0.0897
11293TIP3   OH255369   2.784   4.790  14.037  0.3112 -0.1558 -0.1006
11293TIP3    H155370   2.803   4.697  14.050  1.2478  0.2191  1.4331
11293TIP3    H255371   2.691   4.798  14.057 -0.1049 -0.9535 -1.5423
11294TIP3   OH255372   6.499   2.792  13.620  0.1372  0.0956 -0.0160
11294TIP3    H155373   6.512   2.887  13.614 -1.8241  0.3962 -0.2113
11294TIP3    H255374   6.460   2.767  13.537  1.6746 -1.1162 -0.4151
11295TIP3   OH255375   5.593   1.205   3.099 -0.1302  0.1047 -0.2798
11295TIP3    H155376   5.543   1.198   3.181 -1.8319  0.0666 -1.2706
11295TIP3    H255377   5.643   1.123   3.095 -0.7623 -0.3223  0.2547
11296TIP3   OH255378   0.768   3.720  14.778  0.5727  0.3621 -0.0327
11296TIP3    H155379   0.847   3.771  14.762  2.1622 -1.6275  1.0207
11296TIP3    H255380   0.727   3.711  14.692  0.0342  3.5412 -0.2346
11297TIP3   OH255381   4.128   4.840   3.194  0.6572  0.0241 -0.0447
11297TIP3    H155382   4.065   4.859   3.263  0.3375 -2.8351  0.5519
11297TIP3    H255383   4.087   4.876   3.115 -2.6511 -3.0058  0.0133
11298TIP3   OH255384   4.907   5.753  13.115 -0.1960  0.3318 -0.3461
11298TIP3    H155385   4.917   5.660  13.132  1.1099  0.0762 -2.2434
11298TIP3    H255386   4.990   5.780  13.077  0.0228  2.6421  1.5524
11299TIP3   OH255387   2.105   6.844   1.577 -0.2251  0.4581  0.3167
11299TIP3    H155388   2.063   6.759   1.585 -2.3588  1.2408 -1.4533
11299TIP3    H255389   2.065   6.897   1.647 -1.3915  0.8627 -0.6155
11300TIP3   OH255390   1.132   5.949   5.125 -0.1888 -0.7242  0.3730
11300TIP3    H155391   1.048   5.982   5.157 -1.9933 -1.6050 -3.0460
11300TIP3    H255392   1.124   5.854   5.130  1.2573 -0.8229  1.3905
11301TIP3   OH255393   3.973   5.433  11.470 -0.5767  0.0038  0.2412
11301TIP3    H155394   4.054   5.415  11.422 -0.7396  0.5795 -0.2602
11301TIP3    H255395   3.912   5.365  11.441 -0.1252 -0.7573  1.0184
11302TIP3   OH255396   0.282   4.369  15.550  0.7053  0.2722  0.3561
11302TIP3    H155397   0.304   4.459  15.573  0.0410  0.9500 -1.4826
11302TIP3    H255398   0.225   4.377  15.474 -4.1534 -1.4009  3.3533
11303TIP3   OH255399   6.598   3.316   1.813 -0.0283  0.1347  0.2862
11303TIP3    H155400   6.525   3.315   1.875 -0.4294 -0.3418 -0.1795
11303TIP3    H255401   6.657   3.383   1.846 -1.4981  1.7843 -0.2628
11304TIP3   OH255402   6.524   5.732  11.929 -0.8099  0.0966 -0.3469
11304TIP3    H155403   6.432   5.707  11.919 -0.6732 -0.7502  0.3836
11304TIP3    H255404   6.531   5.817  11.885 -1.5212 -0.6667 -2.0266
11305TIP3   OH255405   0.685   2.698  16.282 -0.8015  0.4791  0.2850
11305TIP3    H155406   0.775   2.694  16.314 -0.9649 -0.6968  0.6568
11305TIP3    H255407   0.633   2.662  16.354 -1.7075  2.1511  0.5082
11306TIP3   OH255408   3.247   0.632   1.608 -1.0815  0.2654 -0.1283
11306TIP3    H155409   3.270   0.646   1.516 -3.3762  0.3928 -0.7381
11306TIP3    H255410   3.301   0.695   1.656 -1.6334  1.9698 -1.6307
11307TIP3   OH255411   1.978   4.845   5.913 -0.1084  0.6276  0.3062
11307TIP3    H155412   2.037   4.890   5.974 -0.1853  0.3837  0.5574
11307TIP3    H255413   1.962   4.760   5.953  0.7604  0.0131 -0.5958
11308TIP3   OH255414   3.614   4.302  16.139 -0.9175  0.2050 -0.5312
11308TIP3    H155415   3.568   4.383  16.163 -1.1091 -0.6901  2.5867
11308TIP3    H255416   3.555   4.232  16.165 -0.1301 -0.9804 -1.8000
11309TIP3   OH255417   3.108   4.783  14.246 -0.0264 -0.3902  0.1710
11309TIP3    H155418   3.157   4.853  14.289 -1.6490  0.8518  0.0883
11309TIP3    H255419   3.115   4.803  14.153 -1.0887  0.1260  0.1797
11310TIP3   OH255420   6.828   6.028  15.985 -0.0032  0.4830  0.2051
11310TIP3    H155421   6.770   6.066  16.052  0.1281 -1.7660  1.6924
11310TIP3    H255422   6.796   5.939  15.973 -0.1267  0.8474 -2.9557
11311TIP3   OH255423   6.508   2.403   0.626 -0.3754 -0.1686 -0.1115
11311TIP3    H155424   6.566   2.404   0.550 -0.6346  0.6436 -0.3051
11311TIP3    H255425   6.515   2.314   0.660  1.6174  0.1281  0.3710
11312TIP3   OH255426   0.522   5.936  11.104  0.1483 -0.4180  0.3709
11312TIP3    H155427   0.488   5.960  11.018  0.8245 -0.0462  0.2003
11312TIP3    H255428   0.582   6.008  11.127 -0.8866  0.0781  1.6599
11313TIP3   OH255429   0.632   6.657   3.386  0.7709 -0.4135  1.0718
11313TIP3    H155430   0.628   6.577   3.333  0.8588  0.1696  0.1698
11313TIP3    H255431   0.545   6.695   3.380 -0.0162 -1.6148  3.4285
11314TIP3   OH255432   1.908   1.937  10.770 -0.2998 -0.3249  0.2333
11314TIP3    H155433   1.884   2.014  10.719 -0.7195  0.2262  1.2194
11314TIP3    H255434   1.834   1.925  10.830  0.0213 -1.1505  0.4745
11315TIP3   OH255435   4.952   5.149   4.096 -0.5688  0.4251 -0.1576
11315TIP3    H155436   5.046   5.158   4.081 -0.5339 -0.7241 -0.8108
11315TIP3    H255437   4.922   5.237   4.118  0.7420  0.7067  0.6047
11316TIP3   OH255438   5.770   3.272   1.012 -0.4777 -0.2148 -0.3599
11316TIP3    H155439   5.728   3.232   1.089  1.2619  1.4615  1.5965
11316TIP3    H255440   5.857   3.232   1.010  0.6579  2.0589  0.5737
11317TIP3   OH255441   0.452   4.837   3.364 -0.3681 -0.0164 -0.6480
11317TIP3    H155442   0.544   4.856   3.380 -0.6233  1.4973 -0.8075
11317TIP3    H255443   0.436   4.755   3.410  0.8651  0.1005  0.0335
11318TIP3   OH255444   0.978   1.360   2.505  0.1293  0.5770 -0.0055
11318TIP3    H155445   0.947   1.354   2.595  1.1649 -1.2192  0.2845
11318TIP3    H255446   0.965   1.272   2.469  1.8078  0.6279 -0.8620
11319TIP3   OH255447   3.753   6.055   1.241  0.1519 -0.1455 -0.3059
11319TIP3    H155448   3.830   6.048   1.297 -0.0216  0.2348 -0.0241
11319TIP3    H255449   3.679   6.061   1.301 -0.0407  0.2030 -0.5771
11320TIP3   OH255450   0.468   4.570   5.729  0.1734  0.4796 -0.0488
11320TIP3    H155451   0.503   4.588   5.642  1.5992 -0.9083  0.1835
11320TIP3    H255452   0.501   4.482   5.750 -1.8106 -0.0694  1.0662
11321TIP3   OH255453   3.251   1.915   2.466 -0.4227  0.1374 -0.3436
11321TIP3    H155454   3.181   1.879   2.410  0.4118  0.6229 -1.7582
11321TIP3    H255455   3.280   1.840   2.518  0.0332 -0.8491 -1.9288
11322TIP3   OH255456   1.712   3.682   2.434 -0.2226 -0.0823  0.0140
11322TIP3    H155457   1.727   3.589   2.418  1.8026  0.4302 -1.3865
11322TIP3    H255458   1.786   3.710   2.488 -0.7876  0.7491  0.3896
11323TIP3   OH255459   6.399   0.748   4.728  0.0952 -0.3462 -0.1303
11323TIP3    H155460   6.359   0.761   4.814 -0.0494 -3.4312  0.3702
11323TIP3    H255461   6.349   0.676   4.689  1.6043 -0.5457 -1.8385
11324TIP3   OH255462   5.305   6.603   4.486  0.0312  0.0911 -0.3827
11324TIP3    H155463   5.298   6.514   4.520  1.1850 -0.3252 -1.1598
11324TIP3    H255464   5.323   6.657   4.562  1.0468 -0.5984 -0.1239
11325TIP3   OH255465   1.704   1.745  11.238 -0.3900  0.1271 -0.1562
11325TIP3    H155466   1.611   1.721  11.236 -0.0018 -1.7430  1.3383
11325TIP3    H255467   1.750   1.666  11.211  0.8105  0.9987 -0.7871
11326TIP3   OH255468   6.668   6.306  14.925 -0.3243 -0.0328 -0.2695
11326TIP3    H155469   6.580   6.272  14.935 -0.1336 -0.2823  0.6476
11326TIP3    H255470   6.661   6.371  14.855 -1.5669  1.0753  0.8204
11327TIP3   OH255471   2.548   4.867   2.376  0.0702 -0.1132 -0.2151
11327TIP3    H155472   2.520   4.937   2.316  0.7870 -0.6917 -1.2678
11327TIP3    H255473   2.569   4.793   2.318  1.1772 -0.5559  0.7139
11328TIP3   OH255474   2.385   6.313  13.025  1.3297 -0.5186  0.1300
11328TIP3    H155475   2.422   6.394  13.059 -0.9466  1.2330 -1.2551
11328TIP3    H255476   2.300   6.306  13.068  0.8185 -1.2879 -0.9569
11329TIP3   OH255477   5.705   2.331   0.055 -0.5723  0.3650 -0.0712
11329TIP3    H155478   5.619   2.372   0.051 -0.8349 -0.2177 -2.5194
11329TIP3    H255479   5.689   2.239   0.035  0.4842 -0.0074  0.7129
11330TIP3   OH255480   0.248   5.729   4.305  0.0699 -0.0126 -0.1908
11330TIP3    H155481   0.165   5.775   4.291  0.1267  0.0535 -0.3066
11330TIP3    H255482   0.235   5.681   4.387 -0.5948 -1.1359 -0.9253
11331TIP3   OH255483   3.869   5.767   1.104 -0.4498 -0.2627  0.1406
11331TIP3    H155484   3.793   5.750   1.049 -0.2676  1.7105 -0.8238
11331TIP3    H255485   3.903   5.851   1.071  2.2952 -1.2171  0.3688
11332TIP3   OH255486   1.985   6.447   3.357  0.1821  0.3393 -0.2493
11332TIP3    H155487   1.980   6.543   3.362  1.3224  0.5477 -2.2279
11332TIP3    H255488   1.994   6.419   3.448  3.1922  2.3624  0.2279
11333TIP3   OH255489   1.369   0.793   3.138  0.4873  0.1166 -0.6239
11333TIP3    H155490   1.352   0.793   3.044 -2.1872  2.7091 -0.2788
11333TIP3    H255491   1.283   0.780   3.179  1.4266  0.0092  1.4650
11334TIP3   OH255492   0.232   0.486  11.260  0.1313  0.2842  0.2943
11334TIP3    H155493   0.267   0.466  11.173  0.4576 -0.2215  0.5381
11334TIP3    H255494   0.171   0.558  11.245  0.6268  0.5970 -0.2646
11335TIP3   OH255495   0.672   1.094  15.970  0.3542 -0.3903  0.1336
11335TIP3    H155496   0.695   1.010  16.010  2.7288 -0.5543 -1.3324
11335TIP3    H255497   0.699   1.084  15.878 -0.5077  1.5560 -0.3794
11336TIP3   OH255498   5.072   4.228   3.800  0.0235  0.2278 -0.2178
11336TIP3    H155499   5.101   4.137   3.810  0.5305 -0.1409 -3.8608
11336TIP3    H255500   5.151   4.276   3.778 -0.5922  1.1011 -0.5836
11337TIP3   OH255501   1.483   3.851  13.753 -0.6222  0.0369  0.0647
11337TIP3    H155502   1.535   3.930  13.748 -0.0882 -0.3211 -0.1139
11337TIP3    H255503   1.534   3.792  13.808 -1.2525 -0.0081  0.6220
11338TIP3   OH255504   3.209   1.536  16.791  0.4911  0.0204  0.1040
11338TIP3    H155505   3.300   1.558  16.814  0.4989  0.9971 -0.7582
11338TIP3    H255506   3.216   1.452  16.746  0.5567 -1.5271  2.8298
11339TIP3   OH255507   5.724   5.120   3.795  0.0296  0.2132 -0.1153
11339TIP3    H155508   5.797   5.121   3.734 -0.8361  0.6857 -1.1804
11339TIP3    H255509   5.704   5.212   3.811  1.4415  0.1779  2.4230
11340TIP3   OH255510   0.944   1.375  11.620  0.3768  0.0321 -0.5143
11340TIP3    H155511   0.880   1.385  11.550 -0.4771  0.1338  0.2670
11340TIP3    H255512   0.892   1.373  11.701  1.3736  0.4753  0.1641
11341TIP3   OH255513   3.647   4.687   0.502 -0.3051  0.1111  0.2378
11341TIP3    H155514   3.691   4.713   0.421  0.6578 -0.8113  0.4305
11341TIP3    H255515   3.572   4.635   0.474  0.6804 -1.1976 -0.0782
11342TIP3   OH255516   5.286   2.006   4.750  0.6000 -0.0863 -0.5971
11342TIP3    H155517   5.308   1.943   4.682  1.6919  0.0912 -0.4352
11342TIP3    H255518   5.353   1.992   4.817 -0.4578 -0.2628  0.4489
11343TIP3   OH255519   3.320   1.524   4.212  0.2412  0.1657 -0.3320
11343TIP3    H155520   3.380   1.469   4.161 -0.2043 -1.3747  0.7187
11343TIP3    H255521   3.233   1.495   4.185 -0.0047  0.2794  0.3206
11344TIP3   OH255522   1.172   4.879   0.359 -0.3352 -0.4900 -0.0510
11344TIP3    H155523   1.205   4.967   0.343  0.2783 -0.6233  0.4458
11344TIP3    H255524   1.144   4.848   0.273  0.2428 -0.1318 -0.3762
11345TIP3   OH255525   2.966   1.481  12.223 -0.5117  0.0675 -0.4730
11345TIP3    H155526   3.005   1.434  12.149 -1.5961 -1.7004  0.0212
11345TIP3    H255527   3.039   1.497  12.282 -0.0171 -0.5247 -0.9042
11346TIP3   OH255528   2.270   4.506   0.186  0.5237 -0.1418  0.2556
11346TIP3    H155529   2.315   4.470   0.262  1.0352  1.2065  0.6087
11346TIP3    H255530   2.337   4.510   0.118  0.8800  1.5054  0.6657
11347TIP3   OH255531   2.375   5.553  13.955  0.2746  0.0109 -0.2765
11347TIP3    H155532   2.367   5.596  14.040  0.2583 -0.6721  0.0740
11347TIP3    H255533   2.301   5.493  13.951  0.8715 -0.7387 -0.3130
11348TIP3   OH255534   1.184   5.061  16.292  0.5734  0.3538 -0.0980
11348TIP3    H155535   1.095   5.024  16.290  0.4542  0.6599 -1.2566
11348TIP3    H255536   1.172   5.150  16.326  0.6976 -0.2144  1.5048
11349TIP3   OH255537   3.726   0.018   1.668  0.2147 -0.1405  0.2684
11349TIP3    H155538   3.731  -0.076   1.650  1.1465 -0.2291  0.8779
11349TIP3    H255539   3.757   0.026   1.758 -1.0613  0.6269  0.6519
11350TIP3   OH255540   5.961   0.670  14.143  0.0539 -0.3518 -0.2600
11350TIP3    H155541   5.948   0.660  14.049 -0.3524  2.1984 -0.5409
11350TIP3    H255542   6.050   0.705  14.151 -0.0512 -0.2006  0.2912
11351TIP3   OH255543   1.719   3.777   0.321 -0.0062 -0.0463  0.4507
11351TIP3    H155544   1.752   3.830   0.248  0.8696  0.4910  1.2146
11351TIP3    H255545   1.627   3.761   0.300  0.4958 -0.8050 -1.2889
11352TIP3   OH255546   1.439   0.383   3.130 -0.6859  0.0213  0.1493
11352TIP3    H155547   1.394   0.312   3.177 -2.4352  0.1394 -1.2426
11352TIP3    H255548   1.423   0.364   3.038 -0.1786  1.5885 -0.2864
11353TIP3   OH255549   6.439   6.481   2.060  0.5506  0.2704 -0.2271
11353TIP3    H155550   6.499   6.501   2.132  1.2970  0.4364 -0.8947
11353TIP3    H255551   6.493   6.439   1.994 -0.2675 -0.5086 -0.4246
11354TIP3   OH255552   4.335   0.893  11.436  0.3387  0.4054 -0.1973
11354TIP3    H155553   4.329   0.856  11.348 -0.1865  0.0252 -0.0082
11354TIP3    H255554   4.386   0.830  11.486 -1.0974 -0.4271  0.2926
11355TIP3   OH255555   5.205   3.148  10.302 -0.2209  0.4300  0.6910
11355TIP3    H155556   5.171   3.187  10.221 -0.2158  0.3965  0.6728
11355TIP3    H255557   5.184   3.055  10.295  0.2334  0.3376  0.4905
11356TIP3   OH255558   0.980   6.197  14.435 -0.3816 -0.3656  0.1322
11356TIP3    H155559   1.059   6.216  14.385 -1.6056  0.9540 -1.4129
11356TIP3    H255560   0.949   6.114  14.399 -0.2186 -0.3995  0.0670
11357TIP3   OH255561   2.601   0.002  12.269 -0.2193 -0.1287 -1.2246
11357TIP3    H155562   2.623   0.044  12.186  1.5555  2.0478  0.2345
11357TIP3    H255563   2.532   0.057  12.306 -0.9512 -1.0524 -1.1567
11358TIP3   OH255564   4.863   4.351   3.172  0.0439  0.3295 -0.9733
11358TIP3    H155565   4.873   4.367   3.078  1.2866  2.6373 -0.5360
11358TIP3    H255566   4.772   4.377   3.191 -0.1321  0.1000 -1.4807
11359TIP3   OH255567   2.535   1.219  11.229  0.0112 -0.1415  0.6470
11359TIP3    H155568   2.523   1.185  11.318  4.1067 -1.1118  1.0064
11359TIP3    H255569   2.531   1.142  11.173 -1.8985  0.3899 -0.0198
11360TIP3   OH255570   1.646   1.806  15.342 -0.3682  0.9939 -0.5458
11360TIP3    H155571   1.727   1.834  15.385 -0.2673 -0.5661  0.3540
11360TIP3    H255572   1.675   1.749  15.270 -0.6384  1.3952 -0.9803
11361TIP3   OH255573   4.859   3.854   0.692  0.1142 -0.5691  0.3290
11361TIP3    H155574   4.887   3.797   0.621 -1.1123 -1.3663  0.4608
11361TIP3    H255575   4.939   3.870   0.742  0.8541 -0.5489 -0.8382
11362TIP3   OH255576   4.500   5.464  11.234  0.0900  0.4227  0.1741
11362TIP3    H155577   4.428   5.527  11.241  0.7235  1.0165  1.6333
11362TIP3    H255578   4.571   5.502  11.285  1.0510 -0.7247 -0.2505
11363TIP3   OH255579   4.786   1.799  13.377 -0.0445  0.2507  0.4510
11363TIP3    H155580   4.746   1.886  13.378 -0.3669  0.1129  0.1033
11363TIP3    H255581   4.776   1.766  13.466 -2.3022 -0.4776 -0.0036
11364TIP3   OH255582   6.697   5.176   3.803 -0.1923 -0.4410  0.0796
11364TIP3    H155583   6.685   5.084   3.777  1.0253 -0.0733 -2.0119
11364TIP3    H255584   6.740   5.172   3.888 -0.9711 -1.7882  0.4392
11365TIP3   OH255585   2.209   5.148  11.914 -0.5090 -0.3809  0.7377
11365TIP3    H155586   2.212   5.172  12.006 -0.0604  1.8329  0.1984
11365TIP3    H255587   2.124   5.180  11.883  0.4507  1.3745 -0.2002
11366TIP3   OH255588   1.933   0.964   3.597 -0.1745  0.0195 -0.2173
11366TIP3    H155589   1.881   1.044   3.602  0.6863  0.5243  1.2221
11366TIP3    H255590   1.895   0.907   3.664 -1.4667 -1.2494 -1.9377
11367TIP3   OH255591   4.547   6.260  10.661  0.5957 -0.7077  0.4985
11367TIP3    H155592   4.607   6.226  10.727  2.6116 -0.4306 -1.0728
11367TIP3    H255593   4.480   6.307  10.710  0.1190 -3.2457  2.4968
11368TIP3   OH255594   3.532   4.343  13.800  1.1342 -0.4161  0.7496
11368TIP3    H155595   3.457   4.388  13.839  0.0634 -0.5923 -0.9444
11368TIP3    H255596   3.503   4.252  13.792 -0.1313  0.1103 -3.2919
11369TIP3   OH255597   6.347   5.809   1.770  0.0782  1.0291  0.1943
11369TIP3    H155598   6.408   5.806   1.844  0.3666  0.6595 -0.0472
11369TIP3    H255599   6.367   5.729   1.721 -0.4484  1.0237 -0.0139
11370TIP3   OH255600   5.076   5.811   3.221 -0.3542 -0.9103 -0.5297
11370TIP3    H155601   4.984   5.831   3.233 -0.5484 -1.3223 -1.2677
11370TIP3    H255602   5.107   5.785   3.308 -0.4218  1.1668  0.1717
11371TIP3   OH255603   0.246   3.280  16.210  0.5117 -0.3723  0.4407
11371TIP3    H155604   0.184   3.336  16.164 -1.2009 -0.2704  2.6727
11371TIP3    H255605   0.193   3.209  16.245  1.4418  0.0302  2.9432
11372TIP3   OH255606   6.700   5.908  11.558 -0.3025  0.1955 -0.2093
11372TIP3    H155607   6.791   5.936  11.571 -0.2989  0.1265 -0.0857
11372TIP3    H255608   6.652   5.989  11.543 -0.0834  0.1703 -1.1024
11373TIP3   OH255609   3.800   5.696   5.861 -0.5932  0.2837 -0.1987
11373TIP3    H155610   3.859   5.762   5.824  0.1381 -1.3574 -2.2245
11373TIP3    H255611   3.760   5.655   5.784 -1.2409 -1.4072  0.9781
11374TIP3   OH255612   3.132   6.195  12.335  0.0579  0.3252 -0.5446
11374TIP3    H155613   3.059   6.162  12.282  2.5264 -2.2244 -2.7167
11374TIP3    H255614   3.191   6.235  12.272  1.1397  1.1637  0.9480
11375TIP3   OH255615   1.910   2.774   2.843 -0.2904  0.3215  0.3708
11375TIP3    H155616   1.920   2.823   2.762 -1.2029  0.4900  0.3531
11375TIP3    H255617   1.973   2.813   2.903  0.0983  0.4652 -0.1271
11376TIP3   OH255618   5.359   0.616   1.636 -0.2177  0.2569  0.5462
11376TIP3    H155619   5.454   0.627   1.644 -0.2463  0.7248  0.2829
11376TIP3    H255620   5.339   0.541   1.692  0.7996 -2.2227 -2.1946
11377TIP3   OH255621   1.833   5.938  11.324  0.0092 -0.2979 -0.1210
11377TIP3    H155622   1.761   5.970  11.271 -0.3982 -1.0481 -0.0284
11377TIP3    H255623   1.805   5.851  11.353  0.6432 -0.3013  0.5027
11378TIP3   OH255624   3.597   0.929   5.961  0.1904  0.1417  0.3078
11378TIP3    H155625   3.509   0.955   5.988  0.1742  0.2228  0.1759
11378TIP3    H255626   3.645   1.011   5.950  0.6540  0.0695  1.6105
11379TIP3   OH255627   2.088   1.011   4.914 -0.7860 -0.4108 -0.2688
11379TIP3    H155628   2.074   0.949   4.986 -0.4034  0.0490  0.2102
11379TIP3    H255629   2.012   1.070   4.918 -0.4685 -0.0206  0.1455
11380TIP3   OH255630   3.835   4.521  13.235  0.4327  0.0344  0.3760
11380TIP3    H155631   3.802   4.572  13.161 -0.8019 -0.6627  0.4110
11380TIP3    H255632   3.920   4.489  13.206 -0.0006 -0.1680 -0.7288
11381TIP3   OH255633   6.514   3.798   2.378  0.7073  0.1879 -0.0441
11381TIP3    H155634   6.591   3.746   2.354 -0.2427 -1.0209 -0.6253
11381TIP3    H255635   6.523   3.812   2.472  0.6411 -1.7273  0.3047
11382TIP3   OH255636   0.800   0.110  14.087 -0.1524  0.4993 -0.4667
11382TIP3    H155637   0.706   0.099  14.101 -0.2357 -0.5453 -1.6116
11382TIP3    H255638   0.835   0.021  14.093  0.7110  0.8347 -0.4271
11383TIP3   OH255639   1.253   5.354   2.847  0.0173 -0.1718 -0.5009
11383TIP3    H155640   1.345   5.376   2.830  0.6191 -1.4386  0.9011
11383TIP3    H255641   1.207   5.438   2.840  1.2858  0.5069 -1.1145
11384TIP3   OH255642   3.192   6.215  17.071 -0.5628 -0.1345  0.5424
11384TIP3    H155643   3.284   6.225  17.094 -0.5174 -0.4500  0.5065
11384TIP3    H255644   3.144   6.265  17.137 -0.3603  0.1071  0.5055
11385TIP3   OH255645   2.651   0.263   6.051 -0.5388 -0.1506 -0.4233
11385TIP3    H155646   2.680   0.202   5.983 -0.0370 -2.1125  1.4491
11385TIP3    H255647   2.578   0.219   6.094 -2.0388  1.8393 -0.7567
11386TIP3   OH255648   6.161   1.109  13.892  0.6716 -0.1959 -0.3691
11386TIP3    H155649   6.217   1.186  13.885  0.8060 -0.4044 -1.9196
11386TIP3    H255650   6.156   1.091  13.986  1.1151  1.3384 -0.0261
11387TIP3   OH255651   3.418   3.907   4.291  0.5290  0.3862  0.1611
11387TIP3    H155652   3.365   3.962   4.233  1.7634  0.1139 -1.2857
11387TIP3    H255653   3.474   3.969   4.338 -1.0768  0.6866  1.7846
11388TIP3   OH255654   6.183   5.690  13.279  0.2779 -0.1990 -0.2863
11388TIP3    H155655   6.258   5.703  13.222  1.3154 -3.3526  0.1895
11388TIP3    H255656   6.115   5.653  13.221 -0.6048  1.5771 -0.4750
11389TIP3   OH255657   0.034   6.482  11.924 -0.5466  0.2672  0.4984
11389TIP3    H155658  -0.055   6.452  11.943 -0.9629  0.6315 -0.7779
11389TIP3    H255659   0.044   6.562  11.976 -1.6518  1.2287 -0.6885
11390TIP3   OH255660   1.763   3.141  12.913 -0.1011  0.1714 -0.1311
11390TIP3    H155661   1.815   3.159  12.835 -0.7253  0.5403 -0.4695
11390TIP3    H255662   1.791   3.054  12.941  2.8363  1.4884  1.4069
11391TIP3   OH255663   2.075   0.447   5.502  0.2613 -0.9131 -0.1415
11391TIP3    H155664   1.985   0.478   5.488 -0.0014 -0.4305  2.1825
11391TIP3    H255665   2.128   0.526   5.501  0.2074 -0.8198  1.3830
11392TIP3   OH255666   4.372   0.578   2.347 -0.1781 -0.4206  0.1049
11392TIP3    H155667   4.386   0.536   2.262 -0.4543 -0.9265  0.3064
11392TIP3    H255668   4.287   0.544   2.376 -1.8542  2.4584 -1.0345
11393TIP3   OH255669   1.367   6.396  13.693 -0.1019 -0.3597  0.6435
11393TIP3    H155670   1.458   6.385  13.667 -0.0701  1.0556  0.0705
11393TIP3    H255671   1.324   6.433  13.615 -0.1163  3.5402  2.2756
11394TIP3   OH255672   1.357   0.808  12.407 -0.2855  0.4115  0.3098
11394TIP3    H155673   1.307   0.734  12.441  0.3173  0.1346  0.6058
11394TIP3    H255674   1.303   0.885  12.427  0.1105  0.2695  2.0143
11395TIP3   OH255675   6.142   4.699   0.922  0.3773  0.1634 -0.2968
11395TIP3    H155676   6.118   4.607   0.931 -0.5759  0.5383  1.6481
11395TIP3    H255677   6.064   4.741   0.886  0.5685  0.3206 -0.5337
11396TIP3   OH255678   2.694   5.262   5.951  0.0987  0.1853 -0.3771
11396TIP3    H155679   2.694   5.300   6.039  0.6135 -2.3409  0.7898
11396TIP3    H255680   2.769   5.303   5.908  0.7164  0.4055  0.8666
11397TIP3   OH255681   4.301   4.804   4.943 -0.2803  0.6372  0.3241
11397TIP3    H155682   4.250   4.885   4.949 -3.0140 -0.7890 -1.5734
11397TIP3    H255683   4.361   4.818   4.870 -0.9471  0.8597 -0.1831
11398TIP3   OH255684   5.840   6.850   3.154 -0.4097  0.2346 -0.1526
11398TIP3    H155685   5.810   6.839   3.244  0.5086 -1.7231 -0.0237
11398TIP3    H255686   5.929   6.885   3.162 -0.3899  0.2214 -0.3037
11399TIP3   OH255687   2.987   5.640  12.993  0.5289  0.0572 -0.1530
11399TIP3    H155688   2.948   5.716  13.035  0.2389  0.3505 -0.9474
11399TIP3    H255689   2.975   5.569  13.057 -1.8482 -0.0183 -0.5753
11400TIP3   OH255690   0.997   2.465   6.673  0.0874 -0.4045 -0.8149
11400TIP3    H155691   0.970   2.382   6.714 -0.3495 -0.0721 -0.4262
11400TIP3    H255692   1.061   2.438   6.607  0.2270 -1.0245 -0.4461
11401TIP3   OH255693   4.858   4.345  13.191  0.5822 -0.1123  0.5052
11401TIP3    H155694   4.876   4.353  13.284  0.0070 -0.8870  0.6988
11401TIP3    H255695   4.774   4.299  13.187  0.8542 -0.5631 -0.3959
11402TIP3   OH255696   4.394   5.451  12.686 -0.0198  0.1940  0.1682
11402TIP3    H155697   4.367   5.517  12.622 -1.0572  0.7780  1.1829
11402TIP3    H255698   4.401   5.370  12.635  1.1067  1.0162 -1.0584
11403TIP3   OH255699   4.152   2.653  14.759  0.2080  0.0721 -0.0822
11403TIP3    H155700   4.176   2.729  14.811  0.2131 -1.0464  1.6326
11403TIP3    H255701   4.209   2.583  14.790  1.4548 -0.2924 -2.8482
11404TIP3   OH255702   1.415   5.638   6.099 -0.6307  0.9821  0.1335
11404TIP3    H155703   1.351   5.709   6.105  0.9279  2.4833 -0.1607
11404TIP3    H255704   1.362   5.559   6.086 -2.3420  2.4308 -2.4966
11405TIP3   OH255705   5.750   4.236  11.802 -0.1696  0.4520 -0.3677
11405TIP3    H155706   5.723   4.147  11.825  1.6797 -0.0715 -0.0316
11405TIP3    H255707   5.704   4.255  11.721 -0.8486 -0.6824 -0.2722
11406TIP3   OH255708   3.273   3.532   5.783 -0.2252  0.1930  0.0111
11406TIP3    H155709   3.353   3.545   5.732 -0.2710 -1.3900 -0.5212
11406TIP3    H255710   3.292   3.458   5.840 -0.8267  0.7429  0.9619
11407TIP3   OH255711   1.845   3.395   4.318  0.2428 -0.0751 -0.2147
11407TIP3    H155712   1.866   3.313   4.273 -0.7314 -1.2960  1.4075
11407TIP3    H255713   1.919   3.410   4.377 -0.8371 -1.4460  1.6002
11408TIP3   OH255714   2.841   4.058  12.984 -0.4674 -0.0787 -0.1404
11408TIP3    H155715   2.785   4.028  12.912 -1.5546 -1.3175  1.1582
11408TIP3    H255716   2.928   4.024  12.962 -0.5741  0.3397 -1.2985
11409TIP3   OH255717   0.476   5.833   5.297 -0.3511 -0.5175  0.4765
11409TIP3    H155718   0.540   5.771   5.262 -0.2057 -1.2342  1.9350
11409TIP3    H255719   0.490   5.913   5.247  0.7140 -1.1068 -0.1996
11410TIP3   OH255720   1.200   2.414   2.973  0.0144 -0.1481 -0.4811
11410TIP3    H155721   1.187   2.331   3.019  0.4562 -0.4822 -0.9522
11410TIP3    H255722   1.245   2.470   3.037 -0.7532 -0.0855  0.0159
11411TIP3   OH255723   6.815   1.128  11.230 -0.5051  0.0576  0.1764
11411TIP3    H155724   6.896   1.179  11.230  0.0233 -0.6462 -2.4041
11411TIP3    H255725   6.838   1.045  11.270 -1.0322  1.1966  3.1269
11412TIP3   OH255726   1.572   1.449   3.274 -0.1468 -0.7284  0.3690
11412TIP3    H155727   1.499   1.502   3.241  0.1953 -1.4084 -1.6216
11412TIP3    H255728   1.644   1.468   3.215  1.0899 -0.6593  1.8530
11413TIP3   OH255729   6.080   5.580  16.095  0.2759  0.1019  0.2596
11413TIP3    H155730   6.072   5.485  16.087 -1.5283  0.2039  0.5225
11413TIP3    H255731   6.068   5.598  16.188  0.3924  0.6082  0.1801
11414TIP3   OH255732   3.939   2.122   3.290 -0.4961 -0.2741 -0.5632
11414TIP3    H155733   3.935   2.216   3.307 -0.8359 -0.2053 -1.0030
11414TIP3    H255734   4.032   2.100   3.300 -0.5416 -0.0610  0.3896
11415TIP3   OH255735   3.392   1.672   4.640  0.4495  0.4705  0.2448
11415TIP3    H155736   3.371   1.758   4.675 -0.0966 -0.0128  1.1388
11415TIP3    H255737   3.377   1.680   4.546 -2.6723  0.5099  0.6389
11416TIP3   OH255738   1.870   0.924  13.036  0.0975 -0.3037 -0.1821
11416TIP3    H155739   1.946   0.878  13.071  0.1909 -0.6380 -0.8073
11416TIP3    H255740   1.905   0.979  12.966 -0.2712 -0.7036 -0.6907
11417TIP3   OH255741   2.869   5.188  13.523 -0.3990 -0.2657  0.8603
11417TIP3    H155742   2.927   5.214  13.595 -0.0544 -1.6003  1.1050
11417TIP3    H255743   2.833   5.270  13.490 -1.8670  0.3293  3.6124
11418TIP3   OH255744   6.177   0.719  14.486 -0.1223  0.1269 -0.0739
11418TIP3    H155745   6.180   0.749  14.577  2.0043  0.0797 -0.0694
11418TIP3    H255746   6.260   0.749  14.448 -0.3955 -0.9570 -1.6382
11419TIP3   OH255747   3.273   6.105  14.484 -0.3127  0.1731  0.7638
11419TIP3    H155748   3.178   6.114  14.488 -0.4218 -0.8519  0.9395
11419TIP3    H255749   3.292   6.099  14.391 -0.2584  1.7007  0.6531
11420TIP3   OH255750   0.728   1.745   3.145  0.6836  0.1565  0.3291
11420TIP3    H155751   0.692   1.805   3.211 -1.6395 -2.2337  1.4146
11420TIP3    H255752   0.651   1.702   3.107  2.1141 -0.2505 -2.3147
11421TIP3   OH255753   3.779   5.755  12.311  0.4020  0.2783  0.0685
11421TIP3    H155754   3.710   5.707  12.356  0.4363 -0.4705 -0.6588
11421TIP3    H255755   3.784   5.839  12.358  0.9801 -0.7454  1.9622
11422TIP3   OH255756   2.179   6.082  11.360  0.2994  0.3434 -0.1736
11422TIP3    H155757   2.126   6.133  11.299  0.7277  0.7802 -0.1824
11422TIP3    H255758   2.257   6.059  11.310  0.9796  1.3120  0.4292
11423TIP3   OH255759   1.824   1.337  12.312 -0.1364 -0.4070 -0.0161
11423TIP3    H155760   1.730   1.329  12.328 -0.4357  1.2965 -0.7411
11423TIP3    H255761   1.865   1.310  12.394 -1.2457 -1.2105  0.2897
11424TIP3   OH255762   5.287   5.077  12.242 -0.1476  0.2112  0.5176
11424TIP3    H155763   5.357   5.028  12.284 -1.0735  0.2751  2.2087
11424TIP3    H255764   5.307   5.168  12.260  0.9475  0.4649 -1.6431
11425TIP3   OH255765   0.542   0.648  10.405  0.3083  0.1540  0.0754
11425TIP3    H155766   0.501   0.576  10.453  0.5926  1.1384  1.9176
11425TIP3    H255767   0.633   0.621  10.394  1.4627  1.5757  4.1011
11426TIP3   OH255768   4.278   4.027  17.104  0.0151  0.2169  0.0150
11426TIP3    H155769   4.343   4.045  17.036  0.7945  1.8654  1.1343
11426TIP3    H255770   4.223   3.957  17.067  0.7978  0.6133 -2.0207
11427TIP3   OH255771   4.026   3.476  14.174 -0.3845 -0.0632  0.1145
11427TIP3    H155772   4.121   3.480  14.187 -0.2242  1.7407 -1.2831
11427TIP3    H255773   4.016   3.446  14.084 -1.0545  1.7930 -0.4727
11428TIP3   OH255774   6.225   1.867  12.193  0.0314  0.3577 -0.5890
11428TIP3    H155775   6.270   1.805  12.250  0.6236  0.6439 -0.7377
11428TIP3    H255776   6.141   1.883  12.236  0.1323 -0.0675 -0.2323
11429TIP3   OH255777   4.837   4.871  12.840  0.2176  0.1639 -0.1901
11429TIP3    H155778   4.829   4.835  12.752  2.0989  0.7493 -0.6535
11429TIP3    H255779   4.920   4.919  12.838 -0.3711  1.3241  1.5069
11430TIP3   OH255780   3.775   2.602  14.131  0.4092  0.0486  0.2522
11430TIP3    H155781   3.833   2.540  14.175 -0.1522 -1.0808 -0.5439
11430TIP3    H255782   3.815   2.687  14.146  0.9213 -0.4359  1.8372
11431TIP3   OH255783   5.137   5.342  12.711 -0.1888  0.3378 -0.2961
11431TIP3    H155784   5.181   5.391  12.781  1.1969 -0.6419 -0.4330
11431TIP3    H255785   5.187   5.261  12.704 -0.6182  0.1923 -2.0876
11432TIP3   OH255786   3.082   4.978  11.965  0.2544 -0.1470  0.3958
11432TIP3    H155787   3.170   4.973  11.927  0.7133 -0.3363  1.4471
11432TIP3    H255788   3.093   4.945  12.054 -0.9103 -0.2703  0.5017
11433TIP3   OH255789   6.238   4.476   2.841  0.0134  0.4847  0.3737
11433TIP3    H155790   6.305   4.543   2.853 -0.5766  1.3121 -0.7763
11433TIP3    H255791   6.159   4.524   2.818 -0.4204 -0.5949 -0.4996
11434TIP3   OH255792   5.327   4.342   4.114 -0.0545 -0.5356 -0.1085
11434TIP3    H155793   5.240   4.305   4.098 -0.2574 -1.2945  2.4039
11434TIP3    H255794   5.343   4.399   4.039 -2.4931 -0.7585 -0.8716
11435TIP3   OH255795   2.750   1.885   3.813  0.5665 -0.3377  0.4954
11435TIP3    H155796   2.677   1.850   3.864 -0.8230 -0.2153 -1.3154
11435TIP3    H255797   2.791   1.808   3.774  0.3716 -0.3048  0.2164
11436TIP3   OH255798   2.515   0.908   1.855  0.6035  0.1393  0.2128
11436TIP3    H155799   2.501   0.940   1.944 -0.4534  1.4433 -0.3775
11436TIP3    H255800   2.487   0.981   1.799 -0.2272 -1.2059 -1.2096
11437TIP3   OH255801   0.016   3.989   1.932  0.4144 -0.1883 -0.5065
11437TIP3    H155802  -0.078   4.000   1.948  0.4592  0.1534 -0.4747
11437TIP3    H255803   0.021   3.941   1.850  0.2056 -0.5673 -0.3019
11438TIP3   OH255804   1.043   5.255  12.208  0.9564  0.3475  0.5703
11438TIP3    H155805   0.967   5.293  12.165  0.3482 -0.2191  1.1331
11438TIP3    H255806   1.020   5.164  12.223  1.2427  0.4810  1.8993
11439TIP3   OH255807   3.263   5.853   3.284  0.5618  0.1086 -0.1065
11439TIP3    H155808   3.170   5.866   3.300  1.0963  5.1869  0.4745
11439TIP3    H255809   3.298   5.819   3.367 -0.5671 -1.2670 -0.1460
11440TIP3   OH255810   1.169   4.133  12.135  0.3643 -0.0076  0.0545
11440TIP3    H155811   1.102   4.198  12.115 -1.0807 -1.8042 -1.1925
11440TIP3    H255812   1.156   4.064  12.071  1.3372 -1.9092  1.7971
11441TIP3   OH255813   4.769   0.203  12.322 -0.2686  0.1861 -0.1163
11441TIP3    H155814   4.718   0.280  12.348 -0.2743 -0.2414  1.2412
11441TIP3    H255815   4.737   0.182  12.235  0.3159  2.2040 -0.8866
11442TIP3   OH255816   5.498   5.040   0.293 -0.5313 -0.0156 -0.7506
11442TIP3    H155817   5.410   5.069   0.267 -1.1461 -0.6900  0.5150
11442TIP3    H255818   5.556   5.084   0.231 -1.6436  1.6274 -0.7084
11443TIP3   OH255819   3.155   3.534  16.680 -0.2037  0.1768 -0.3922
11443TIP3    H155820   3.153   3.540  16.585 -0.6272 -1.1500 -0.4920
11443TIP3    H255821   3.064   3.515  16.705 -0.0027 -0.0145  0.2214
11444TIP3   OH255822   5.335   3.340  13.103 -0.3921  0.1624  0.1542
11444TIP3    H155823   5.295   3.343  13.190 -0.1752  0.1527  0.2561
11444TIP3    H255824   5.344   3.247  13.084 -0.6533  0.1644  0.0210
11445TIP3   OH255825   2.319   4.285  16.036 -0.3894 -0.0363 -0.4306
11445TIP3    H155826   2.403   4.283  16.082 -0.1996 -0.5859 -0.7876
11445TIP3    H255827   2.274   4.361  16.072 -0.1382 -0.2943  0.4718
11446TIP3   OH255828   2.828   0.938  12.413 -0.0245 -0.0293  0.1080
11446TIP3    H155829   2.882   0.999  12.363  1.1420 -0.2712  1.0316
11446TIP3    H255830   2.776   0.892  12.347  1.2209 -0.1009 -0.8604
11447TIP3   OH255831   1.591   1.643   4.271 -0.1777 -0.3681  0.9309
11447TIP3    H155832   1.584   1.555   4.309  0.2785 -1.3159 -1.0620
11447TIP3    H255833   1.518   1.691   4.310 -1.5217 -2.1588  0.7541
11448TIP3   OH255834   1.307   2.069  16.438 -0.0689  0.6639 -0.0652
11448TIP3    H155835   1.217   2.085  16.410 -0.5247  0.7486  1.3575
11448TIP3    H255836   1.301   1.990  16.492  0.9301 -0.0540 -0.9586
11449TIP3   OH255837   6.783   4.861   1.448 -0.1718  0.3503  0.1981
11449TIP3    H155838   6.815   4.780   1.408 -3.0155 -1.2577  0.9136
11449TIP3    H255839   6.688   4.861   1.431 -0.1947  4.1261 -0.7345
11450TIP3   OH255840   5.455   1.137   2.135  0.0059 -0.0246  0.0812
11450TIP3    H155841   5.425   1.228   2.133  1.9521  0.6841  0.7611
11450TIP3    H255842   5.429   1.105   2.222 -0.9720 -0.2435 -0.2829
11451TIP3   OH255843   4.438   6.651  11.254 -0.4019 -0.0639 -0.3529
11451TIP3    H155844   4.498   6.693  11.317 -2.7677 -0.8050  2.6430
11451TIP3    H255845   4.351   6.660  11.294 -1.6506 -3.5611 -1.8568
11452TIP3   OH255846   6.848   2.171   0.719  0.0033  0.1767 -0.2832
11452TIP3    H155847   6.938   2.175   0.687 -0.2322  0.6917 -0.8990
11452TIP3    H255848   6.795   2.159   0.641 -0.6303  2.0822 -0.1818
11453TIP3   OH255849   2.946   0.107  15.105  0.3145  0.2449 -0.1472
11453TIP3    H155850   2.866   0.107  15.158  1.1534  1.0744  1.1811
11453TIP3    H255851   2.931   0.176  15.041 -0.5518 -0.4890 -0.7595
11454TIP3   OH255852   6.259   1.239  12.849 -0.6739 -0.4146  0.6599
11454TIP3    H155853   6.254   1.272  12.938  2.0460 -0.4431  0.9059
11454TIP3    H255854   6.307   1.156  12.856 -2.1786 -1.4814 -0.6409
11455TIP3   OH255855   0.993   2.808   3.115 -0.0390  0.1360  0.0987
11455TIP3    H155856   1.052   2.739   3.143 -0.7192 -1.2413 -1.6326
11455TIP3    H255857   0.927   2.763   3.061 -0.0740  2.2008 -1.7410
11456TIP3   OH255858   5.929   4.348   2.415 -0.1250  0.1501  0.1493
11456TIP3    H155859   5.989   4.277   2.437  0.2857  0.6342  0.6357
11456TIP3    H255860   5.955   4.375   2.327 -0.4406 -0.4534 -0.1348
11457TIP3   OH255861   0.863   3.694   1.608 -0.0698  0.0675  0.2668
11457TIP3    H155862   0.946   3.732   1.637 -0.9203  2.1263  0.1838
11457TIP3    H255863   0.855   3.721   1.517 -1.1430  0.4791  0.4728
11458TIP3   OH255864   6.690   1.286  15.622  0.0506  0.2524  0.5179
11458TIP3    H155865   6.624   1.221  15.646 -0.0857  0.3330  0.3659
11458TIP3    H255866   6.760   1.274  15.686  0.1182 -0.1790  0.3636
11459TIP3   OH255867   1.338   4.942   2.325  0.2433  0.5315 -0.1076
11459TIP3    H155868   1.297   4.980   2.247  2.5208 -0.6605 -2.0177
11459TIP3    H255869   1.419   4.903   2.293  0.3286 -1.8080  2.5501
11460TIP3   OH255870   4.578   4.619   4.243 -0.8976 -0.6234 -0.4896
11460TIP3    H155871   4.537   4.592   4.161 -0.5253 -0.9407 -0.5762
11460TIP3    H255872   4.664   4.577   4.241 -1.3766 -1.7083  0.6621
11461TIP3   OH255873   6.407   1.632  11.103 -0.2656  0.4134 -0.0987
11461TIP3    H155874   6.314   1.608  11.098  0.0785 -1.7054  1.6899
11461TIP3    H255875   6.433   1.648  11.013 -1.8057 -1.4648 -0.9539
11462TIP3   OH255876   0.437   5.913   0.462 -0.0053 -0.0977  0.9825
11462TIP3    H155877   0.508   5.960   0.419  0.1476 -0.8416  0.3902
11462TIP3    H255878   0.417   5.840   0.402 -1.0858 -0.0501  1.2670
11463TIP3   OH255879   6.309   3.831   1.050 -0.1935 -0.0346 -0.0900
11463TIP3    H155880   6.373   3.846   1.120  1.6042 -0.7278 -1.4989
11463TIP3    H255881   6.284   3.739   1.060  1.7334 -0.8031 -1.5578
11464TIP3   OH255882   5.436   1.241  15.373 -0.2081  0.2329 -0.6782
11464TIP3    H155883   5.363   1.265  15.430  0.0278 -0.2847 -0.1432
11464TIP3    H255884   5.398   1.237  15.285 -0.5468  1.1601 -0.5851
11465TIP3   OH255885   4.770   4.011  13.184  0.2968 -0.2048  0.0224
11465TIP3    H155886   4.712   4.077  13.223  0.9060  2.0616 -2.5531
11465TIP3    H255887   4.763   4.026  13.090  2.2016 -2.4044 -0.5549
11466TIP3   OH255888   0.378   2.156  11.638  0.2215  0.1765 -0.1520
11466TIP3    H155889   0.432   2.078  11.651 -1.2465 -0.9461 -0.5107
11466TIP3    H255890   0.419   2.203  11.566  1.4170  0.0246  0.4071
11467TIP3   OH255891   6.137   2.387  13.946  0.5391 -0.1760 -0.5296
11467TIP3    H155892   6.214   2.378  14.001  0.2190  0.7357  0.0910
11467TIP3    H255893   6.119   2.298  13.914  0.6415 -0.7572  0.9613
11468TIP3   OH255894   5.057   4.425   4.051  0.2632  0.3177  0.4642
11468TIP3    H155895   5.020   4.508   4.025  0.6123  0.5573  0.7117
11468TIP3    H255896   5.045   4.367   3.976  2.1733  1.2789 -0.6540
11469TIP3   OH255897   4.854   1.106  10.642  0.1903 -0.6563 -0.7478
11469TIP3    H155898   4.772   1.120  10.594 -0.0024  0.1834 -0.1934
11469TIP3    H255899   4.837   1.029  10.696 -0.5129 -0.0263 -0.0555
11470TIP3   OH255900   3.013   0.222   5.318 -0.0890  0.1324 -0.2082
11470TIP3    H155901   2.919   0.207   5.334 -0.1290  0.0342 -0.5202
11470TIP3    H255902   3.049   0.134   5.309  0.0065  0.1743 -0.2331
11471TIP3   OH255903   0.192   0.063  13.403  0.2180  0.5964 -0.0120
11471TIP3    H155904   0.136   0.034  13.475  1.6968 -0.1515  0.8839
11471TIP3    H255905   0.276   0.080  13.444  0.6865  1.6050 -1.3446
11472TIP3   OH255906   0.704   3.091  13.317  0.0626 -0.0033  0.0012
11472TIP3    H155907   0.797   3.105  13.301  0.5758 -2.7967 -0.0198
11472TIP3    H255908   0.689   3.124  13.406  0.7825  1.5182 -0.4288
11473TIP3   OH255909   3.736   4.978   0.119  0.4411  0.0372 -0.3221
11473TIP3    H155910   3.718   4.975   0.025  3.1083 -2.1245 -0.8798
11473TIP3    H255911   3.779   5.063   0.133 -0.8217  0.7909 -0.7949
11474TIP3   OH255912   0.405   6.131   1.174 -0.3725 -0.1815 -0.3521
11474TIP3    H155913   0.481   6.109   1.120  0.1026 -2.2059  1.0055
11474TIP3    H255914   0.441   6.142   1.262 -1.4694  0.2447  0.0576
11475TIP3   OH255915   0.583   5.356   0.425 -0.0920  0.3142  0.2836
11475TIP3    H155916   0.521   5.417   0.384 -0.0587 -0.2021 -0.5458
11475TIP3    H255917   0.646   5.413   0.469  1.3635  1.0307 -2.4924
11476TIP3   OH255918   1.580   4.660  15.215  0.1017 -0.1285 -0.6145
11476TIP3    H155919   1.571   4.566  15.201  1.6419 -0.3812 -0.0805
11476TIP3    H255920   1.553   4.674  15.306  2.3395 -0.5063  0.1765
11477TIP3   OH255921   6.622   0.555   3.192  0.0528 -0.1614  0.1352
11477TIP3    H155922   6.593   0.466   3.209 -1.2729  0.3880  0.9011
11477TIP3    H255923   6.553   0.592   3.136  0.0237  0.7164  0.7377
11478TIP3   OH255924   2.039   0.209  12.819 -0.6591  0.2455  0.0066
11478TIP3    H155925   1.978   0.281  12.804 -0.5958 -0.0624 -1.8941
11478TIP3    H255926   2.029   0.189  12.912 -3.0632  0.5776 -0.1079
11479TIP3   OH255927   5.913   0.185  10.829  0.5360 -0.2583  0.1643
11479TIP3    H155928   5.912   0.140  10.913  3.8177 -0.2279  0.3203
11479TIP3    H255929   5.912   0.278  10.851  1.4790 -0.2499  0.1955
11480TIP3   OH255930   1.106   2.073  14.883  0.2295  0.3213  0.0337
11480TIP3    H155931   1.121   2.015  14.809 -1.1067  0.6950 -0.5601
11480TIP3    H255932   1.153   2.154  14.860  0.1357  0.3007 -0.2301
11481TIP3   OH255933   3.387   4.544   6.844 -0.4763 -0.2268  0.0499
11481TIP3    H155934   3.473   4.512   6.870 -0.2741 -1.7089 -2.1111
11481TIP3    H255935   3.403   4.592   6.762 -1.8856 -2.8137 -1.9096
11482TIP3   OH255936   0.732   5.535   2.293  0.3401 -0.8544 -0.2268
11482TIP3    H155937   0.676   5.572   2.225 -0.6653  0.7238  1.3584
11482TIP3    H255938   0.807   5.595   2.297 -0.4756  0.1406  1.2042
11483TIP3   OH255939   5.509   1.377  13.790 -0.4958  0.0188  1.0886
11483TIP3    H155940   5.416   1.381  13.814 -0.5507  1.0020  0.7876
11483TIP3    H255941   5.510   1.324  13.710 -0.8398  0.2512  0.9254
11484TIP3   OH255942   5.872   3.204  14.028 -0.6363  0.2480  0.4520
11484TIP3    H155943   5.846   3.151  14.103 -1.7005 -0.1202 -0.1510
11484TIP3    H255944   5.794   3.206  13.972  0.5836 -0.7288 -1.3647
11485TIP3   OH255945   4.141   3.232  14.761  0.0896 -0.0989 -0.8464
11485TIP3    H155946   4.079   3.188  14.703 -2.5831 -0.9061  2.2848
11485TIP3    H255947   4.093   3.308  14.793  1.3795  0.2402  0.3550
11486TIP3   OH255948   1.007   5.746  16.228  0.0997 -0.4618  0.6156
11486TIP3    H155949   0.985   5.682  16.161 -0.4670  0.0881  0.2648
11486TIP3    H255950   0.923   5.774  16.264  0.2650  0.7706  0.1098
11487TIP3   OH255951   6.509   3.464   4.510  0.2196  0.4478  0.1224
11487TIP3    H155952   6.529   3.437   4.421 -0.7133 -1.7719  0.5180
11487TIP3    H255953   6.443   3.402   4.540  0.4440  1.1763  2.3297
11488TIP3   OH255954   5.863   0.259  16.299  0.0159  0.2978 -0.0148
11488TIP3    H155955   5.955   0.247  16.278  0.6076  0.7410  2.0541
11488TIP3    H255956   5.817   0.195  16.245  1.4719  0.4420 -1.4801
11489TIP3   OH255957   4.381   4.562   5.935 -0.0968  0.4326 -0.0991
11489TIP3    H155958   4.297   4.515   5.927  0.8991 -2.3355  3.3184
11489TIP3    H255959   4.360   4.638   5.990 -0.4899  0.2911 -0.0458
11490TIP3   OH255960   5.677   4.500   1.864  0.0060 -0.1879  0.1184
11490TIP3    H155961   5.629   4.580   1.842  1.5032  1.0739  1.1937
11490TIP3    H255962   5.609   4.434   1.877 -1.2867  0.9437 -0.6182
11491TIP3   OH255963   6.498   2.211  15.843  0.0550 -0.4103  0.2059
11491TIP3    H155964   6.539   2.212  15.756  0.1012  0.4206  0.2274
11491TIP3    H255965   6.463   2.300  15.854 -0.1772 -0.5851  0.9319
11492TIP3   OH255966   6.515   2.766  11.554 -0.2725 -0.3946  0.0950
11492TIP3    H155967   6.572   2.703  11.600 -0.3159 -0.2987  0.2791
11492TIP3    H255968   6.556   2.776  11.468  1.6559  1.8516  1.1487
11493TIP3   OH255969   0.346   5.030   5.144 -0.0838  0.5806  0.1597
11493TIP3    H155970   0.408   5.099   5.121  0.2700  0.1287 -0.2778
11493TIP3    H255971   0.309   5.001   5.061  0.8747 -0.7633  0.1657
11494TIP3   OH255972   5.843   4.874  15.256 -0.0557  0.2084  0.2169
11494TIP3    H155973   5.799   4.919  15.184  2.6643 -0.5893 -2.0707
11494TIP3    H255974   5.877   4.945  15.311 -3.5850  0.8538  1.8920
11495TIP3   OH255975   2.492   2.043   0.664  0.3209 -0.0942 -0.6472
11495TIP3    H155976   2.504   2.134   0.636  1.8873  0.5091  1.6977
11495TIP3    H255977   2.478   2.048   0.758 -0.4948 -2.2461 -0.5998
11496TIP3   OH255978   0.281   4.838   0.467  0.4717 -0.3160 -0.1683
11496TIP3    H155979   0.329   4.904   0.417 -0.8543  0.3843 -0.5917
11496TIP3    H255980   0.196   4.879   0.484  0.3026 -1.1867  1.2505
11497TIP3   OH255981   4.730   6.608  16.755  0.4011 -0.1148  0.5176
11497TIP3    H155982   4.697   6.642  16.672  0.8094 -3.0093 -0.9617
11497TIP3    H255983   4.652   6.577  16.801  0.3802 -0.5563  0.1887
11498TIP3   OH255984   4.250   5.332  14.973 -0.6149 -0.3705 -0.0783
11498TIP3    H155985   4.268   5.309  14.881 -2.3566  0.5740 -0.7038
11498TIP3    H255986   4.331   5.372  15.004 -0.4139  0.5248 -1.6512
11499TIP3   OH255987   2.563   5.240   3.539 -0.4539  0.3209  0.4620
11499TIP3    H155988   2.636   5.213   3.596  1.1884  1.4749 -0.9876
11499TIP3    H255989   2.511   5.300   3.593 -0.0173 -0.0734  1.3457
11500TIP3   OH255990   6.674   3.516  13.359 -0.5080 -0.7108  0.3397
11500TIP3    H155991   6.601   3.577  13.353 -0.9708 -1.3765 -1.0276
11500TIP3    H255992   6.747   3.570  13.389 -0.8804  0.5646 -0.9379
11501TIP3   OH255993   6.839   3.013  12.419  0.0656 -0.1070  0.6436
11501TIP3    H155994   6.836   3.109  12.426  0.2316 -0.2130  2.9105
11501TIP3    H255995   6.922   2.995  12.375  0.5165  0.7854  1.0993
11502TIP3   OH255996   0.490   0.221  15.983 -0.0656 -0.1807 -0.5735
11502TIP3    H155997   0.580   0.249  16.000 -0.4490  2.4620 -2.2415
11502TIP3    H255998   0.491   0.126  15.997  3.1120 -0.3414 -1.1698
11503TIP3   OH255999   5.567   5.170   5.292  0.5594 -0.0964  0.0089
11503TIP3    H156000   5.615   5.234   5.239  1.3011 -0.7060 -0.0560
11503TIP3    H256001   5.496   5.222   5.332  0.3509  0.5031 -1.0790
11504TIP3   OH256002   1.974   4.556   5.219 -0.2131  0.5147  0.3582
11504TIP3    H156003   1.988   4.462   5.206  0.4991  0.5912  0.5287
11504TIP3    H256004   2.020   4.597   5.146  0.5601  0.7762  0.9679
11505TIP3   OH256005   1.837   1.985   4.504  0.7050 -0.0798 -0.5289
11505TIP3    H156006   1.871   2.062   4.549  0.6535  0.0607 -0.7270
11505TIP3    H256007   1.845   1.914   4.568 -0.9812  0.4576  0.3603
11506TIP3   OH256008   4.863   5.057  11.852 -0.1148  0.1736 -0.0023
11506TIP3    H156009   4.883   4.968  11.820 -0.1060  0.5235 -1.0128
11506TIP3    H256010   4.834   5.044  11.942  0.1091 -0.8375 -0.0619
11507TIP3   OH256011   0.222   5.083   1.415  0.2642 -0.1291  0.2862
11507TIP3    H156012   0.132   5.102   1.442  0.2277  1.7607 -1.0426
11507TIP3    H256013   0.250   5.013   1.475 -1.0664  1.2530  2.6907
11508TIP3   OH256014   0.520   2.921   3.649 -0.7144  0.2100  0.4701
11508TIP3    H156015   0.437   2.966   3.664 -1.2208  0.2977 -2.1172
11508TIP3    H256016   0.501   2.854   3.584  1.2412  0.2524 -0.2339
11509TIP3   OH256017   6.042   3.048  16.375 -0.0911  0.7607 -0.2934
11509TIP3    H156018   6.105   2.976  16.380  1.2028  1.8205 -0.6580
11509TIP3    H256019   6.078   3.106  16.307 -0.4350  2.3617  0.8410
11510TIP3   OH256020   2.263   4.758   6.016  0.4435 -0.8163 -0.0187
11510TIP3    H156021   2.198   4.711   6.068  0.0990 -1.3602 -0.9187
11510TIP3    H256022   2.344   4.709   6.026  0.2400 -1.2434 -0.4408
11511TIP3   OH256023   6.706   3.988  17.056 -0.7620  0.2852  0.0474
11511TIP3    H156024   6.611   3.987  17.046 -0.8763  0.9665  0.9368
11511TIP3    H256025   6.720   3.981  17.150 -0.0225  2.4061  0.1620
11512TIP3   OH256026   4.207   1.537  12.651  0.0182  0.4444  0.2630
11512TIP3    H156027   4.230   1.453  12.612  1.5639  1.1271 -0.3783
11512TIP3    H256028   4.225   1.527  12.744 -0.9325 -0.2802  0.3860
11513TIP3   OH256029   5.797   6.562  10.537  0.1451 -0.0345  0.6317
11513TIP3    H156030   5.774   6.471  10.522  2.2236 -0.7190  1.2748
11513TIP3    H256031   5.744   6.611  10.473  0.0483 -1.7994 -0.7076
11514TIP3   OH256032   3.142   6.102  12.718 -0.3941  0.5077  0.1134
11514TIP3    H156033   3.103   6.185  12.742 -0.0025  0.3235  1.5100
11514TIP3    H256034   3.215   6.125  12.661  0.4119  1.2410  1.3860
11515TIP3   OH256035   3.583   1.573  14.262  0.3255  0.8641  0.3037
11515TIP3    H156036   3.494   1.595  14.290 -0.0827 -1.5898  1.1435
11515TIP3    H256037   3.636   1.586  14.340  0.1494 -0.5835  0.6892
11516TIP3   OH256038   6.683   4.324   1.191  0.3946 -0.2681 -0.0659
11516TIP3    H156039   6.771   4.347   1.220  0.4571 -0.3121 -0.2233
11516TIP3    H256040   6.689   4.231   1.168  1.0794  0.4112 -3.0132
11517TIP3   OH256041   5.845   2.044   1.920 -0.2973 -0.1305  0.6228
11517TIP3    H156042   5.815   1.964   1.877 -0.3814  0.0831  0.2796
11517TIP3    H256043   5.936   2.026   1.943 -0.3500 -0.3654  0.6478
11518TIP3   OH256044   4.321   1.802   3.802  0.0672 -0.2843 -0.5285
11518TIP3    H156045   4.254   1.870   3.809  0.1251 -0.3236  0.4819
11518TIP3    H256046   4.337   1.774   3.892  1.1398 -0.5679 -0.7936
11519TIP3   OH256047   5.691   3.591   4.078  0.1640  0.2165 -0.3764
11519TIP3    H156048   5.690   3.498   4.099 -2.2358  0.2414 -0.0180
11519TIP3    H256049   5.659   3.595   3.988 -1.1735  0.7333  0.0968
11520TIP3   OH256050   3.472   5.081  13.665  0.2374  0.6497 -0.1003
11520TIP3    H156051   3.525   5.006  13.637 -0.5565 -0.2167  0.6716
11520TIP3    H256052   3.536   5.151  13.679  0.8074  0.7913 -2.8420
11521TIP3   OH256053   1.284   5.044  14.700 -0.0111  0.2852  0.1741
11521TIP3    H156054   1.313   4.960  14.667  0.3715  0.0266  1.1233
11521TIP3    H256055   1.362   5.082  14.740 -0.0913  1.2604 -0.5640
11522TIP3   OH256056   1.572   1.580  16.722  0.2015  0.1425 -0.4821
11522TIP3    H156057   1.487   1.553  16.689  0.4383  0.0974 -1.0624
11522TIP3    H256058   1.602   1.648  16.662  0.9343 -0.4175 -0.7788
11523TIP3   OH256059   4.250   2.205  15.034 -0.2446  0.1827 -0.1517
11523TIP3    H156060   4.249   2.211  15.129  2.0592 -2.9092  0.2236
11523TIP3    H256061   4.303   2.280  15.006 -1.4861  1.4925  0.8725
11524TIP3   OH256062   4.012   4.646   6.176 -0.6437  0.0013  0.1038
11524TIP3    H156063   3.989   4.572   6.119  1.7844 -1.4149  0.8095
11524TIP3    H256064   4.045   4.713   6.116 -0.7504 -0.3880 -0.3975
11525TIP3   OH256065   1.044   4.116  16.871  0.7780 -0.0650  0.0408
11525TIP3    H156066   0.975   4.182  16.864 -0.7964 -1.5486  0.8706
11525TIP3    H256067   1.054   4.083  16.781  0.5611  0.3066 -0.1237
11526TIP3   OH256068   0.185   3.832  16.801 -0.5697  0.5743 -0.2328
11526TIP3    H156069   0.166   3.789  16.884 -0.1547  0.6032 -0.1241
11526TIP3    H256070   0.102   3.876  16.779 -0.4700  1.1934  0.5443
11527TIP3   OH256071   0.700   2.723   0.348 -0.7719  0.3730  0.0108
11527TIP3    H156072   0.701   2.806   0.300 -0.5084  1.2290  1.4564
11527TIP3    H256073   0.700   2.748   0.440  0.0503 -1.2366  0.4875
11528TIP3   OH256074   4.148   4.238  12.541 -0.3504  0.2569  0.2176
11528TIP3    H156075   4.063   4.282  12.533 -0.4944  0.1379  1.0332
11528TIP3    H256076   4.202   4.277  12.472 -1.0805  0.2948 -0.3434
11529TIP3   OH256077   0.779   4.950  16.661  0.5044 -0.2339 -0.4628
11529TIP3    H156078   0.702   4.893  16.663  1.4609 -1.6025  1.9832
11529TIP3    H256079   0.837   4.909  16.596  0.5300 -1.1958  0.1460
11530TIP3   OH256080   1.822   0.191   5.903  0.0055  0.3460 -0.2369
11530TIP3    H156081   1.795   0.282   5.897  2.2538  1.3225  2.1567
11530TIP3    H256082   1.841   0.178   5.996  2.3380 -1.7161 -0.8965
11531TIP3   OH256083   3.006   1.695   1.031  0.1320  0.2521 -0.0369
11531TIP3    H156084   3.076   1.757   1.011 -0.4090  1.6732  2.1666
11531TIP3    H256085   3.025   1.665   1.120 -0.8388 -1.1035 -0.2512
11532TIP3   OH256086   1.017   6.523   0.566 -0.0772  0.1854 -0.0150
11532TIP3    H156087   1.072   6.453   0.531  0.1710 -0.8580  2.2629
11532TIP3    H256088   1.044   6.602   0.519  2.9585 -0.4017  0.5694
11533TIP3   OH256089   4.114   3.785   3.599 -0.1911 -0.2739  0.0381
11533TIP3    H156090   4.075   3.822   3.678  1.0614 -1.7768  1.4090
11533TIP3    H256091   4.183   3.727   3.630 -2.1657 -4.0212 -1.8820
11534TIP3   OH256092   0.334   5.492   2.939 -0.2625 -0.0541  0.0623
11534TIP3    H156093   0.243   5.461   2.941 -0.6172  0.9056 -0.9448
11534TIP3    H256094   0.385   5.412   2.923 -1.1975 -0.1513 -2.9971
11535TIP3   OH256095   3.045   1.123   5.119  0.3554  0.4014  0.0262
11535TIP3    H156096   3.083   1.154   5.037 -2.6249 -1.3502 -2.2124
11535TIP3    H256097   2.963   1.082   5.093  0.1796 -1.9806  3.7156
11536TIP3   OH256098   3.360   5.264   3.861  0.5178 -0.0743 -0.2853
11536TIP3    H156099   3.454   5.245   3.874  0.7695  1.0283 -0.4484
11536TIP3    H256100   3.337   5.213   3.783  1.1999  0.3313 -0.7622
11537TIP3   OH256101   2.153   6.705  15.458  0.1521  0.1155  0.0179
11537TIP3    H156102   2.093   6.755  15.514 -0.0190  0.8269 -0.7751
11537TIP3    H256103   2.142   6.615  15.486  0.1837  0.4757  1.2246
11538TIP3   OH256104   1.821   2.423   1.803  0.3839 -0.4951  0.5205
11538TIP3    H156105   1.776   2.424   1.888 -0.7507  1.6702 -0.0383
11538TIP3    H256106   1.876   2.501   1.805  0.3270 -0.4131 -0.7311
11539TIP3   OH256107   1.082   6.153   4.243 -0.3359  0.0773  1.0315
11539TIP3    H156108   1.001   6.105   4.258 -0.7100  0.1065 -0.7211
11539TIP3    H256109   1.055   6.243   4.228  0.0828  0.2201  1.1268
11540TIP3   OH256110   2.646   1.284  15.707  0.4398 -0.0833  0.6653
11540TIP3    H156111   2.738   1.298  15.729  0.3889  0.6569  0.4438
11540TIP3    H256112   2.602   1.363  15.739  0.1322  0.3186 -0.6845
11541TIP3   OH256113   4.746   3.033   0.640 -0.1835  0.8307 -0.5826
11541TIP3    H156114   4.726   3.011   0.549 -0.4313  0.9782 -0.5644
11541TIP3    H256115   4.825   3.086   0.635  0.1540  0.3307 -0.6645
11542TIP3   OH256116   5.996   0.935   4.351  0.2012 -0.0567 -0.9157
11542TIP3    H156117   5.955   1.021   4.361  1.5471  0.5483 -0.4399
11542TIP3    H256118   5.944   0.877   4.406 -0.8955  0.3832 -1.4617
11543TIP3   OH256119   3.974   1.048   4.488 -0.0811  0.0708  0.4854
11543TIP3    H156120   4.051   1.063   4.432 -0.4886  2.2417  0.4519
11543TIP3    H256121   3.953   0.955   4.473  1.1923 -0.0081 -1.2035
11544TIP3   OH256122   4.579   5.827   5.052  0.2286 -0.2958 -0.5386
11544TIP3    H156123   4.534   5.886   4.992  0.5500  0.1727 -0.3237
11544TIP3    H256124   4.557   5.739   5.021 -0.5887 -0.0692 -0.6133
11545TIP3   OH256125   3.988   5.289  16.726 -0.2723 -0.5000  0.0871
11545TIP3    H156126   3.948   5.217  16.775  1.0923 -1.2393  0.1744
11545TIP3    H256127   3.969   5.367  16.777 -0.5848 -0.9962  0.7338
11546TIP3   OH256128   1.354   2.462  16.722  0.7978  0.0131  0.0954
11546TIP3    H156129   1.324   2.431  16.807  1.0470 -2.0562 -0.5236
11546TIP3    H256130   1.449   2.460  16.727  0.8310 -1.1466 -0.5373
11547TIP3   OH256131   3.963   4.335   1.905  0.1131 -0.2905  0.6372
11547TIP3    H156132   4.010   4.301   1.829  1.1269  2.0546  0.1130
11547TIP3    H256133   3.879   4.289   1.905 -0.1369  0.0376 -2.2281
11548TIP3   OH256134   4.300   1.815  12.846  0.0561 -0.0220 -0.0331
11548TIP3    H156135   4.286   1.817  12.751  0.7705 -1.3842 -0.1911
11548TIP3    H256136   4.350   1.894  12.864  2.7205 -1.2744 -1.3285
11549TIP3   OH256137   5.504   2.983   4.888  0.3869 -0.5365 -0.3676
11549TIP3    H156138   5.565   3.004   4.959 -0.7161 -0.7628  0.6801
11549TIP3    H256139   5.417   2.997   4.926 -0.2314 -0.3983 -1.7635
11550TIP3   OH256140   4.208   1.615  13.684 -0.1372 -0.0458 -0.2246
11550TIP3    H156141   4.220   1.549  13.752  0.2791 -1.4969 -1.6330
11550TIP3    H256142   4.283   1.674  13.694 -0.7685  0.5280  1.3488
11551TIP3   OH256143   5.749   5.391   2.185  0.3464  0.2584  0.0633
11551TIP3    H156144   5.838   5.424   2.173 -0.1909  1.6281 -0.3245
11551TIP3    H256145   5.694   5.447   2.130 -0.5343 -1.8297 -1.3046
11552TIP3   OH256146   4.614   4.780   0.466  0.4549  0.2263  0.0423
11552TIP3    H156147   4.652   4.859   0.505 -0.0551  0.0892  0.8289
11552TIP3    H256148   4.688   4.719   0.461  1.1860  1.1724 -1.8286
11553TIP3   OH256149   5.611   4.626  11.763  0.4317  0.3507  0.2743
11553TIP3    H156150   5.531   4.573  11.765 -0.0815  1.0754 -0.3352
11553TIP3    H256151   5.591   4.696  11.700  0.9575  1.4749  1.3217
11554TIP3   OH256152   6.195   6.437  14.827 -0.0611 -0.6329 -0.3213
11554TIP3    H156153   6.152   6.521  14.811 -1.1577 -1.1518 -0.1383
11554TIP3    H256154   6.274   6.460  14.877  0.3500  0.4038 -1.4103
11555TIP3   OH256155   2.320   0.745   2.224 -0.0042  0.0772 -0.0719
11555TIP3    H156156   2.256   0.686   2.264 -0.8869  1.2905  0.3731
11555TIP3    H256157   2.343   0.807   2.294  0.3137  0.7257 -0.7358
11556TIP3   OH256158   4.860   4.424   6.202 -0.1435 -1.1951  0.4615
11556TIP3    H156159   4.870   4.517   6.223  0.1362 -1.5491  2.0472
11556TIP3    H256160   4.766   4.413   6.190 -0.0561 -0.4438 -1.2614
11557TIP3   OH256161   0.879   2.641  15.567  0.2071 -0.2218 -0.1492
11557TIP3    H156162   0.895   2.716  15.624 -0.2307 -0.4491  0.2833
11557TIP3    H256163   0.951   2.643  15.504  0.1540  0.6086 -0.1984
11558TIP3   OH256164   6.090   2.247   2.554  0.7748 -0.2725 -0.8175
11558TIP3    H156165   6.071   2.166   2.600  0.1524 -0.2166 -0.9652
11558TIP3    H256166   6.163   2.226   2.496  1.3782 -0.4169 -0.0146
11559TIP3   OH256167   0.940   0.390   1.435 -0.2106  0.2227  0.2689
11559TIP3    H156168   0.970   0.458   1.375  0.8957  0.5603  1.1711
11559TIP3    H256169   0.929   0.435   1.519 -0.0623 -0.5705  0.7289
11560TIP3   OH256170   6.632   5.839  12.584 -0.1164 -0.1888  0.5545
11560TIP3    H156171   6.665   5.898  12.517 -0.9682 -1.7407 -1.2983
11560TIP3    H256172   6.685   5.761  12.577  0.8342  0.1638  2.8259
11561TIP3   OH256173   6.785   2.969   2.936 -0.3311  0.0594  0.2018
11561TIP3    H156174   6.727   3.020   2.880  1.7327  0.7951 -1.3962
11561TIP3    H256175   6.767   3.002   3.025 -2.0505  0.4979 -0.2677
11562TIP3   OH256176   3.065   4.634  14.495 -0.4695 -0.3513  0.2585
11562TIP3    H156177   3.006   4.689  14.547  1.3002  1.4840  0.4518
11562TIP3    H256178   3.060   4.671  14.407  0.4919 -0.0717  0.3150
11563TIP3   OH256179   6.023   5.848  16.213 -0.8079  0.0456 -0.3616
11563TIP3    H156180   6.020   5.907  16.288 -1.2178  0.3789 -0.6435
11563TIP3    H256181   6.009   5.761  16.251  0.7735 -0.0127  0.1935
11564TIP3   OH256182   4.696   1.447  16.927  0.2671  0.0268 -0.2799
11564TIP3    H156183   4.760   1.511  16.895 -1.2831  1.3823 -0.7692
11564TIP3    H256184   4.662   1.486  17.008 -1.2794  0.2514 -1.0016
11565TIP3   OH256185   6.099   2.379  12.742 -0.0366 -0.5939 -0.2720
11565TIP3    H156186   6.151   2.457  12.763 -0.8078 -0.0733 -0.2310
11565TIP3    H256187   6.162   2.317  12.706  1.1416 -1.0682  2.3871
11566TIP3   OH256188   3.926   2.026  15.367  0.3977  0.0654  0.2116
11566TIP3    H156189   3.976   2.091  15.416  2.3377 -1.2295  0.0637
11566TIP3    H256190   3.850   2.007  15.422  0.3350  1.6785  0.7166
11567TIP3   OH256191   0.576   3.581   4.458  0.7087  0.4731 -0.2126
11567TIP3    H156192   0.671   3.595   4.456  0.5475  1.5469 -1.4855
11567TIP3    H256193   0.565   3.491   4.428  1.2591  0.8593 -1.6376
11568TIP3   OH256194   1.879   0.121   4.936 -0.3091 -0.3354  0.2672
11568TIP3    H156195   1.945   0.091   4.874  1.4642 -0.3630  2.0589
11568TIP3    H256196   1.801   0.138   4.883  1.4679  0.8508 -2.1323
11569TIP3   OH256197   4.751   2.464   1.326 -0.0272 -0.1477 -0.4859
11569TIP3    H156198   4.810   2.415   1.270  0.2805  0.0996 -0.3825
11569TIP3    H256199   4.663   2.440   1.296  0.1030 -1.0166 -0.2246
11570TIP3   OH256200   5.119   4.308   4.447 -0.5158 -0.1879 -0.2136
11570TIP3    H156201   5.114   4.346   4.535 -0.8646 -2.0977  0.6341
11570TIP3    H256202   5.155   4.378   4.393 -1.3972  1.4319  1.1957
11571TIP3   OH256203   1.844   1.059  14.994 -0.1499  0.1391 -0.8486
11571TIP3    H156204   1.817   1.096  15.078  0.8211 -0.6794 -0.1422
11571TIP3    H256205   1.924   1.107  14.971  1.1807 -1.4620  0.1286
11572TIP3   OH256206   4.924   5.268   5.003  0.2285  0.0781  0.2492
11572TIP3    H156207   4.886   5.207   4.940 -2.0508  0.8733  0.7641
11572TIP3    H256208   5.013   5.235   5.019 -0.4995 -2.3383 -0.4096
11573TIP3   OH256209   1.739   3.365   5.311 -0.1136  0.4838  0.0078
11573TIP3    H156210   1.799   3.424   5.267  0.9452 -0.8881 -0.4574
11573TIP3    H256211   1.794   3.292   5.341 -1.3603 -0.2530  0.6006
11574TIP3   OH256212   2.714   1.061   1.057  0.1217  0.5930 -0.4184
11574TIP3    H156213   2.625   1.095   1.047 -0.9404 -2.4257 -2.8840
11574TIP3    H256214   2.721   1.040   1.150 -1.2237  2.0610  0.0723
11575TIP3   OH256215   5.575   4.398  14.627 -0.5351 -0.1439  0.5653
11575TIP3    H156216   5.601   4.412  14.718 -1.3961 -0.2526  0.8384
11575TIP3    H256217   5.479   4.403  14.628 -0.5152  1.1356 -0.5534
11576TIP3   OH256218   2.074   1.875  14.584  0.0678 -0.5740 -0.1961
11576TIP3    H156219   2.063   1.826  14.503 -0.4845 -0.7912  0.0010
11576TIP3    H256220   2.035   1.960  14.567  1.9254  0.1988 -0.8701
11577TIP3   OH256221   0.952   5.806   6.111 -0.8218 -0.1642  0.4051
11577TIP3    H156222   0.963   5.846   6.197 -1.3680 -0.7034  0.7312
11577TIP3    H256223   1.025   5.840   6.060 -0.7538  0.5241  0.9408
11578TIP3   OH256224   1.114   5.693   1.953  0.5559 -0.4180 -0.3888
11578TIP3    H156225   1.113   5.663   2.044 -0.5961 -0.9231 -0.5474
11578TIP3    H256226   1.077   5.781   1.956 -2.8417 -1.6997 -0.7172
11579TIP3   OH256227   6.494   1.908   3.394  0.2208 -0.4948  0.0567
11579TIP3    H156228   6.428   1.945   3.453  0.3241  1.6119 -1.0264
11579TIP3    H256229   6.576   1.950   3.421  0.7771 -1.6475  0.1882
11580TIP3   OH256230   3.739   2.317   1.460  0.0631 -0.4384  0.0259
11580TIP3    H156231   3.752   2.229   1.494 -0.3496 -0.2384  0.7389
11580TIP3    H256232   3.696   2.364   1.532 -0.3687  0.1437 -0.5977
11581TIP3   OH256233   5.483   3.311   1.618  0.2879 -0.4610 -0.3069
11581TIP3    H156234   5.470   3.404   1.633  0.8967  0.0909 -2.7235
11581TIP3    H256235   5.395   3.273   1.621 -0.1614  0.4936 -0.8698
11582TIP3   OH256236   3.913   5.772  12.994  0.1914 -0.2336  0.3515
11582TIP3    H156237   3.819   5.755  13.007 -0.3689  1.7658 -0.6465
11582TIP3    H256238   3.918   5.867  12.982  1.8649 -0.6294 -3.1541
11583TIP3   OH256239   5.129   6.134  14.037 -0.8512 -0.2736  0.5490
11583TIP3    H156240   5.172   6.184  14.106 -0.5222 -1.7061  1.4343
11583TIP3    H256241   5.176   6.157  13.957 -0.5611  0.6337  0.9704
11584TIP3   OH256242   1.684   3.774   5.631 -0.0486  0.0486 -0.1562
11584TIP3    H156243   1.646   3.823   5.558  1.8361  1.8496  0.0091
11584TIP3    H256244   1.608   3.731   5.672 -1.3615  0.2872 -2.1658
11585TIP3   OH256245   1.583   2.342   4.394 -0.2370  0.0067 -0.3536
11585TIP3    H156246   1.654   2.279   4.382  0.0535  0.6000 -2.1083
11585TIP3    H256247   1.505   2.296   4.364 -0.5948 -0.5649  1.3564
11586TIP3   OH256248   1.881   4.878   3.800 -0.1137  0.5831 -0.5336
11586TIP3    H156249   1.967   4.914   3.821  0.7053 -0.9637 -1.1103
11586TIP3    H256250   1.885   4.787   3.828 -0.4314 -0.4009 -3.3444
11587TIP3   OH256251   2.184   6.025   6.072  0.2872  0.2741  0.6243
11587TIP3    H156252   2.116   5.970   6.112 -0.0621  1.0711  1.1550
11587TIP3    H256253   2.220   6.075   6.145  1.9260 -0.6033  0.4714
11588TIP3   OH256254   1.676   4.963  16.039 -0.0347 -0.4344 -0.2453
11588TIP3    H156255   1.748   5.012  16.079 -0.1305 -1.4291  1.2015
11588TIP3    H256256   1.713   4.876  16.024  0.3416  0.1468 -3.3751
11589TIP3   OH256257   0.148   6.054  12.921 -0.4810  0.1710 -0.0406
11589TIP3    H156258   0.132   5.996  12.996  1.0766  1.3970  1.3097
11589TIP3    H256259   0.074   6.115  12.922 -0.8929 -0.3214 -0.0159
11590TIP3   OH256260   2.346   0.010   1.475  0.2963  0.2706 -0.6705
11590TIP3    H156261   2.254   0.001   1.499  0.4015 -2.8914 -1.1440
11590TIP3    H256262   2.354   0.102   1.447 -2.1328  1.2492  1.4735
11591TIP3   OH256263   4.771   4.318   1.501 -0.4611  0.4362  0.1518
11591TIP3    H156264   4.736   4.346   1.416 -0.3788 -0.3332 -0.1474
11591TIP3    H256265   4.829   4.389   1.528 -0.4802  0.6863 -0.4478
11592TIP3   OH256266   1.158   2.934   4.332  0.5433  0.8228 -0.0693
11592TIP3    H156267   1.112   2.998   4.277  1.0150 -0.0127 -1.4769
11592TIP3    H256268   1.203   2.877   4.270  1.4806  0.1224  1.2146
11593TIP3   OH256269   4.803   4.992   0.878 -0.7332 -0.2718  0.3184
11593TIP3    H156270   4.890   4.991   0.838 -1.1171 -0.4618 -0.5192
11593TIP3    H256271   4.764   4.908   0.853 -0.5401 -0.9337  2.0915
11594TIP3   OH256272   3.933   3.127  14.319  0.0201 -0.4479 -1.0801
11594TIP3    H156273   4.018   3.139  14.278 -0.3934  2.6026 -1.2925
11594TIP3    H256274   3.949   3.142  14.413 -0.3281  0.7259 -1.1899
11595TIP3   OH256275   5.356   5.969  13.109  0.1274  0.1992 -1.2904
11595TIP3    H156276   5.315   6.054  13.127 -0.3458  0.2545 -2.5628
11595TIP3    H256277   5.283   5.910  13.093  0.4472 -0.5353 -0.1434
11596TIP3   OH256278   0.040   5.876   4.561  0.1847 -0.2369  0.1538
11596TIP3    H156279   0.120   5.930   4.563 -0.3298  0.5458  0.3880
11596TIP3    H256280  -0.006   5.904   4.482 -0.4488  0.2377  0.6693
11597TIP3   OH256281   3.865   3.114   5.279 -0.5896 -0.2287  0.1089
11597TIP3    H156282   3.783   3.103   5.230 -0.5350 -3.0246  0.4979
11597TIP3    H256283   3.853   3.196   5.326 -2.6286  0.1019 -0.8458
11598TIP3   OH256284   3.306   5.432   4.635 -0.0702  0.0727 -0.0018
11598TIP3    H156285   3.235   5.426   4.572  0.5308  0.6339 -0.7530
11598TIP3    H256286   3.377   5.476   4.588 -0.2473  2.2366  1.6167
11599TIP3   OH256287   5.267   0.470   2.870  0.0884 -0.1830  0.4082
11599TIP3    H156288   5.301   0.518   2.945 -0.6770 -0.4319  0.9250
11599TIP3    H256289   5.208   0.532   2.827  0.4113 -0.0908  0.0960
11600TIP3   OH256290   3.029   6.423   2.611 -0.0478  0.2001  0.5500
11600TIP3    H156291   3.090   6.400   2.541  0.2431  0.6176  0.6632
11600TIP3    H256292   3.007   6.340   2.652  0.2301  0.0192  0.3329
11601TIP3   OH256293   0.243   5.683   3.489 -0.0478  0.0872 -0.0185
11601TIP3    H156294   0.181   5.618   3.521 -1.2815  1.3257  0.1970
11601TIP3    H256295   0.329   5.651   3.518 -0.6739 -1.1267  0.5726
11602TIP3   OH256296   0.475   6.767  15.979 -0.3490 -0.4885  0.5043
11602TIP3    H156297   0.548   6.737  16.033  1.3883  0.2065 -1.3418
11602TIP3    H256298   0.500   6.743  15.890 -2.1814  0.1983 -0.2426
11603TIP3   OH256299   1.135   6.740  13.510 -0.1027  0.6779 -0.0249
11603TIP3    H156300   1.118   6.831  13.536 -0.6955  0.4662  0.3327
11603TIP3    H256301   1.060   6.716  13.456  2.2220  1.9647 -4.3241
11604TIP3   OH256302   1.531   1.592   3.785  0.3338 -0.1379 -0.2403
11604TIP3    H156303   1.547   1.559   3.696  0.3251  0.8063 -0.5967
11604TIP3    H256304   1.615   1.583   3.829  0.8615  1.1569 -0.9294
11605TIP3   OH256305   5.623   0.871   3.960  0.2222  0.2384 -0.3985
11605TIP3    H156306   5.650   0.836   3.875  0.6341  1.9298 -1.0067
11605TIP3    H256307   5.578   0.799   4.003  2.4833 -1.5727 -0.8684
11606TIP3   OH256308   2.120   1.284   0.197 -0.0147  0.0389 -0.7441
11606TIP3    H156309   2.123   1.366   0.147  0.6862 -0.2169 -1.1326
11606TIP3    H256310   2.026   1.264   0.203 -0.1047 -0.9787 -3.7117
11607TIP3   OH256311   1.426   1.354   2.869  0.0660  0.0718  0.0401
11607TIP3    H156312   1.413   1.422   2.803  1.4579  0.1263 -0.2007
11607TIP3    H256313   1.337   1.328   2.894 -0.4983  0.4027 -1.4910
11608TIP3   OH256314   0.353   5.531  16.293  0.0183 -0.4302 -0.1030
11608TIP3    H156315   0.396   5.517  16.208 -0.4812 -0.1467 -0.4045
11608TIP3    H256316   0.263   5.553  16.271 -0.0885 -0.2517  0.5006
11609TIP3   OH256317   6.176   3.546   4.486  0.3132  0.3254 -0.3458
11609TIP3    H156318   6.201   3.460   4.519 -0.0876  0.5976  0.7070
11609TIP3    H256319   6.143   3.592   4.563  1.5149  1.8045 -0.6727
11610TIP3   OH256320   2.873   4.274   6.327 -0.2081 -0.0608  0.4064
11610TIP3    H156321   2.837   4.355   6.363  1.2685  0.4787  0.7218
11610TIP3    H256322   2.963   4.295   6.306  0.3557 -1.7698  0.9647
11611TIP3   OH256323   3.137   5.435  16.174  0.1121  0.0636  0.1768
11611TIP3    H156324   3.162   5.467  16.088  0.1077 -1.6360 -0.4989
11611TIP3    H256325   3.111   5.513  16.223 -1.1643  0.9392 -1.7822
11612TIP3   OH256326   4.512   0.873  15.555  0.6907 -0.4036 -0.6265
11612TIP3    H156327   4.569   0.949  15.562 -0.1235  0.0645  1.5039
11612TIP3    H256328   4.548   0.824  15.481  2.4486  1.0045 -0.7893
11613TIP3   OH256329   3.668   2.082  12.750 -0.0454 -0.1718  0.1412
11613TIP3    H156330   3.714   2.092  12.833  0.3081  1.3970 -0.1975
11613TIP3    H256331   3.681   1.991  12.726  0.9412 -0.3273  1.1819
11614TIP3   OH256332   3.365   6.364  14.529 -1.0150  0.1456  0.3088
11614TIP3    H156333   3.376   6.272  14.506  0.1402  0.3735 -0.1283
11614TIP3    H256334   3.284   6.367  14.581 -2.7625 -0.6427 -2.1842
11615TIP3   OH256335   6.615   6.302   5.338 -0.7020 -0.7038 -0.0492
11615TIP3    H156336   6.521   6.285   5.342 -0.5655 -1.2110  1.9160
11615TIP3    H256337   6.651   6.226   5.292 -1.2016 -0.7512 -0.3646
11616TIP3   OH256338   4.123   6.719  12.925 -0.0596 -0.4865  0.0084
11616TIP3    H156339   4.210   6.709  12.962 -0.4780 -0.7409  0.9560
11616TIP3    H256340   4.086   6.631  12.926 -0.4533 -0.3241 -0.0596
11617TIP3   OH256341   0.222   4.533  11.378  0.5150 -0.4281  0.2239
11617TIP3    H156342   0.282   4.505  11.308  0.0765 -0.9070  0.0378
11617TIP3    H256343   0.183   4.614  11.344 -0.6769 -1.3411 -0.6774
11618TIP3   OH256344   3.164   3.866   1.973  0.3380  0.0509  0.3634
11618TIP3    H156345   3.198   3.946   2.014  0.4941  0.0906  0.1554
11618TIP3    H256346   3.224   3.848   1.901 -0.0057  0.0437  0.0772
11619TIP3   OH256347   3.434   2.997   2.013 -0.0608  0.1273  0.5441
11619TIP3    H156348   3.398   3.085   2.000  0.4080  0.3021  0.4219
11619TIP3    H256349   3.522   3.011   2.045  0.3566 -0.2915 -0.3748
11620TIP3   OH256350   3.711   5.657  16.416  0.0059 -0.2705 -0.0749
11620TIP3    H156351   3.765   5.698  16.349 -0.5935 -1.4472 -1.3155
11620TIP3    H256352   3.663   5.730  16.455  0.0649  0.4019 -1.2114
11621TIP3   OH256353   3.510   4.419  11.637 -0.2900 -0.4286  0.3959
11621TIP3    H156354   3.563   4.498  11.626 -1.3595  0.1040 -1.5027
11621TIP3    H256355   3.559   4.351  11.591  0.6402 -0.9364  2.0484
11622TIP3   OH256356   0.778   1.256   3.759 -0.0743 -0.1915  0.2391
11622TIP3    H156357   0.753   1.165   3.743  0.6330 -0.0388 -2.0987
11622TIP3    H256358   0.864   1.250   3.800 -0.1226 -0.5776  0.2874
11623TIP3   OH256359   0.951   1.158  14.312 -0.3364  0.2349  0.2595
11623TIP3    H156360   0.926   1.077  14.358 -1.4675  0.1276 -0.5069
11623TIP3    H256361   1.045   1.165  14.326 -0.3458 -0.8054  0.9883
11624TIP3   OH256362   5.411   5.225   3.282  0.2964 -0.2083 -0.8440
11624TIP3    H156363   5.392   5.170   3.357  0.7702  0.8466  0.0811
11624TIP3    H256364   5.328   5.266   3.260  0.9073  3.0512  2.0893
11625TIP3   OH256365   5.505   4.779   3.307  0.3668 -0.2907 -0.4073
11625TIP3    H156366   5.597   4.791   3.331 -0.3629 -0.4258  2.9837
11625TIP3    H256367   5.459   4.848   3.355 -1.4103 -0.8437 -1.2214
11626TIP3   OH256368   0.630   4.708  13.057  0.6326  0.3426  0.4934
11626TIP3    H156369   0.598   4.633  13.106  0.9828  0.2209  0.5408
11626TIP3    H256370   0.724   4.693  13.050  0.5902  0.3721 -0.1883
11627TIP3   OH256371   3.892   6.290   5.969  0.1010  0.4136  0.0835
11627TIP3    H156372   3.822   6.235   5.934  0.5487  1.1334 -2.0614
11627TIP3    H256373   3.857   6.321   6.053 -1.4939 -0.5244 -0.1846
11628TIP3   OH256374   4.892   4.025  14.230 -0.0785  0.4496 -0.3763
11628TIP3    H156375   4.907   4.111  14.190 -1.1453  1.2544  0.8960
11628TIP3    H256376   4.979   3.997  14.260  0.4831  0.5037 -1.8639
11629TIP3   OH256377   3.938   2.322  11.493  0.5116 -0.0372 -0.3041
11629TIP3    H156378   3.914   2.411  11.516 -0.3100 -0.5235  0.7885
11629TIP3    H256379   3.879   2.299  11.422  0.4069  0.1237 -0.2696
11630TIP3   OH256380   5.036   3.005  14.718 -0.5057 -0.7483 -0.2226
11630TIP3    H156381   5.063   3.051  14.798 -0.3462 -0.6243 -0.3478
11630TIP3    H256382   5.083   2.922  14.722  2.0486  0.4684 -1.7354
11631TIP3   OH256383   5.307   5.431  12.947 -0.1502 -0.0424  0.6984
11631TIP3    H156384   5.340   5.485  13.019  0.7334 -0.6047  0.7275
11631TIP3    H256385   5.356   5.349  12.954 -1.3294 -0.7739  0.5285
11632TIP3   OH256386   1.597   1.031   1.643  0.2924  0.2439 -0.0385
11632TIP3    H156387   1.537   0.956   1.640  1.5354 -0.7694 -0.7055
11632TIP3    H256388   1.559   1.094   1.582  0.4674 -0.8562 -1.3352
11633TIP3   OH256389   0.596   1.133  16.399  0.6095 -0.3523 -0.1292
11633TIP3    H156390   0.688   1.133  16.424 -0.0071  0.9255  2.4964
11633TIP3    H256391   0.583   1.219  16.357  1.0957 -1.5470 -2.9641
11634TIP3   OH256392   0.637   3.231   0.167  0.2302 -0.2548  0.0124
11634TIP3    H156393   0.672   3.305   0.217  0.1059 -0.0243 -0.2368
11634TIP3    H256394   0.561   3.202   0.216  1.5933 -1.7168  1.3720
11635TIP3   OH256395   0.486   4.481   5.450  0.6070  0.4912  0.4986
11635TIP3    H156396   0.513   4.495   5.359 -0.7862  1.3426  0.1866
11635TIP3    H256397   0.519   4.393   5.471  0.0166 -0.1760 -1.1933
11636TIP3   OH256398   1.671   5.553  13.550  0.4986 -1.0679  0.1281
11636TIP3    H156399   1.761   5.563  13.518  0.1592 -4.6628 -2.5100
11636TIP3    H256400   1.641   5.470  13.513 -3.1025 -1.3137  2.9975
11637TIP3   OH256401   4.437   4.553  12.771  0.0803  0.1310  0.6734
11637TIP3    H156402   4.459   4.542  12.679  1.4215  0.5023  0.9155
11637TIP3    H256403   4.394   4.638  12.776  1.2941  0.7826  0.5571
11638TIP3   OH256404   5.598   0.044   2.983 -0.2225 -0.0668 -0.0646
11638TIP3    H156405   5.611  -0.038   2.936  0.9992 -1.0448  1.8255
11638TIP3    H256406   5.685   0.065   3.019 -0.7778  1.3889  0.4961
11639TIP3   OH256407   1.589   0.723  14.129  0.3191  0.0954  0.0810
11639TIP3    H156408   1.596   0.811  14.092 -0.3535 -0.2526 -0.9310
11639TIP3    H256409   1.671   0.680  14.104  1.0766  0.7084  1.4104
11640TIP3   OH256410   6.193   2.018   2.713  0.2773 -0.5140  0.0889
11640TIP3    H156411   6.132   2.024   2.786 -1.5057 -0.8209 -1.3018
11640TIP3    H256412   6.216   1.925   2.708  0.5871 -0.4541  0.4066
11641TIP3   OH256413   0.155   6.057   2.896  0.1377 -0.5940  0.1310
11641TIP3    H156414   0.104   6.114   2.954  0.6863  0.4600 -0.3852
11641TIP3    H256415   0.155   6.103   2.812  1.6598 -0.7103  0.0361
11642TIP3   OH256416   1.956   1.292  12.563 -0.1560 -0.1210 -0.2136
11642TIP3    H156417   1.993   1.226  12.622  1.1280 -0.2749 -1.1426
11642TIP3    H256418   1.957   1.373  12.615  1.5512 -0.1151 -0.1724
11643TIP3   OH256419   1.459   4.019   0.150  0.3265  0.2110 -0.1007
11643TIP3    H156420   1.388   4.043   0.091 -1.3848  0.3346  1.8710
11643TIP3    H256421   1.436   4.060   0.233  4.1086  2.5757  0.0374
11644TIP3   OH256422   0.986   0.780  15.975 -0.6089 -0.0175 -0.0573
11644TIP3    H156423   1.073   0.808  16.004 -1.5222  1.5335  1.4155
11644TIP3    H256424   0.999   0.749  15.885  1.3689  0.6059 -0.0384
11645TIP3   OH256425   5.543   1.865   3.014  0.4147  0.1461  0.0914
11645TIP3    H156426   5.575   1.821   3.093  0.5678  0.7364  0.3683
11645TIP3    H256427   5.521   1.954   3.044  2.2910  0.9880 -0.9103
11646TIP3   OH256428   4.173   0.646  11.548 -0.7238 -0.3096 -0.3677
11646TIP3    H156429   4.239   0.703  11.510  0.3743 -1.2151  0.1115
11646TIP3    H256430   4.110   0.632  11.477  0.0276 -0.0809 -1.1033
11647TIP3   OH256431   5.628   2.488  14.270  0.0776  0.5276 -0.1700
11647TIP3    H156432   5.537   2.514  14.258 -0.0330  0.2073 -0.0270
11647TIP3    H256433   5.637   2.408  14.218  0.2448  0.4921 -0.0877
11648TIP3   OH256434   4.620   1.999   2.075 -0.9093 -0.0196 -0.4754
11648TIP3    H156435   4.557   2.025   2.007 -0.1508  3.0477 -0.1890
11648TIP3    H256436   4.671   2.079   2.091  1.2600 -1.6274  1.2390
11649TIP3   OH256437   3.933   0.590  12.568  0.3704  0.9456 -0.0239
11649TIP3    H156438   3.845   0.577  12.532  1.0340 -0.4045 -1.2747
11649TIP3    H256439   3.926   0.668  12.623 -2.0012 -0.0675  1.2613
11650TIP3   OH256440   5.955   6.777   4.281 -0.6344  0.2363  0.0437
11650TIP3    H156441   6.010   6.825   4.344  0.1076 -1.4589  0.7367
11650TIP3    H256442   5.884   6.741   4.333 -0.2142 -0.8811 -0.1304
11651TIP3   OH256443   1.410   4.812   3.273  0.1580  0.5180  0.5595
11651TIP3    H156444   1.468   4.872   3.321 -0.8478  0.0714  2.4204
11651TIP3    H256445   1.326   4.819   3.319 -0.5958 -0.6451 -0.5925
11652TIP3   OH256446   5.231   1.842  11.364 -0.4882 -0.1556 -0.4578
11652TIP3    H156447   5.170   1.772  11.387  1.1919 -0.9864  1.8603
11652TIP3    H256448   5.289   1.803  11.298 -0.3697 -0.5294 -0.1378
11653TIP3   OH256449   0.259   4.724  16.773 -0.7798  0.6420  0.6770
11653TIP3    H156450   0.264   4.750  16.865 -1.6282  0.8947  0.6591
11653TIP3    H256451   0.342   4.679  16.756 -0.4571  0.9286  1.4592
11654TIP3   OH256452   3.430   4.648  14.846  0.4380 -0.2844  0.2008
11654TIP3    H156453   3.510   4.606  14.815 -0.0399  0.0249 -1.5593
11654TIP3    H256454   3.418   4.722  14.787 -0.6479  0.2448  1.0479
11655TIP3   OH256455   2.618   6.080   3.478 -0.7345 -0.4369  0.2803
11655TIP3    H156456   2.565   6.155   3.452 -0.4824 -0.7255 -1.1448
11655TIP3    H256457   2.555   6.018   3.514 -0.9088  0.5419  1.7679
11656TIP3   OH256458   0.375   6.003   4.601 -0.1262  0.0740  0.6211
11656TIP3    H156459   0.448   5.942   4.592 -0.1986 -0.1290  1.2948
11656TIP3    H256460   0.378   6.030   4.693  0.0322  1.2567  0.2807
11657TIP3   OH256461   5.597   4.408  13.654 -0.4274 -0.3661  0.0167
11657TIP3    H156462   5.636   4.391  13.740  1.3637  1.5050 -0.3456
11657TIP3    H256463   5.573   4.500  13.656  2.0665  0.4687 -2.2952
11658TIP3   OH256464   4.156   4.706   2.912 -0.4674 -0.8538  0.4443
11658TIP3    H156465   4.178   4.794   2.882 -1.7819 -1.0928 -1.3652
11658TIP3    H256466   4.066   4.713   2.943  0.5587 -0.8060  3.8200
11659TIP3   OH256467   0.794   4.860   5.509 -0.1633  0.4036  0.3690
11659TIP3    H156468   0.871   4.893   5.462  0.1626  0.1726  0.7342
11659TIP3    H256469   0.828   4.791   5.565 -0.7884 -0.3263 -0.1307
11660TIP3   OH256470   6.469   1.242   5.639 -0.6462 -0.6447  0.8535
11660TIP3    H156471   6.508   1.297   5.706  1.8647 -1.1735 -0.0357
11660TIP3    H256472   6.431   1.303   5.576 -2.7718 -0.1426  2.5088
11661TIP3   OH256473   3.489   2.529   3.847 -0.1336 -0.2657 -0.1708
11661TIP3    H156474   3.452   2.610   3.881 -1.4500 -1.0117  0.2376
11661TIP3    H256475   3.537   2.492   3.921 -0.2447 -0.2749 -0.1033
11662TIP3   OH256476   3.177   1.890   3.670  0.5514  0.1270  0.6222
11662TIP3    H156477   3.100   1.945   3.663 -0.2359 -0.9046  0.9385
11662TIP3    H256478   3.243   1.934   3.616 -0.8852 -0.0590 -1.4093
11663TIP3   OH256479   4.906   6.708  13.607 -0.9740 -0.1003  0.2712
11663TIP3    H156480   4.935   6.741  13.692 -1.6808  0.1167  0.4396
11663TIP3    H256481   4.865   6.784  13.566  0.1390  0.0264 -0.6343
11664TIP3   OH256482   4.838   1.182  17.020  0.1038 -0.0251  0.1316
11664TIP3    H156483   4.750   1.207  16.992  0.2147 -1.2865 -1.4632
11664TIP3    H256484   4.895   1.249  16.982 -0.0612  0.2646  0.3832
11665TIP3   OH256485   1.139   4.199   1.108 -0.3950 -1.1012  0.0602
11665TIP3    H156486   1.089   4.220   1.029 -0.0788 -0.4349  0.0327
11665TIP3    H256487   1.226   4.175   1.075  0.4930  1.4930  0.3086
11666TIP3   OH256488   3.257   1.517  10.389 -0.0598  0.1534 -0.4237
11666TIP3    H156489   3.178   1.570  10.401 -0.8307 -1.1756  0.6360
11666TIP3    H256490   3.298   1.514  10.475  1.0898  0.6799 -0.9240
11667TIP3   OH256491   3.326   3.418   6.662 -0.7049  0.0000 -0.1537
11667TIP3    H156492   3.273   3.466   6.599 -1.0288  2.2136  1.6786
11667TIP3    H256493   3.416   3.443   6.642 -0.5608 -1.2279 -1.2094
11668TIP3   OH256494   4.057   2.912   5.701 -0.2056  0.4842 -0.0444
11668TIP3    H156495   4.117   2.844   5.673 -1.0167  0.7185 -2.6685
11668TIP3    H256496   3.987   2.866   5.747  1.1325  0.0560  1.6750
11669TIP3   OH256497   4.891   6.241  14.285  0.0921  0.0599  0.2210
11669TIP3    H156498   4.841   6.270  14.362  0.1638  0.7178  0.0294
11669TIP3    H256499   4.980   6.227  14.319 -0.1889 -1.0224  0.5435
11670TIP3   OH256500   1.436   4.126   2.147 -0.2507  0.6751 -0.3429
11670TIP3    H156501   1.359   4.176   2.173 -0.4453  0.0573  0.3041
11670TIP3    H256502   1.468   4.087   2.229 -0.1949 -0.3813 -0.8493
11671TIP3   OH256503   2.488   1.901   2.954 -0.3632  0.2076 -0.2013
11671TIP3    H156504   2.502   1.990   2.922 -0.6973  0.6633  0.8818
11671TIP3    H256505   2.513   1.845   2.880 -0.5798  1.2001 -1.0544
11672TIP3   OH256506   3.696   4.959  16.998  0.0757  0.1714  0.3327
11672TIP3    H156507   3.741   4.875  16.989  0.5727  0.5738 -1.2810
11672TIP3    H256508   3.613   4.948  16.951 -0.1595  0.3851  0.6847
11673TIP3   OH256509   3.415   0.870  10.627  0.0882  1.0455  0.3366
11673TIP3    H156510   3.489   0.834  10.675  0.1041 -0.1288 -0.5263
11673TIP3    H256511   3.381   0.939  10.684  0.6941  0.3459  1.5902
11674TIP3   OH256512   3.022   4.268   2.868 -0.3086 -0.0114  0.0931
11674TIP3    H156513   3.058   4.335   2.809  1.4351 -2.8273 -2.3399
11674TIP3    H256514   2.978   4.206   2.810 -0.3068 -1.9040  1.9617
11675TIP3   OH256515   5.959   4.988   2.834 -0.4254  0.3682  0.3305
11675TIP3    H156516   6.046   4.993   2.796 -1.6018  0.3544 -2.6565
11675TIP3    H256517   5.961   4.912   2.891  2.1920  1.8918  2.5141
11676TIP3   OH256518   6.131   2.609   4.414  0.6493 -0.0170  0.3036
11676TIP3    H156519   6.168   2.685   4.457 -2.2878  0.9405  1.3793
11676TIP3    H256520   6.101   2.553   4.485 -0.8454 -0.2397 -0.4561
11677TIP3   OH256521   0.384   0.453  15.867 -0.1916 -0.4069 -0.3769
11677TIP3    H156522   0.353   0.482  15.953 -0.2471 -1.3976 -0.0385
11677TIP3    H256523   0.436   0.374  15.887 -0.2610 -0.6818 -1.2618
11678TIP3   OH256524   1.526   0.326   0.890  0.1512 -0.3898 -0.3314
11678TIP3    H156525   1.483   0.404   0.927 -1.1910 -0.7092 -1.1417
11678TIP3    H256526   1.454   0.264   0.876  0.9035 -0.9978 -1.6297
11679TIP3   OH256527   6.532   5.110  14.130 -0.0069 -0.1558 -0.2573
11679TIP3    H156528   6.605   5.147  14.081 -0.0775 -0.2010 -0.3961
11679TIP3    H256529   6.454   5.131  14.079 -0.0760 -0.2456 -0.1910
11680TIP3   OH256530   2.558   2.343   4.273  0.0214 -0.1291  0.5012
11680TIP3    H156531   2.488   2.345   4.209 -0.2497 -2.4305  0.6321
11680TIP3    H256532   2.524   2.287   4.343  0.5896  1.7153  2.3437
11681TIP3   OH256533   1.051   4.276   4.864 -0.4426 -0.0368 -0.5842
11681TIP3    H156534   1.127   4.279   4.922  0.9423 -0.3010 -2.3119
11681TIP3    H256535   1.018   4.366   4.861  0.9194  0.4610 -1.2043
11682TIP3   OH256536   1.810   4.418  11.214 -0.9177 -0.0744 -0.4999
11682TIP3    H156537   1.869   4.440  11.287 -2.1102  0.8730  0.2277
11682TIP3    H256538   1.849   4.340  11.174  0.4379  0.1164  0.3847
11683TIP3   OH256539   5.732   0.087  13.853 -0.3793  0.2185 -0.2618
11683TIP3    H156540   5.636   0.080  13.860 -0.1947 -1.6891  1.2254
11683TIP3    H256541   5.752   0.173  13.890 -1.4777  0.5237 -0.3122
11684TIP3   OH256542   1.417   6.010   2.208 -0.1466 -0.1240  0.2059
11684TIP3    H156543   1.457   6.026   2.123  1.5171 -0.5312  0.8695
11684TIP3    H256544   1.416   6.095   2.251  0.8353 -0.2502  0.5052
11685TIP3   OH256545   1.930   0.841   2.822 -0.2296  0.4723  0.1343
11685TIP3    H156546   1.890   0.924   2.851  0.4102  1.0624 -0.6327
11685TIP3    H256547   1.871   0.774   2.855 -0.1153  1.1580  1.8451
11686TIP3   OH256548   4.223   0.363  10.750 -0.0021 -0.0735  0.3840
11686TIP3    H156549   4.298   0.411  10.785  0.9152 -0.0369 -1.5254
11686TIP3    H256550   4.178   0.425  10.693 -0.0329 -0.8268 -0.4438
11687TIP3   OH256551   0.094   5.877   1.497 -0.3756  0.4388 -0.0800
11687TIP3    H156552   0.053   5.792   1.479 -0.0112 -0.1176  1.5836
11687TIP3    H256553   0.187   5.857   1.508  0.0236  1.3470 -1.4313
11688TIP3   OH256554   0.670   4.661  16.293 -0.0746  0.4758 -0.5495
11688TIP3    H156555   0.674   4.661  16.388 -0.1520  1.5463 -0.5377
11688TIP3    H256556   0.639   4.749  16.270 -1.3988 -0.2034 -1.5005
11689TIP3   OH256557   2.733   5.523  12.105  0.1687  0.3169 -0.0608
11689TIP3    H156558   2.796   5.568  12.162  2.3990 -1.3761 -1.0436
11689TIP3    H256559   2.684   5.593  12.063 -0.3027  1.6530  2.5241
11690TIP3   OH256560   3.116   1.666  16.569 -0.2335 -0.2857 -0.9625
11690TIP3    H156561   3.022   1.679  16.579  0.2531  2.9786  0.3918
11690TIP3    H256562   3.145   1.635  16.654  0.3332  2.2804 -0.1416
11691TIP3   OH256563   4.279   5.868   5.422  0.2154  0.3484 -0.0298
11691TIP3    H156564   4.337   5.924   5.371  1.4745 -0.5310  0.4059
11691TIP3    H256565   4.323   5.783   5.426  0.5763  0.5539  3.1196
11692TIP3   OH256566   1.525   2.572  11.527 -0.3259  0.3748  0.4036
11692TIP3    H156567   1.489   2.524  11.453 -0.6911  0.1420  0.7295
11692TIP3    H256568   1.587   2.633  11.488  0.7436 -0.8886  0.0285
11693TIP3   OH256569   3.949   6.232  11.223 -0.1494  0.6167 -0.7558
11693TIP3    H156570   4.015   6.201  11.161  1.2121  0.4337  0.7252
11693TIP3    H256571   3.942   6.326  11.204 -1.8215  0.1175 -3.0028
11694TIP3   OH256572   5.100   2.516  12.304  0.2550  0.2312 -0.0373
11694TIP3    H156573   5.046   2.537  12.380  0.1681 -0.5018  0.1056
11694TIP3    H256574   5.157   2.445  12.334 -0.2802 -0.5655 -0.8638
11695TIP3   OH256575   3.188   2.528  14.141  0.6127 -0.0961 -0.2045
11695TIP3    H156576   3.183   2.514  14.046  0.2763 -0.5154 -0.1292
11695TIP3    H256577   3.226   2.447  14.175  1.5140  0.3739 -0.0594
11696TIP3   OH256578   5.644   3.187   5.585  0.5523  0.2220 -0.4895
11696TIP3    H156579   5.660   3.099   5.618 -1.0241  0.0900  0.0371
11696TIP3    H256580   5.650   3.180   5.490 -0.7990 -0.7506 -0.5242
11697TIP3   OH256581   3.476   4.107   5.437  0.3054  0.2067 -0.7239
11697TIP3    H156582   3.565   4.138   5.454  0.7514 -0.1786 -2.2029
11697TIP3    H256583   3.419   4.167   5.486  1.3951 -0.2895  1.2817
11698TIP3   OH256584   5.176   2.005  10.944  0.0832  0.2133 -0.2198
11698TIP3    H156585   5.211   2.016  11.032 -1.6390 -0.2543  0.5740
11698TIP3    H256586   5.139   1.917  10.943  0.2814  0.1205 -1.4968
11699TIP3   OH256587   3.257   3.205   2.020 -0.4972 -0.1699  0.0056
11699TIP3    H156588   3.211   3.123   2.039 -1.6736  0.1476 -1.2959
11699TIP3    H256589   3.190   3.273   2.031 -0.2273  0.3578 -1.3750
11700TIP3   OH256590   4.242   4.671   0.876 -0.0195  0.1780 -0.0825
11700TIP3    H156591   4.277   4.645   0.962 -1.6529  0.1649  0.6147
11700TIP3    H256592   4.180   4.602   0.854 -0.1656  0.5705 -0.9289
11701TIP3   OH256593   0.144   5.036   1.076 -0.2192  0.0565  0.4810
11701TIP3    H156594   0.218   5.087   1.043 -0.8121  1.2117  0.8533
11701TIP3    H256595   0.110   5.088   1.149 -1.2961 -0.5182  0.4156
11702TIP3   OH256596   1.983   3.245  13.575  0.1054  0.3720  0.1489
11702TIP3    H156597   1.985   3.169  13.516  0.4824 -0.9342  1.7923
11702TIP3    H256598   1.893   3.248  13.608  0.4965 -0.3236  1.2931
11703TIP3   OH256599   4.505   3.411   5.930  0.0376 -0.5881 -0.0154
11703TIP3    H156600   4.440   3.475   5.961 -0.8507 -1.5968  0.2563
11703TIP3    H256601   4.484   3.330   5.977  1.4855 -0.9567  0.0517
11704TIP3   OH256602   4.294   6.105   0.503  0.0547  0.3492 -0.5135
11704TIP3    H156603   4.231   6.037   0.478  1.4530 -0.7010 -1.4067
11704TIP3    H256604   4.264   6.136   0.588 -0.5670 -1.5211  0.0013
11705TIP3   OH256605   0.783   2.614  16.670  0.4131 -0.4613  0.5190
11705TIP3    H156606   0.750   2.679  16.732  0.4310  0.7312 -0.6796
11705TIP3    H256607   0.705   2.565  16.643  0.0929  0.3121  0.0161
11706TIP3   OH256608   5.361   1.832   4.235 -0.2390  0.2263 -0.0884
11706TIP3    H156609   5.328   1.817   4.146 -1.8535  0.0932  0.5105
11706TIP3    H256610   5.456   1.840   4.224 -0.3195 -0.6536 -1.7050
11707TIP3   OH256611   5.146   6.549   3.952 -0.1569 -0.1840 -0.0761
11707TIP3    H156612   5.235   6.517   3.934 -0.3004  0.1655 -1.5425
11707TIP3    H256613   5.153   6.592   4.037  0.8528 -1.0146  0.2855
11708TIP3   OH256614   0.373   1.671   3.000  0.1431 -0.1600  0.1131
11708TIP3    H156615   0.346   1.705   3.086  0.6152  0.1950  0.1232
11708TIP3    H256616   0.294   1.628   2.966 -0.6702  1.4362 -0.1571
11709TIP3   OH256617   3.336   5.911   0.546  0.2875  0.4191  0.4742
11709TIP3    H156618   3.419   5.874   0.577 -0.0669  0.3578  1.3673
11709TIP3    H256619   3.316   5.981   0.608 -0.2075  0.5985  0.1162
11710TIP3   OH256620   2.686   2.594  12.911  0.2745  0.1888  0.3566
11710TIP3    H156621   2.754   2.548  12.863 -0.7801 -0.1033 -0.9302
11710TIP3    H256622   2.604   2.566  12.869 -0.4459  2.9159 -0.2545
11711TIP3   OH256623   6.256   2.208  12.602  0.2536 -0.2534  0.3714
11711TIP3    H156624   6.192   2.231  12.535 -0.6881  0.6165  1.5435
11711TIP3    H256625   6.340   2.234  12.564 -0.3083  0.6723 -0.2824
11712TIP3   OH256626   4.091   6.501  11.095 -0.1226 -0.2469  0.4315
11712TIP3    H156627   4.181   6.482  11.119 -0.0190  1.3224  1.4355
11712TIP3    H256628   4.097   6.546  11.011  0.2669  1.6078  1.3769
11713TIP3   OH256629   4.454   6.589   0.624  0.2204 -0.1710  0.3346
11713TIP3    H156630   4.413   6.621   0.544 -0.7686  1.7936  1.5475
11713TIP3    H256631   4.471   6.496   0.607 -0.5413  0.0398 -1.8931
11714TIP3   OH256632   2.105   2.642   5.068  0.6374  0.0952  0.0180
11714TIP3    H156633   2.066   2.601   5.145  0.6567 -1.5064 -0.7767
11714TIP3    H256634   2.198   2.617   5.071  0.4842 -0.6746 -0.9119
11715TIP3   OH256635   3.179   0.215   1.858  0.3742 -0.7651 -0.2460
11715TIP3    H156636   3.255   0.270   1.841 -0.7402  0.4949 -1.3669
11715TIP3    H256637   3.144   0.196   1.771 -1.2927 -0.2907  0.2888
11716TIP3   OH256638   6.230   3.303  10.538 -0.4103 -0.5434 -0.0445
11716TIP3    H156639   6.243   3.251  10.459  1.1364 -0.4693  0.1348
11716TIP3    H256640   6.317   3.333  10.562 -0.4371 -2.4873  3.0073
11717TIP3   OH256641   3.325   3.527   1.988 -0.7683 -0.1754 -0.6136
11717TIP3    H156642   3.416   3.497   1.996 -0.3087  1.5796  2.4973
11717TIP3    H256643   3.273   3.456   2.025 -0.1515  0.5287  1.8263
11718TIP3   OH256644   5.671   1.239   2.481  0.0838 -0.8779 -0.4177
11718TIP3    H156645   5.737   1.178   2.449  1.2176  0.5826 -0.9204
11718TIP3    H256646   5.679   1.316   2.426 -0.8915 -0.0013  0.6036
11719TIP3   OH256647   2.026   2.070  11.567 -0.0943 -0.0718  0.3386
11719TIP3    H156648   2.015   2.109  11.481  0.6181 -0.1153  0.2198
11719TIP3    H256649   1.969   2.120  11.624 -1.4639 -0.7721 -0.3600
11720TIP3   OH256650   4.389   3.759   2.031  0.1490  0.0188  0.2747
11720TIP3    H156651   4.400   3.744   2.125 -2.6648 -0.6805  0.5664
11720TIP3    H256652   4.479   3.771   1.998  1.1583  1.0941  3.1363
11721TIP3   OH256653   0.959   1.595  10.725 -0.5424 -0.6737 -0.1410
11721TIP3    H156654   0.935   1.598  10.633 -0.9678 -1.4369 -0.0586
11721TIP3    H256655   1.040   1.543  10.728 -1.1526 -1.6256  0.0361
11722TIP3   OH256656   4.447   3.695  12.516 -0.7270 -0.3314  0.2506
11722TIP3    H156657   4.492   3.706  12.432  0.8523 -0.6856  1.0281
11722TIP3    H256658   4.466   3.605  12.542 -2.1971 -0.6178  0.4616
11723TIP3   OH256659   2.918   0.680   5.377 -0.5226  0.3065  0.3990
11723TIP3    H156660   2.871   0.633   5.307 -1.0058 -0.3933  1.1713
11723TIP3    H256661   3.003   0.637   5.381 -0.6205  0.1148  0.4663
11724TIP3   OH256662   0.294   1.743   3.268 -0.2086 -0.2711 -0.0977
11724TIP3    H156663   0.224   1.787   3.315 -0.7968  0.3196 -1.4683
11724TIP3    H256664   0.282   1.650   3.288 -1.0405 -0.1209  0.1359
11725TIP3   OH256665   5.656   4.703  13.532 -0.2577 -0.2192  0.1902
11725TIP3    H156666   5.723   4.673  13.594 -0.3931  0.5826  0.7424
11725TIP3    H256667   5.694   4.782  13.494 -0.5505 -0.2210 -0.1043
11726TIP3   OH256668   0.861   6.018   5.177  0.2028  1.1237 -0.2054
11726TIP3    H156669   0.855   6.108   5.145 -0.1988  1.2635  0.2514
11726TIP3    H256670   0.783   5.975   5.143  0.7690  0.7366 -1.0506
11727TIP3   OH256671   1.585   2.186  11.279 -0.1647 -0.2549  0.0566
11727TIP3    H156672   1.619   2.170  11.368  0.0370 -1.3324 -0.2030
11727TIP3    H256673   1.528   2.112  11.261  1.8132 -1.4412 -1.6979
11728TIP3   OH256674   3.426   4.279   2.529 -0.6493  0.3126 -0.1566
11728TIP3    H156675   3.509   4.311   2.563 -0.8716  0.8680 -0.1246
11728TIP3    H256676   3.382   4.357   2.495 -1.5627  0.1719  0.6749
11729TIP3   OH256677   1.671   2.639   4.982 -0.0822  0.3068 -0.6280
11729TIP3    H156678   1.704   2.549   4.972 -0.2636 -0.2806  2.7263
11729TIP3    H256679   1.579   2.628   5.008 -0.2322  1.5107 -0.5832
11730TIP3   OH256680   0.829   1.752  14.420  0.1648 -0.1376 -0.4249
11730TIP3    H156681   0.747   1.747  14.370 -0.0284  0.1099 -0.1372
11730TIP3    H256682   0.852   1.661  14.437 -0.6470 -0.1961  0.4545
11731TIP3   OH256683   4.976   2.038  13.838  0.3201 -0.0410 -0.5895
11731TIP3    H156684   4.946   2.038  13.929  2.3329 -1.4348  0.1412
11731TIP3    H256685   5.051   2.098  13.837  2.1791 -2.2092 -0.5544
11732TIP3   OH256686   1.968   6.647   2.192 -0.2622 -0.3856 -0.0487
11732TIP3    H156687   1.993   6.729   2.234 -1.6176 -0.0227  0.0807
11732TIP3    H256688   1.944   6.672   2.103 -3.8647 -0.0120  0.8634
11733TIP3   OH256689   6.172   5.210   3.805 -0.2689 -0.0416 -0.0971
11733TIP3    H156690   6.265   5.221   3.789 -0.1716  0.4634  0.7403
11733TIP3    H256691   6.137   5.178   3.722  0.3555  1.5202 -1.0140
11734TIP3   OH256692   1.593   4.034  14.047  0.1646  0.1597  0.1729
11734TIP3    H156693   1.673   4.007  14.003  0.3879  0.0434  0.6423
11734TIP3    H256694   1.622   4.071  14.130 -0.1543  1.6614 -0.3598
11735TIP3   OH256695   0.488   5.568   3.493  0.1869 -0.8907 -0.3184
11735TIP3    H156696   0.497   5.610   3.407  2.1893  1.3289  0.8692
11735TIP3    H256697   0.578   5.550   3.520 -0.3956 -1.3440  1.4297
11736TIP3   OH256698   4.704   5.359  11.089  0.1929  0.3423  0.4572
11736TIP3    H156699   4.667   5.330  11.006 -0.8199 -0.8108  1.2929
11736TIP3    H256700   4.629   5.384  11.142  0.9153  3.2503  0.3135
11737TIP3   OH256701   0.971   5.335  12.563 -0.1837 -0.0128 -0.4753
11737TIP3    H156702   0.947   5.396  12.633 -1.4084  0.8695 -1.6155
11737TIP3    H256703   0.896   5.276  12.556  0.3323 -0.6795 -0.4236
11738TIP3   OH256704   4.154   4.299  10.745 -0.5001  0.3495  0.2792
11738TIP3    H156705   4.203   4.345  10.676  0.6058 -1.0190  0.0857
11738TIP3    H256706   4.079   4.262  10.699 -0.4393  0.4857  0.0648
11739TIP3   OH256707   6.855   5.461  14.642  1.0155  0.2193 -0.5842
11739TIP3    H156708   6.940   5.417  14.641  0.2570 -1.3196 -0.8143
11739TIP3    H256709   6.801   5.411  14.580 -0.4096  0.3831  0.4622
11740TIP3   OH256710   4.089   0.867   1.630  0.1779 -0.5531  0.0336
11740TIP3    H156711   4.072   0.776   1.655  1.4202 -1.0864 -0.9822
11740TIP3    H256712   4.100   0.864   1.535 -0.3328  0.7601 -0.0816
11741TIP3   OH256713   6.580   6.614  16.829  0.4828 -0.0052  0.5567
11741TIP3    H156714   6.653   6.555  16.811  0.5584  0.2563 -0.0182
11741TIP3    H256715   6.603   6.695  16.783  0.0540  0.2372  0.7623
11742TIP3   OH256716   1.461   3.728   0.407 -0.5033  0.3781 -0.4002
11742TIP3    H156717   1.531   3.763   0.462  0.2453  0.9999 -1.7084
11742TIP3    H256718   1.488   3.639   0.387 -0.7412  0.1748  0.1543
11743TIP3   OH256719   0.645   1.900  14.045  0.1953 -0.0018  1.0171
11743TIP3    H156720   0.624   1.839  14.116  0.7709  0.0370  1.2259
11743TIP3    H256721   0.561   1.936  14.019  0.0268  0.3762  2.0385
11744TIP3   OH256722   3.797   0.217   1.882 -0.1900 -0.6729  0.1144
11744TIP3    H156723   3.867   0.281   1.873  1.8784 -2.9356 -0.7887
11744TIP3    H256724   3.717   0.269   1.879  1.3759  1.8675 -0.3681
11745TIP3   OH256725   1.202   1.764   0.469  0.0995 -0.2513 -0.1637
11745TIP3    H156726   1.284   1.724   0.497  0.5316  0.6648 -0.0542
11745TIP3    H256727   1.224   1.808   0.386 -1.0674 -2.6143 -1.8328
11746TIP3   OH256728   0.621   5.386  10.657 -0.4340 -0.0020  0.0779
11746TIP3    H156729   0.624   5.290  10.657  1.3806  0.0148  0.9519
11746TIP3    H256730   0.549   5.408  10.598  0.1490 -1.8855 -1.4254
11747TIP3   OH256731   0.786   2.400  15.653  0.1438 -0.2755  0.3017
11747TIP3    H156732   0.844   2.364  15.720 -0.0972  0.8212  1.1479
11747TIP3    H256733   0.834   2.474  15.616  0.1658 -0.7128 -0.5658
11748TIP3   OH256734   3.028   6.651  13.761 -0.0811 -0.3272  0.0333
11748TIP3    H156735   3.068   6.704  13.831  0.2417 -2.3071  1.4380
11748TIP3    H256736   2.945   6.695  13.743  0.2718  0.8025  0.9582
11749TIP3   OH256737   1.180   6.325   0.501  0.0033 -0.4495 -0.0599
11749TIP3    H156738   1.159   6.232   0.507  1.5437 -0.7282  4.0459
11749TIP3    H256739   1.275   6.328   0.493 -0.0516  0.7924 -0.4489
11750TIP3   OH256740   3.470   5.480  15.340 -0.3749 -0.6464 -0.3620
11750TIP3    H156741   3.465   5.398  15.291  0.7153 -0.6456 -0.4882
11750TIP3    H256742   3.407   5.469  15.411 -0.7324 -1.3171 -0.7689
11751TIP3   OH256743   1.401   2.339  12.688  0.7117 -0.2031  0.0763
11751TIP3    H156744   1.404   2.387  12.605  1.9052 -0.6977 -0.1877
11751TIP3    H256745   1.476   2.372  12.738  1.9909 -2.2217 -0.3951
11752TIP3   OH256746   1.583   5.047   6.375  0.5144  0.0117 -0.0413
11752TIP3    H156747   1.614   4.983   6.312  0.1628  0.0930 -0.2984
11752TIP3    H256748   1.513   5.002   6.423  0.0079  0.3204 -0.4768
11753TIP3   OH256749   0.617   3.292  15.048  0.3732  0.0284 -0.2190
11753TIP3    H156750   0.703   3.257  15.071  0.8932  0.9557 -0.7075
11753TIP3    H256751   0.628   3.329  14.961 -0.4394  0.4421 -0.1605
11754TIP3   OH256752   4.285   3.706   5.235  0.0863  0.1028  0.0502
11754TIP3    H156753   4.351   3.638   5.222 -1.0947 -0.8393 -1.1643
11754TIP3    H256754   4.248   3.688   5.321 -0.6711 -1.2160 -0.5315
11755TIP3   OH256755   2.754   5.259  12.988  0.1081 -0.2285 -0.2018
11755TIP3    H156756   2.718   5.340  13.023  1.1333  0.3224 -0.3713
11755TIP3    H256757   2.679   5.212  12.952 -0.5036  0.6196 -0.0537
11756TIP3   OH256758   0.419   3.675  14.738  0.1088  0.7838  0.1250
11756TIP3    H156759   0.329   3.708  14.748 -0.2079  0.9991 -2.5720
11756TIP3    H256760   0.450   3.715  14.657  1.8731 -0.9549 -0.1328
11757TIP3   OH256761   0.697   4.664  12.704  0.0650  0.0467  0.3233
11757TIP3    H156762   0.757   4.612  12.757  0.4167  0.9803  0.8619
11757TIP3    H256763   0.614   4.617  12.710  0.6214 -1.0259 -0.0793
11758TIP3   OH256764   3.918   1.298  12.824 -0.0409  0.0465 -0.3983
11758TIP3    H156765   3.976   1.263  12.891  0.4396 -0.4280 -1.0544
11758TIP3    H256766   3.915   1.392  12.842 -0.2300 -0.1297  0.5227
11759TIP3   OH256767   6.606   0.939   4.284 -0.2957 -0.4252  0.4473
11759TIP3    H156768   6.590   0.877   4.356 -0.8524 -0.0241  0.6731
11759TIP3    H256769   6.681   0.902   4.237  0.6684 -0.2188  1.7700
11760TIP3   OH256770   0.963   5.138  14.251  0.1362  0.0605  0.1781
11760TIP3    H156771   0.966   5.101  14.340 -0.8233  2.2454  1.1978
11760TIP3    H256772   1.054   5.157  14.230  0.7889 -3.2440 -0.6635
11761TIP3   OH256773   3.623   6.262  13.024  0.0119  0.4034  0.1670
11761TIP3    H156774   3.647   6.344  13.068 -1.9241  2.0808 -1.6845
11761TIP3    H256775   3.581   6.290  12.943  0.3841 -2.4885 -1.1480
11762TIP3   OH256776   0.678   2.751   0.622 -0.3606 -0.2215 -0.4838
11762TIP3    H156777   0.674   2.735   0.717  0.9392  0.7124 -0.2617
11762TIP3    H256778   0.646   2.840   0.611  1.9404  0.6489 -0.6071
11763TIP3   OH256779   0.665   4.369  12.632  0.0546  0.1225  0.4905
11763TIP3    H156780   0.740   4.312  12.645  0.7680  0.9434  0.0394
11763TIP3    H256781   0.624   4.374  12.719  2.0466  1.7651  1.4079
11764TIP3   OH256782   1.096   2.719   1.415 -0.0560  0.1011 -0.3997
11764TIP3    H156783   1.176   2.718   1.468  0.6321 -1.3910 -1.3917
11764TIP3    H256784   1.126   2.701   1.326 -1.5508 -1.3921 -0.6530
11765TIP3   OH256785   3.251   0.761  10.378  0.2184  0.2942  0.2258
11765TIP3    H156786   3.269   0.708  10.455 -1.1634 -0.8042 -0.1655
11765TIP3    H256787   3.277   0.706  10.304  0.0802  0.7225 -0.1459
11766TIP3   OH256788   4.678   0.925  15.905  0.4473 -0.1917 -0.0104
11766TIP3    H156789   4.637   1.011  15.898 -0.4517 -0.6685 -0.7497
11766TIP3    H256790   4.769   0.940  15.881 -0.0367  0.2943 -1.6516
11767TIP3   OH256791   5.032   3.175   4.346  0.5660  0.0132  0.2470
11767TIP3    H156792   5.126   3.163   4.331  0.4062 -0.2775 -0.5633
11767TIP3    H256793   4.997   3.086   4.348  0.0923  0.1482 -0.9537
11768TIP3   OH256794   4.344   0.113   0.976 -0.3017 -0.2026  0.1862
11768TIP3    H156795   4.329   0.129   0.883 -0.7598  0.1409  0.3172
11768TIP3    H256796   4.416   0.050   0.978  0.3827  0.5385 -0.3773
11769TIP3   OH256797   1.532   4.929  13.404 -0.3906  0.6831 -0.2041
11769TIP3    H156798   1.539   4.969  13.491  1.0712  0.0289  0.0002
11769TIP3    H256799   1.568   4.994  13.344  1.2619  0.0435  0.0392
11770TIP3   OH256800   1.991   3.588  11.788  0.2216 -0.4169 -0.2446
11770TIP3    H156801   2.072   3.601  11.837  0.5141 -1.7974 -0.3137
11770TIP3    H256802   2.019   3.556  11.702 -0.3992 -2.3045  0.2049
11771TIP3   OH256803   6.297   1.687   4.527  0.1813 -0.3667  0.1183
11771TIP3    H156804   6.370   1.721   4.578  0.6455  1.5043 -1.6786
11771TIP3    H256805   6.233   1.759   4.525 -1.4525 -1.7077  1.0589
11772TIP3   OH256806   3.474   3.305   5.593 -0.0262 -0.0583  0.4472
11772TIP3    H156807   3.554   3.336   5.636  0.9045 -1.3745 -0.2660
11772TIP3    H256808   3.440   3.382   5.548  1.1988  0.3742  0.2316
11773TIP3   OH256809   3.145   3.640   2.787  0.4860 -0.1431  0.1935
11773TIP3    H156810   3.085   3.608   2.720 -0.0453  1.4050 -0.1008
11773TIP3    H256811   3.157   3.565   2.845 -0.6630 -0.8950 -0.4873
11774TIP3   OH256812   0.990   6.493  14.276  0.0679 -0.0783  0.2421
11774TIP3    H156813   1.074   6.463  14.309  0.6287  0.7165 -0.4315
11774TIP3    H256814   0.939   6.412  14.264  1.5710 -0.8251 -1.6167
11775TIP3   OH256815   5.465   4.616   2.539  0.2250 -0.7888 -0.3662
11775TIP3    H156816   5.443   4.530   2.503 -3.4557  0.2726 -1.1280
11775TIP3    H256817   5.445   4.609   2.632  0.7715 -0.9633 -0.2568
11776TIP3   OH256818   0.224   6.298  16.101 -0.1587  0.2617 -0.3534
11776TIP3    H156819   0.289   6.232  16.079  0.8115  0.5930  1.3547
11776TIP3    H256820   0.231   6.363  16.031 -0.8795 -1.2176 -1.8573
11777TIP3   OH256821   3.732   5.313   6.764  0.1818  0.5045 -0.6618
11777TIP3    H156822   3.751   5.233   6.715  1.5544  0.3451  0.0762
11777TIP3    H256823   3.772   5.382   6.711 -2.0412  0.9100 -1.9265
11778TIP3   OH256824   0.020   6.126  13.826  0.0312  0.0313 -0.3539
11778TIP3    H156825  -0.059   6.109  13.774 -1.6330 -0.5538  2.2165
11778TIP3    H256826   0.031   6.221  13.822 -1.2345  0.2036 -0.1676
11779TIP3   OH256827   4.073   6.325  15.589 -0.8744  0.6767  0.0834
11779TIP3    H156828   4.116   6.311  15.505 -1.1494  0.5386 -0.0365
11779TIP3    H256829   4.087   6.418  15.608 -0.1878  0.5418  0.2386
11780TIP3   OH256830   2.683   5.211   0.271 -0.0099  0.1845  0.4327
11780TIP3    H156831   2.730   5.209   0.188  1.9138 -0.2355  1.4810
11780TIP3    H256832   2.719   5.286   0.317 -1.1796  0.5089  0.8566
11781TIP3   OH256833   0.931   0.841   3.837 -0.0217 -0.6030  0.4541
11781TIP3    H156834   0.968   0.782   3.903  0.7275  0.4629  1.0165
11781TIP3    H256835   0.941   0.794   3.755  2.5388 -0.4212  0.5806
11782TIP3   OH256836   4.305   4.103   2.460 -0.2476 -0.0616 -0.2896
11782TIP3    H156837   4.215   4.136   2.464 -0.5162 -0.5637 -1.5757
11782TIP3    H256838   4.346   4.134   2.541 -0.9776  1.9300 -0.6142
11783TIP3   OH256839   3.342   1.945   4.751  0.3581 -0.4560 -0.2376
11783TIP3    H156840   3.333   2.002   4.674  2.7414 -1.5590 -1.4392
11783TIP3    H256841   3.383   2.001   4.816 -4.1047  1.3469  1.4660
11784TIP3   OH256842   5.334   1.800   4.577  0.5120  0.5331  0.5952
11784TIP3    H156843   5.272   1.810   4.504 -1.0279  0.2994  1.8316
11784TIP3    H256844   5.406   1.748   4.540 -0.7293 -0.4771 -0.4968
11785TIP3   OH256845   2.416   6.663   4.053 -0.7845  0.2780 -0.5637
11785TIP3    H156846   2.478   6.727   4.019  1.2306 -1.6734 -0.7655
11785TIP3    H256847   2.344   6.664   3.989  0.6717  0.1201 -2.2861
11786TIP3   OH256848   0.195   2.927   5.810  0.3643  0.5316  0.1372
11786TIP3    H156849   0.144   2.890   5.882  0.0871  0.7371  0.0532
11786TIP3    H256850   0.286   2.909   5.832  0.2743  0.5102  0.4923
11787TIP3   OH256851   1.621   0.445   2.123  0.1028  0.1161 -0.1207
11787TIP3    H156852   1.660   0.502   2.057 -1.9273 -0.5458 -2.0302
11787TIP3    H256853   1.688   0.435   2.189  2.0033  1.4067 -1.7449
11788TIP3   OH256854   3.030   5.760   4.650  0.3947  0.2791 -0.0567
11788TIP3    H156855   3.062   5.672   4.670  2.2640  0.6625 -1.1165
11788TIP3    H256856   2.938   5.748   4.630  0.3874 -1.2835  0.7375
11789TIP3   OH256857   4.212   1.287  13.972 -0.2454  0.6656  0.3222
11789TIP3    H156858   4.167   1.253  13.894  1.9678  0.7860 -1.1305
11789TIP3    H256859   4.263   1.361  13.939  3.2727 -1.2001  1.0621
11790TIP3   OH256860   0.707   3.880   0.782  0.1380 -0.3721 -0.0845
11790TIP3    H156861   0.628   3.935   0.781 -0.5523 -1.3078 -1.7420
11790TIP3    H256862   0.779   3.941   0.765 -0.4923  0.1840 -0.8547
11791TIP3   OH256863   5.814   4.711  12.443 -0.4186 -0.3992 -0.0010
11791TIP3    H156864   5.722   4.703  12.465 -0.0865  0.4412  1.8327
11791TIP3    H256865   5.815   4.768  12.366 -1.3424  1.4854  1.2977
11792TIP3   OH256866   1.316   3.962  10.872 -0.0823  0.4693 -0.0925
11792TIP3    H156867   1.366   3.951  10.791  0.1188  1.4001 -0.1071
11792TIP3    H256868   1.281   4.051  10.866  3.3406  2.2016  2.6882
11793TIP3   OH256869   5.340   0.376   5.623  0.2817 -0.2593  0.5657
11793TIP3    H156870   5.349   0.468   5.645  1.2156 -0.3240  0.4936
11793TIP3    H256871   5.359   0.329   5.704 -1.0121 -0.3712  0.8122
11794TIP3   OH256872   2.575   5.161  15.676 -0.5185  0.0799 -0.2986
11794TIP3    H156873   2.525   5.109  15.739 -1.3170  0.5740 -0.5109
11794TIP3    H256874   2.521   5.238  15.660  0.2983  0.6059 -0.5730
11795TIP3   OH256875   1.286   2.019  11.756 -0.2587  0.5115 -0.5728
11795TIP3    H156876   1.286   1.939  11.704 -0.0412  1.5824 -2.2868
11795TIP3    H256877   1.199   2.020  11.797 -0.6244 -0.1136 -1.3045
11796TIP3   OH256878   0.541   2.675  14.385 -0.2418  0.5785  0.3035
11796TIP3    H156879   0.448   2.676  14.410 -0.4682 -2.0080 -0.1477
11796TIP3    H256880   0.553   2.756  14.335 -1.9985  1.4199  1.1495
11797TIP3   OH256881   2.476   0.807   3.263 -0.0911 -0.2917 -0.7655
11797TIP3    H156882   2.399   0.862   3.278 -1.2386 -0.7385 -4.2007
11797TIP3    H256883   2.441   0.721   3.242  1.3149 -0.5955 -2.0680
11798TIP3   OH256884   0.640   6.302  15.263  0.2576  0.0060 -0.6263
11798TIP3    H156885   0.719   6.321  15.314  0.3948 -0.2058 -0.7570
11798TIP3    H256886   0.596   6.387  15.254  1.1206  0.3672 -1.6396
11799TIP3   OH256887   4.959   5.945   1.534  0.0328 -0.7165  0.5922
11799TIP3    H156888   5.045   5.938   1.576  0.6029  1.8208  0.0239
11799TIP3    H256889   4.898   5.962   1.606  0.6874  1.5175  0.6942
11800TIP3   OH256890   2.596   0.216   0.223  0.3754  0.0475 -0.2946
11800TIP3    H156891   2.607   0.251   0.311  0.0025 -0.9747  0.1764
11800TIP3    H256892   2.505   0.236   0.200 -0.4795 -2.2524  0.7734
11801TIP3   OH256893   1.926   5.707  16.372 -0.1203 -0.4748  0.4788
11801TIP3    H156894   1.839   5.746  16.379 -0.1696 -0.7863  2.0168
11801TIP3    H256895   1.985   5.772  16.410  0.3271 -0.2900 -0.5011
11802TIP3   OH256896   2.350   6.719  11.942  0.1768  0.5552  0.2284
11802TIP3    H156897   2.324   6.746  11.853  1.5361  1.0316 -0.0438
11802TIP3    H256898   2.417   6.782  11.967  1.3706 -0.8759  0.7345
11803TIP3   OH256899   1.467   4.989  15.508 -0.2162 -0.6209  0.4332
11803TIP3    H156900   1.515   4.984  15.591  0.7439  0.7042 -0.0233
11803TIP3    H256901   1.414   5.068  15.516 -0.3660 -0.6671 -0.0909
11804TIP3   OH256902   3.007   4.093   1.737 -0.6373  0.2944  0.3701
11804TIP3    H156903   2.994   4.151   1.662 -1.0882  0.1601  0.3450
11804TIP3    H256904   3.102   4.092   1.750 -0.6629  1.5100  0.7463
11805TIP3   OH256905   3.205   0.053   0.074  0.3940 -0.2942  0.0901
11805TIP3    H156906   3.255   0.131   0.049  0.7013 -0.1867  0.9793
11805TIP3    H256907   3.205  -0.002  -0.004  0.8536  0.2504 -0.3023
11806TIP3   OH256908   1.120   3.115   0.436  0.8012  0.7676  0.4228
11806TIP3    H156909   1.188   3.117   0.368 -0.7431  0.4542 -1.1943
11806TIP3    H256910   1.137   3.034   0.484  0.0766 -0.6879 -1.6263
11807TIP3   OH256911   5.460   1.175  14.627 -0.4413 -0.1708  0.2493
11807TIP3    H156912   5.508   1.146  14.549 -1.8168 -1.1351 -0.2743
11807TIP3    H256913   5.485   1.267  14.637  2.0783 -0.7897  0.4597
11808TIP3   OH256914   1.810   2.157  14.414  0.1360 -0.1476 -0.2033
11808TIP3    H156915   1.780   2.239  14.377 -0.3438 -0.2033  0.0647
11808TIP3    H256916   1.739   2.095  14.397  0.6093 -0.5800 -0.6536
11809TIP3   OH256917   5.997   0.924  16.555 -0.2247 -0.1421  0.1191
11809TIP3    H156918   5.974   0.861  16.487 -1.1079  0.6834 -0.3731
11809TIP3    H256919   5.979   0.877  16.637  0.9741 -1.1892 -0.1765
11810TIP3   OH256920   1.683   2.410  15.132 -0.1297  0.2815 -0.1167
11810TIP3    H156921   1.682   2.403  15.037  0.2940 -1.3152 -0.0253
11810TIP3    H256922   1.776   2.405  15.155 -0.0922  2.0997  0.3293
11811TIP3   OH256923   5.077   0.369  10.824  0.9006 -0.2569  0.4618
11811TIP3    H156924   5.116   0.393  10.740 -1.2404  1.8143 -0.0412
11811TIP3    H256925   5.149   0.380  10.887  1.8721  0.6715 -0.7547
11812TIP3   OH256926   1.167   0.015   2.603 -0.3615 -0.0249  0.0867
11812TIP3    H156927   1.211  -0.010   2.521 -2.8393  0.7523 -1.5777
11812TIP3    H256928   1.207   0.098   2.627  0.7372 -0.4960 -0.0192
11813TIP3   OH256929   3.181   5.596  14.747 -0.2953  0.1306 -0.2578
11813TIP3    H156930   3.155   5.505  14.762  0.8529 -0.0601  0.7038
11813TIP3    H256931   3.272   5.600  14.776 -0.4876  1.7119  0.2267
11814TIP3   OH256932   1.208   1.558  13.145 -0.0695  0.1742 -0.7221
11814TIP3    H156933   1.229   1.648  13.119 -0.0215  0.2170 -0.5387
11814TIP3    H256934   1.199   1.562  13.240 -0.5104  0.0753 -0.7586
11815TIP3   OH256935   6.759   6.272  11.419 -0.2922  0.2829 -0.1528
11815TIP3    H156936   6.717   6.355  11.442 -0.9814  0.4385 -1.8314
11815TIP3    H256937   6.700   6.205  11.454 -1.2703  0.5084 -1.3092
11816TIP3   OH256938   3.454   5.814   3.479  0.1412 -0.0620 -0.2930
11816TIP3    H156939   3.431   5.727   3.509 -2.8408  0.6258 -0.3272
11816TIP3    H256940   3.413   5.873   3.542 -0.7877  1.3236 -2.1134
11817TIP3   OH256941   0.927   1.710  15.171  0.1972  0.0630 -0.0462
11817TIP3    H156942   0.836   1.732  15.152 -0.1424 -0.0322  1.3562
11817TIP3    H256943   0.923   1.622  15.208  0.4186  1.1970  2.9681
11818TIP3   OH256944   6.795   5.697  16.965 -0.2612  0.3919  0.3265
11818TIP3    H156945   6.793   5.678  16.871 -1.0624 -0.7594  0.5518
11818TIP3    H256946   6.818   5.614  17.006  0.4851  0.9857  1.1383
11819TIP3   OH256947   2.038   1.756  13.014  0.2205 -0.1070 -0.4701
11819TIP3    H156948   2.075   1.771  12.926  0.9094 -1.5178 -0.4538
11819TIP3    H256949   1.952   1.798  13.011  0.8352  1.1832 -1.3137
11820TIP3   OH256950   3.832   2.636  11.079  0.3057 -0.5506 -0.2856
11820TIP3    H156951   3.800   2.600  10.996 -1.2456  2.1646 -0.9774
11820TIP3    H256952   3.927   2.625  11.074  0.1565 -1.5366 -1.8536
11821TIP3   OH256953   3.885   3.796  10.538 -0.3636 -0.2000 -0.1085
11821TIP3    H156954   3.927   3.725  10.490  2.3518  1.6144 -0.7110
11821TIP3    H256955   3.881   3.765  10.629  1.9302 -0.7186 -0.1197
11822TIP3   OH256956   6.427   5.244   5.512 -0.4235  0.0531 -0.0883
11822TIP3    H156957   6.351   5.202   5.472 -0.2798 -0.3446  0.0575
11822TIP3    H256958   6.480   5.274   5.438 -1.0560  0.9443 -0.1950
11823TIP3   OH256959   4.947   1.027  14.477 -0.0169  0.1406 -0.2530
11823TIP3    H156960   4.975   0.941  14.509  1.9356  0.6267 -0.5574
11823TIP3    H256961   4.865   1.044  14.525  0.4340 -1.1420  1.0649
11824TIP3   OH256962   0.934   6.128   1.687 -0.1383  0.0327  0.2520
11824TIP3    H156963   1.001   6.105   1.623 -0.3355 -0.4846  0.2266
11824TIP3    H256964   0.915   6.221   1.670 -0.0642 -0.0532 -0.3200
11825TIP3   OH256965   2.398   1.271   2.988  0.4126 -0.1238 -0.5514
11825TIP3    H156966   2.363   1.240   3.072 -0.8591  0.9807 -0.6342
11825TIP3    H256967   2.342   1.230   2.922 -0.2931  1.0314 -0.7187
11826TIP3   OH256968   4.625   0.838  14.849 -0.5852  0.2067 -0.4342
11826TIP3    H156969   4.585   0.900  14.910  0.1108 -0.6039  0.8786
11826TIP3    H256970   4.594   0.752  14.877  1.9781 -0.4654  0.6403
11827TIP3   OH256971   6.061   6.659  14.783 -0.5539  0.5409  0.2155
11827TIP3    H156972   6.001   6.699  14.846  0.4239  1.8829  0.3340
11827TIP3    H256973   6.120   6.730  14.757  1.0128 -0.7340  0.1202
11828TIP3   OH256974   3.570   0.761  10.829  0.2460 -0.0708  0.3954
11828TIP3    H156975   3.588   0.839  10.883 -1.0568  1.5616 -1.4018
11828TIP3    H256976   3.520   0.703  10.887  1.0084  0.5151  1.6964
11829TIP3   OH256977   3.575   3.824  16.176 -0.3035  0.1011  0.3470
11829TIP3    H156978   3.656   3.794  16.134 -0.4845  1.5050 -1.1450
11829TIP3    H256979   3.507   3.771  16.136 -0.3633  0.6784 -0.3309
11830TIP3   OH256980   1.006   0.983  12.148 -0.3026 -0.6386 -0.0000
11830TIP3    H156981   1.060   0.936  12.085  1.2715 -2.3871  2.4886
11830TIP3    H256982   0.921   0.992  12.105  0.9712 -0.7528 -2.7467
11831TIP3   OH256983   3.368   6.470  11.364  0.4696  0.2657  0.2979
11831TIP3    H156984   3.434   6.495  11.428  1.4521  0.8681 -0.9118
11831TIP3    H256985   3.351   6.550  11.314  1.6951 -0.7768 -1.9180
11832TIP3   OH256986   3.249   2.848  11.634 -0.0268 -0.0794 -0.0784
11832TIP3    H156987   3.335   2.876  11.601 -0.5496  0.9113 -0.6681
11832TIP3    H256988   3.249   2.874  11.726  0.1574  0.3082 -0.1849
11833TIP3   OH256989   0.057   2.674   0.624  0.0233 -0.0166  0.4259
11833TIP3    H156990  -0.017   2.730   0.600  0.3754  0.2258 -0.1172
11833TIP3    H256991   0.101   2.723   0.694  0.8884  0.8835 -0.7000
11834TIP3   OH256992   3.406   0.504  15.903 -0.0323  0.5011  0.0985
11834TIP3    H156993   3.384   0.542  15.817 -2.1251  0.0461  0.3650
11834TIP3    H256994   3.432   0.579  15.956 -0.0428  0.9869 -0.5593
11835TIP3   OH256995   2.371   4.268   6.236 -0.3814  0.5355  0.4518
11835TIP3    H156996   2.444   4.303   6.286  0.1388  0.4866 -0.2572
11835TIP3    H256997   2.412   4.220   6.164 -1.0719  2.2824 -1.2061
11836TIP3   OH256998   6.795   1.472  13.520 -0.3920  0.1318  0.2327
11836TIP3    H156999   6.793   1.480  13.616 -1.2115 -0.3558  0.2645
11836TIP3    H257000   6.881   1.506  13.495  0.4284 -1.0946  1.2697
11837TIP3   OH257001   5.446   5.862   6.210  0.7604 -0.5536  0.0098
11837TIP3    H157002   5.538   5.857   6.183  0.7158 -0.2883 -0.1910
11837TIP3    H257003   5.446   5.921   6.285  0.7757 -0.6944  0.1229
11838TIP3   OH257004   1.405   0.541  12.856  0.5174 -0.1950  0.0586
11838TIP3    H157005   1.453   0.497  12.787 -0.8933 -1.0091 -0.4404
11838TIP3    H257006   1.343   0.597  12.809  0.8333  0.7099  0.6887
11839TIP3   OH257007   5.107   2.911  13.758 -0.3560  0.5598 -0.4496
11839TIP3    H157008   5.091   2.820  13.733 -1.5378  0.3522  0.9058
11839TIP3    H257009   5.202   2.922  13.749  0.0927 -1.3820  1.0391
11840TIP3   OH257010   6.740   0.706   1.281 -0.5099 -0.5092 -0.2131
11840TIP3    H157011   6.700   0.652   1.213 -0.7711  1.0944 -1.3914
11840TIP3    H257012   6.825   0.733   1.244 -0.5241  0.1341  0.2012
11841TIP3   OH257013   2.020   0.529  17.070  0.6438 -0.0933  0.0800
11841TIP3    H157014   2.106   0.565  17.052 -0.0639  2.6462  1.5519
11841TIP3    H257015   1.967   0.551  16.993  1.3294 -2.3104 -1.0906
11842TIP3   OH257016   0.275   1.082  16.941  0.1513 -0.2586 -0.3064
11842TIP3    H157017   0.339   1.133  16.892  0.6067 -0.0882  0.4596
11842TIP3    H257018   0.230   1.031  16.874  1.4469 -0.7877 -0.7997
11843TIP3   OH257019   2.594   1.048   2.097 -0.0927  0.2327  0.3151
11843TIP3    H157020   2.570   1.123   2.043  2.1829  0.7818 -0.0762
11843TIP3    H257021   2.683   1.025   2.067  0.0375 -1.3669  1.7759
11844TIP3   OH257022   2.350   6.571  13.165  0.4969  0.4590 -0.0696
11844TIP3    H157023   2.401   6.575  13.246  0.2514  2.4656  0.0426
11844TIP3    H257024   2.412   6.594  13.096  0.0844  1.6127 -0.0827
11845TIP3   OH257025   1.517   4.211  15.935  0.3863 -0.3137  0.2847
11845TIP3    H157026   1.426   4.238  15.946  0.3180 -0.1560 -0.6259
11845TIP3    H257027   1.543   4.180  16.022 -0.3555  0.1769  0.6949
11846TIP3   OH257028   1.088   6.111  13.042 -0.6942  0.8546 -0.3343
11846TIP3    H157029   1.091   6.096  12.947 -1.2591  0.7797 -0.3429
11846TIP3    H257030   1.164   6.166  13.059 -0.1576  0.2440 -0.7117
11847TIP3   OH257031   0.187   3.514   2.997  0.6431  0.0933 -0.6142
11847TIP3    H157032   0.114   3.488   2.940 -0.6640 -0.4637  1.2429
11847TIP3    H257033   0.200   3.439   3.055  0.1290  1.6296  1.5806
11848TIP3   OH257034   3.121   0.116  15.380  0.0506 -0.1872 -0.6236
11848TIP3    H157035   3.142   0.170  15.304  2.0230  0.0442  0.0247
11848TIP3    H257036   3.063   0.171  15.433 -3.6295 -1.3347 -3.0929
11849TIP3   OH257037   1.289   0.102  11.453  0.0424  0.1485  0.2797
11849TIP3    H157038   1.228   0.121  11.524  0.3291 -0.5442  0.7178
11849TIP3    H257039   1.275   0.172  11.390 -1.7952 -0.4427 -0.0104
11850TIP3   OH257040   4.597   3.544   2.960 -0.5067 -0.0193  0.1890
11850TIP3    H157041   4.571   3.629   2.997 -2.4997  0.4778 -2.0666
11850TIP3    H257042   4.546   3.480   3.009  0.1296  0.1824  1.1338
11851TIP3   OH257043   0.494   5.783   6.017 -0.5795 -0.2916  0.1308
11851TIP3    H157044   0.446   5.825   6.088 -0.2362  0.0526  0.1700
11851TIP3    H257045   0.427   5.751   5.957 -0.8738 -0.7332  0.6912
11852TIP3   OH257046   0.329   3.919   2.581 -0.1892 -0.6819  0.0365
11852TIP3    H157047   0.420   3.887   2.578  0.7582  1.8511 -0.0723
11852TIP3    H257048   0.322   3.962   2.666 -1.2759 -0.7214 -0.0241
11853TIP3   OH257049   2.214   4.411   2.144  0.3304  0.0448  0.4477
11853TIP3    H157050   2.160   4.421   2.065  0.9861  0.0828 -0.0058
11853TIP3    H257051   2.152   4.390   2.213 -0.1391 -1.4754 -0.3697
11854TIP3   OH257052   0.312   1.463  12.782  0.4769  0.3670  0.4759
11854TIP3    H157053   0.328   1.422  12.697 -0.4574 -0.1169  0.5233
11854TIP3    H257054   0.282   1.552  12.761 -0.3161  0.0562  0.2768
11855TIP3   OH257055   3.986   4.097   6.491  0.1328 -0.0018  0.5992
11855TIP3    H157056   4.017   4.076   6.403 -0.8472  0.7194  0.0622
11855TIP3    H257057   4.055   4.065   6.549  0.7097 -0.6522 -0.4141
11856TIP3   OH257058   1.639   5.119  13.720 -0.3326  0.1596  0.2583
11856TIP3    H157059   1.726   5.154  13.742 -0.4263  0.1778  0.5971
11856TIP3    H257060   1.656   5.030  13.691 -0.0642  0.5353 -0.8100
11857TIP3   OH257061   4.184   0.119  13.162  0.0066  0.1328 -0.3700
11857TIP3    H157062   4.113   0.136  13.099  0.2777 -0.6278 -0.8908
11857TIP3    H257063   4.221   0.036  13.134  0.1095 -0.2411  0.8253
11858TIP3   OH257064   1.802   2.740   0.586  0.2319  0.0659  0.0913
11858TIP3    H157065   1.894   2.759   0.568  0.5227  0.2565  1.5810
11858TIP3    H257066   1.766   2.824   0.615  0.3352 -0.5439  2.1897
11859TIP3   OH257067   4.678   5.625  13.919  0.2805 -0.1215 -0.1318
11859TIP3    H157068   4.773   5.613  13.924  0.3986 -0.2393 -1.8538
11859TIP3    H257069   4.666   5.686  13.846 -0.9504  0.4331  0.5038
11860TIP3   OH257070   2.540   4.437   0.570 -0.2867 -0.0060  0.0849
11860TIP3    H157071   2.521   4.383   0.647  0.1028  0.8896  0.8342
11860TIP3    H257072   2.559   4.524   0.606  0.6049  0.2571 -0.9762
11861TIP3   OH257073   4.907   5.958   2.766 -0.1986  0.8413  0.2819
11861TIP3    H157074   4.994   5.995   2.749 -0.7633  2.2295  0.2681
11861TIP3    H257075   4.880   5.920   2.682 -0.8718  3.1931 -0.6551
11862TIP3   OH257076   5.065   5.076  13.547  0.1062  0.3857  0.0110
11862TIP3    H157077   5.140   5.041  13.499  0.0664  0.0965  0.1572
11862TIP3    H257078   5.008   5.000  13.560 -0.3682  0.6692 -0.3902
11863TIP3   OH257079   6.752   2.826  12.697 -0.3532  0.0024 -1.0086
11863TIP3    H157080   6.773   2.776  12.776  2.4964  0.6485 -1.2307
11863TIP3    H257081   6.834   2.826  12.646 -1.6748  0.7999 -3.3134
11864TIP3   OH257082   6.600   1.570  16.725 -0.7220 -0.4229  0.1409
11864TIP3    H157083   6.528   1.624  16.758 -1.2940 -1.2238  0.2154
11864TIP3    H257084   6.601   1.588  16.631  0.1260  0.9231  0.3711
11865TIP3   OH257085   4.296   6.115   4.701  0.2709 -0.3156 -0.2042
11865TIP3    H157086   4.208   6.081   4.712  0.2456 -0.3328 -0.4641
11865TIP3    H257087   4.318   6.099   4.609  0.0550  0.8538 -0.4814
11866TIP3   OH257088   5.927   5.012  14.333 -0.3814  0.0909  0.2932
11866TIP3    H157089   5.912   5.040  14.242 -0.0433 -0.3865  0.0839
11866TIP3    H257090   6.016   5.040  14.352  0.3735 -1.7507 -0.2909
11867TIP3   OH257091   3.129   3.438   5.525  0.3202 -0.5081 -0.1571
11867TIP3    H157092   3.176   3.363   5.487  1.1788  0.4239 -0.9752
11867TIP3    H257093   3.165   3.445   5.614  1.4684 -0.0692 -0.6329
11868TIP3   OH257094   6.254   3.412   4.204  0.2167 -0.0278  0.0769
11868TIP3    H157095   6.213   3.434   4.287  2.4905  1.3448  0.9166
11868TIP3    H257096   6.190   3.438   4.138 -0.5616  1.3965  1.3373
11869TIP3   OH257097   0.619   1.192  11.939  0.3339  0.3083 -0.0220
11869TIP3    H157098   0.575   1.242  11.871  1.8881  0.0502 -1.2778
11869TIP3    H257099   0.591   1.233  12.021 -3.3013 -0.7467 -0.5959
11870TIP3   OH257100   5.509   6.226   2.969  0.0295 -0.6921 -0.9418
11870TIP3    H157101   5.604   6.232   2.973  0.0068 -0.1246 -1.2471
11870TIP3    H257102   5.479   6.317   2.965 -0.5750 -0.8145  0.2477
11871TIP3   OH257103   2.689   5.917   3.754 -0.1847 -0.1487  0.4096
11871TIP3    H157104   2.764   5.910   3.695 -1.8549  0.5078 -1.9488
11871TIP3    H257105   2.723   5.960   3.832  1.5340  1.9683 -1.3703
11872TIP3   OH257106   4.871   5.825   5.476  0.2962  0.2651  0.1764
11872TIP3    H157107   4.889   5.738   5.511  2.7324  0.1489 -1.1639
11872TIP3    H257108   4.957   5.867   5.470 -0.3909  1.5142 -2.3632
11873TIP3   OH257109   4.084   3.590   0.798 -0.8692 -0.6777  0.5811
11873TIP3    H157110   4.031   3.519   0.761  0.4301 -1.3401 -0.0721
11873TIP3    H257111   4.150   3.545   0.851 -0.3639  0.0770  0.6065
11874TIP3   OH257112   0.589   6.661   1.217  0.2061  0.0343  0.2420
11874TIP3    H157113   0.659   6.697   1.162  0.2495 -0.9130 -0.3508
11874TIP3    H257114   0.622   6.575   1.244 -0.8462 -0.5497 -0.2975
11875TIP3   OH257115   2.640   6.483   4.905 -0.1797 -0.3995 -0.3100
11875TIP3    H157116   2.674   6.547   4.967 -1.7652 -0.0847  0.2835
11875TIP3    H257117   2.701   6.409   4.911 -1.3610 -1.3058  3.2885
11876TIP3   OH257118   2.064   0.046   4.745  0.0491  0.4463 -0.0691
11876TIP3    H157119   2.160   0.049   4.743  0.0031  1.9946 -0.4950
11876TIP3    H257120   2.042  -0.036   4.700  1.1576  0.1967 -0.1829
11877TIP3   OH257121   4.037   5.700   6.849 -0.3789  0.7132 -0.6429
11877TIP3    H157122   3.977   5.626   6.860  0.5472 -0.1060 -0.9232
11877TIP3    H257123   3.985   5.766   6.803 -1.7450  0.9393  1.0681
11878TIP3   OH257124   0.523   0.319   4.659  0.1519  0.1682 -0.6886
11878TIP3    H157125   0.604   0.369   4.646  1.1547 -1.4886 -1.1095
11878TIP3    H257126   0.545   0.230   4.631 -1.2903 -0.7461  0.9030
11879TIP3   OH257127   4.508   2.882   1.870 -0.6835  0.0236  0.5181
11879TIP3    H157128   4.426   2.925   1.893 -0.4778  1.4544 -1.2088
11879TIP3    H257129   4.565   2.953   1.841  0.4824 -1.1597 -0.1902
11880TIP3   OH257130   3.206   5.980   1.146 -0.3473  0.3967  0.7335
11880TIP3    H157131   3.163   6.028   1.075  0.7700 -0.4482 -0.5636
11880TIP3    H257132   3.299   6.005   1.139  0.0064 -0.7871  1.0043
11881TIP3   OH257133   6.265   0.306  15.252  0.2909  0.4855  0.4179
11881TIP3    H157134   6.186   0.253  15.249  0.4874  0.0503  1.9859
11881TIP3    H257135   6.268   0.340  15.341  0.6267  2.4447 -0.2838
11882TIP3   OH257136   3.883   0.573  12.088  0.0080 -0.5024 -0.0636
11882TIP3    H157137   3.856   0.644  12.146 -0.6995 -1.4767  0.8593
11882TIP3    H257138   3.801   0.542  12.048  0.4667  0.0420 -1.4784
11883TIP3   OH257139   6.796   0.490   2.267 -0.1613  0.1170 -0.4754
11883TIP3    H157140   6.845   0.570   2.281 -0.0719 -0.1041  0.5143
11883TIP3    H257141   6.705   0.513   2.285 -0.0681 -0.1266  0.3250
11884TIP3   OH257142   5.292   3.621  14.390 -0.0057 -0.8252 -0.1329
11884TIP3    H157143   5.222   3.563  14.360  0.7824 -1.6478 -0.4234
11884TIP3    H257144   5.288   3.696  14.330 -0.2639 -1.1393 -0.5153
11885TIP3   OH257145   1.455   5.715  14.980 -0.4476 -0.4109 -0.2638
11885TIP3    H157146   1.539   5.676  15.003 -0.4816  0.6596  1.8931
11885TIP3    H257147   1.474   5.808  14.971 -1.4222 -0.1308  0.4176
11886TIP3   OH257148   1.629   2.778  14.421 -0.7460  0.1512  0.1370
11886TIP3    H157149   1.670   2.864  14.426 -1.3944  0.4951 -0.2325
11886TIP3    H257150   1.583   2.769  14.504 -0.0258 -0.1848  0.5033
11887TIP3   OH257151   5.061   0.512  17.050  0.1861  0.9155 -0.0878
11887TIP3    H157152   5.120   0.464  17.108 -0.5129 -0.0544 -0.1486
11887TIP3    H257153   5.088   0.485  16.962 -1.4370 -0.9369 -0.0803
11888TIP3   OH257154   0.669   3.820   5.651 -0.3914  0.2451  0.1566
11888TIP3    H157155   0.680   3.741   5.704 -0.3091 -0.7881 -1.3505
11888TIP3    H257156   0.705   3.797   5.566 -0.3420  1.9347 -0.3153
11889TIP3   OH257157   6.551   4.594   3.431  0.3824 -0.0896 -0.0741
11889TIP3    H157158   6.609   4.531   3.474 -1.3661 -1.5015  0.2947
11889TIP3    H257159   6.498   4.630   3.502 -1.5923 -1.4328 -0.7942
11890TIP3   OH257160   1.447   4.664  15.468 -0.1531 -0.6202  0.2042
11890TIP3    H157161   1.430   4.756  15.486  5.5921  0.7168  0.9292
11890TIP3    H257162   1.458   4.625  15.555  3.3420 -0.2546  0.0883
11891TIP3   OH257163   6.032   5.460  11.037  0.2784  0.0398 -0.3508
11891TIP3    H157164   5.994   5.531  10.985 -1.0684 -0.9928 -0.8466
11891TIP3    H257165   5.958   5.422  11.083  1.0949 -0.5743  0.4969
11892TIP3   OH257166   6.009   6.095   0.556  0.3152  0.4552 -0.4898
11892TIP3    H157167   6.012   6.178   0.510 -2.3353  2.0949  1.8990
11892TIP3    H257168   6.091   6.091   0.605  1.6440  0.2823 -2.5999
11893TIP3   OH257169   3.869   1.111  13.866  0.0185 -0.1943  0.5493
11893TIP3    H157170   3.936   1.171  13.830  0.2729 -0.2752  0.8909
11893TIP3    H257171   3.916   1.058  13.930  0.1485 -1.7983 -0.7997
11894TIP3   OH257172   2.378   6.166  11.105 -0.2281  0.5829  0.2400
11894TIP3    H157173   2.365   6.099  11.038  0.2614  1.4808 -0.7864
11894TIP3    H257174   2.290   6.184  11.139 -0.4122 -0.2731  0.2374
11895TIP3   OH257175   3.336   5.715   2.596  0.6749  0.1149  0.0307
11895TIP3    H157176   3.354   5.621   2.601  3.6790  0.6235  2.3507
11895TIP3    H257177   3.418   5.756   2.625 -1.1703  3.4042  1.1164
11896TIP3   OH257178   4.531   1.585   1.073 -0.8460 -0.5483  0.0481
11896TIP3    H157179   4.603   1.621   1.020 -0.4421 -0.1278  0.8556
11896TIP3    H257180   4.473   1.660   1.088 -0.1445 -0.2567  1.5057
11897TIP3   OH257181   0.836   4.579  13.405  0.6453 -0.0172 -0.0882
11897TIP3    H157182   0.777   4.504  13.412  3.1945 -2.2652 -0.9271
11897TIP3    H257183   0.806   4.639  13.473 -0.7391 -2.3648  1.5424
11898TIP3   OH257184   2.336   0.506   5.326 -0.3329  0.1103 -0.1700
11898TIP3    H157185   2.318   0.412   5.337 -1.0322  0.4220  1.6871
11898TIP3    H257186   2.257   0.540   5.284 -0.4215  0.0088 -0.0870
11899TIP3   OH257187   4.133   5.950  14.039  0.1988  0.5063  0.1923
11899TIP3    H157188   4.123   6.035  14.082 -1.4464  1.1529 -1.3209
11899TIP3    H257189   4.105   5.965  13.949 -1.7855 -1.9679  0.2658
11900TIP3   OH257190   0.715   1.499  13.452  0.4747  0.2898 -0.2108
11900TIP3    H157191   0.631   1.510  13.406  0.0394 -1.3902  0.0865
11900TIP3    H257192   0.769   1.572  13.422 -1.1420  1.5230 -0.2819
11901TIP3   OH257193   1.171   5.922  16.627 -0.1158 -0.2175  0.0044
11901TIP3    H157194   1.185   6.012  16.597  1.3479 -0.5285 -0.3092
11901TIP3    H257195   1.210   5.920  16.715 -1.6468 -0.1289  0.7236
11902TIP3   OH257196   0.542   1.940  13.711 -0.3155 -0.0756  0.5396
11902TIP3    H157197   0.525   1.867  13.652  0.4117  0.5894 -0.5360
11902TIP3    H257198   0.496   1.917  13.792 -1.8181 -0.7418 -0.4618
11903TIP3   OH257199   4.420   0.859  12.727  0.2816 -0.8013  0.2007
11903TIP3    H157200   4.411   0.846  12.821 -1.4280 -0.1852  0.1562
11903TIP3    H257201   4.487   0.928  12.718  1.2345 -1.6101  0.8892
11904TIP3   OH257202   1.316   5.857  17.078  0.3562 -0.6818  0.1486
11904TIP3    H157203   1.287   5.766  17.074  0.3883 -0.7759  1.5715
11904TIP3    H257204   1.354   5.874  16.992 -1.0402 -1.5274 -0.6654
11905TIP3   OH257205   0.951   6.227   3.803  0.2835 -0.1092 -0.0533
11905TIP3    H157206   1.012   6.200   3.872 -1.2020 -0.9609  0.9658
11905TIP3    H257207   0.883   6.160   3.803 -0.5135  0.6527 -1.3747
11906TIP3   OH257208   2.878   5.393   2.059 -0.3356  0.3057 -0.0162
11906TIP3    H157209   2.783   5.385   2.071 -0.0587 -0.1689  2.1867
11906TIP3    H257210   2.895   5.350   1.975 -1.8797 -1.0533  0.3173
11907TIP3   OH257211   0.806   6.761  14.954 -0.5249  0.2631  0.2234
11907TIP3    H157212   0.781   6.669  14.965  0.7131  0.0557  1.6986
11907TIP3    H257213   0.725   6.806  14.932 -1.3109 -1.0522  0.3435
11908TIP3   OH257214   3.865   3.812   0.057  0.0276  0.7084  0.5084
11908TIP3    H157215   3.899   3.893   0.094 -0.9878  2.1143 -1.4242
11908TIP3    H257216   3.777   3.835   0.026  0.0662 -0.8502 -0.9202
11909TIP3   OH257217   4.181   3.542   2.105  0.3190  0.3807  0.0520
11909TIP3    H157218   4.190   3.519   2.198  0.7083  1.4574  0.2962
11909TIP3    H257219   4.251   3.606   2.090 -2.5801  3.8857  0.2480
11910TIP3   OH257220   2.255   3.088  13.100  0.1096 -0.4264 -0.1219
11910TIP3    H157221   2.329   3.115  13.154  0.9519 -0.6529 -1.1262
11910TIP3    H257222   2.285   3.103  13.010 -0.8079 -1.1805 -0.5703
11911TIP3   OH257223   0.021   1.966  15.820 -1.0719 -0.0525  0.3115
11911TIP3    H157224  -0.014   1.900  15.760  1.0810 -2.2495  1.3114
11911TIP3    H257225  -0.007   1.937  15.907  1.5647 -0.9121  0.9682
11912TIP3   OH257226   3.123   6.613   0.996 -0.1138  0.1763 -0.2011
11912TIP3    H157227   3.173   6.538   1.029  0.8265  1.8047  2.3694
11912TIP3    H257228   3.188   6.683   0.986 -0.9204  0.6977 -2.7749
11913TIP3   OH257229   4.847   6.305  12.519  0.0517  0.1648  0.2189
11913TIP3    H157230   4.787   6.243  12.477 -0.7090 -1.9537  3.9746
11913TIP3    H257231   4.933   6.283  12.483 -0.3006 -2.7130  0.8881
11914TIP3   OH257232   1.215   4.098  14.622  0.3553  0.3867  0.0454
11914TIP3    H157233   1.215   4.011  14.583  0.2033 -0.2672  1.4583
11914TIP3    H257234   1.131   4.136  14.596  0.0556 -0.2099  0.1291
11915TIP3   OH257235   1.195   0.402   2.043 -0.1917 -0.2480 -0.3753
11915TIP3    H157236   1.283   0.369   2.060 -1.0826 -2.1618  0.7883
11915TIP3    H257237   1.156   0.339   1.982 -1.0668  0.0574 -0.1541
11916TIP3   OH257238   0.959   0.719  15.685  0.3949  0.0643 -0.3945
11916TIP3    H157239   0.870   0.739  15.656  0.3687 -0.9285 -1.0193
11916TIP3    H257240   0.984   0.640  15.637  2.4883  1.5778 -1.9966
11917TIP3   OH257241   3.562   5.741   0.597 -0.0642 -0.0635  0.8870
11917TIP3    H157242   3.612   5.816   0.564 -1.5152 -0.1942 -1.9832
11917TIP3    H257243   3.625   5.668   0.596  1.3575  1.0006  3.6966
11918TIP3   OH257244   2.931   0.539   3.537  0.2192 -0.5697  0.3455
11918TIP3    H157245   2.949   0.523   3.444  0.2020  0.4838  0.1548
11918TIP3    H257246   2.841   0.508   3.550 -0.3807  0.7914 -0.3850
11919TIP3   OH257247   4.994   1.816   3.766  0.2416 -0.0669 -0.0495
11919TIP3    H157248   4.955   1.869   3.835 -0.1901  0.8849 -1.0026
11919TIP3    H257249   4.991   1.726   3.800 -1.9553  0.0758  0.2935
11920TIP3   OH257250   1.640   3.177  16.521  0.4388  0.1490  0.3352
11920TIP3    H157251   1.564   3.191  16.465  0.3303 -1.4698  0.0279
11920TIP3    H257252   1.604   3.134  16.599  1.0421 -0.8789  0.0685
11921TIP3   OH257253   2.047   1.079   4.620 -0.5678  0.1630  0.0047
11921TIP3    H157254   2.051   1.010   4.686 -0.6752  0.7030  0.5967
11921TIP3    H257255   2.016   1.156   4.669  0.8398  0.9751 -0.3273
11922TIP3   OH257256   3.583   3.179   4.123 -1.1316  0.0030  0.2484
11922TIP3    H157257   3.645   3.239   4.165 -1.9597  0.3285  1.0428
11922TIP3    H257258   3.605   3.093   4.158  1.0082 -0.4674 -1.9793
11923TIP3   OH257259   0.156   5.205  16.362  0.4054  0.1298 -0.4611
11923TIP3    H157260   0.169   5.110  16.359 -0.2109  0.0037  0.4574
11923TIP3    H257261   0.121   5.227  16.276  0.4625 -0.4982 -0.6507
11924TIP3   OH257262   5.435   1.016  15.086 -0.0688 -0.2735 -0.1753
11924TIP3    H157263   5.393   1.086  15.035  1.4970 -0.5850 -2.0140
11924TIP3    H257264   5.491   0.971  15.023 -0.0165 -2.3850  1.2673
11925TIP3   OH257265   2.147   5.499  12.486 -0.5061 -0.0387  0.1619
11925TIP3    H157266   2.065   5.459  12.516  0.0542 -0.6008  0.9838
11925TIP3    H257267   2.212   5.471  12.551  0.4730 -0.1663 -0.8586
11926TIP3   OH257268   0.433   0.787   5.088 -0.0407 -0.2354 -0.9449
11926TIP3    H157269   0.403   0.878   5.094  1.5370  0.2253  1.8474
11926TIP3    H257270   0.496   0.787   5.015 -0.2563  0.8377 -1.1463
11927TIP3   OH257271   0.226   1.377  12.106 -0.1249 -0.1977 -0.5261
11927TIP3    H157272   0.231   1.423  12.022 -3.5569 -1.3714 -1.5374
11927TIP3    H257273   0.173   1.433  12.162 -0.3163 -0.7485 -0.1423
11928TIP3   OH257274   3.876   4.351  16.155 -0.1249 -0.6413 -0.0620
11928TIP3    H157275   3.876   4.409  16.079  0.8799  0.9773  1.0855
11928TIP3    H257276   3.787   4.318  16.161 -0.7052  0.6927 -0.8755
11929TIP3   OH257277   1.746   5.406  15.670  0.6140 -0.4025  0.2779
11929TIP3    H157278   1.803   5.423  15.595 -1.4130  1.8239 -0.9212
11929TIP3    H257279   1.659   5.431  15.639 -0.2681  0.9396  3.4522
11930TIP3   OH257280   0.279   2.014  16.414 -0.2428 -0.3523 -0.0677
11930TIP3    H157281   0.317   2.075  16.350  0.1451  0.6603  1.0988
11930TIP3    H257282   0.269   2.066  16.494 -0.7788 -1.5812  0.6870
11931TIP3   OH257283   2.332   1.615  14.542  0.4925  0.2462  0.1496
11931TIP3    H157284   2.350   1.521  14.538  0.1069  0.1915 -0.4669
11931TIP3    H257285   2.299   1.637  14.455  1.1880  1.0816  0.0798
11932TIP3   OH257286   2.920   1.413  13.814 -0.4387  0.1854 -0.3965
11932TIP3    H157287   2.825   1.410  13.805 -0.6650  0.7188  1.3392
11932TIP3    H257288   2.953   1.363  13.739 -2.2233 -4.2624  1.4082
11933TIP3   OH257289   6.240   5.248  13.466  0.7514  0.3367 -0.5495
11933TIP3    H157290   6.162   5.212  13.426  0.8362  2.0784 -2.4381
11933TIP3    H257291   6.207   5.307  13.534  0.6110 -2.7316  2.3377
11934TIP3   OH257292   2.520   0.084  11.755  0.8526  0.1376  0.5576
11934TIP3    H157293   2.516   0.009  11.696 -0.6858 -1.5075  2.5690
11934TIP3    H257294   2.500   0.159  11.700  1.2862 -1.0568 -1.3371
11935TIP3   OH257295   3.081   3.935   0.257  0.3352 -0.1354 -0.0260
11935TIP3    H157296   3.046   3.927   0.346  1.3223  0.9758  0.4863
11935TIP3    H257297   3.168   3.974   0.269 -0.5764  2.5986 -1.6506
11936TIP3   OH257298   2.724   3.240  14.024 -0.5664 -0.1897  0.2898
11936TIP3    H157299   2.693   3.299  13.955  0.6223  0.7725  0.5415
11936TIP3    H257300   2.734   3.155  13.980 -1.0708  0.0975 -0.3937
11937TIP3   OH257301   0.242   3.622   5.641  0.4578 -0.2602  0.2972
11937TIP3    H157302   0.164   3.659   5.683 -0.2096 -2.2090  0.8832
11937TIP3    H257303   0.207   3.558   5.579  1.5884 -1.0066  0.4022
11938TIP3   OH257304   0.687   4.338  13.435 -0.4191  0.3137 -0.1630
11938TIP3    H157305   0.711   4.324  13.526 -1.3258 -0.0441  0.0253
11938TIP3    H257306   0.706   4.254  13.392  2.5107  1.2049 -0.9033
11939TIP3   OH257307   2.055   3.802   5.301  0.0730  0.5058 -0.1471
11939TIP3    H157308   2.118   3.761   5.242  0.0692 -0.3994  0.4715
11939TIP3    H257309   1.989   3.735   5.318 -0.5592  1.1356 -0.0271
11940TIP3   OH257310   4.875   4.785  10.735 -0.0176  0.3547 -0.5705
11940TIP3    H157311   4.952   4.801  10.790  1.6053  0.7203 -2.8139
11940TIP3    H257312   4.870   4.861  10.677 -0.3678 -0.9493 -2.3485
11941TIP3   OH257313   4.408   5.809  13.340 -0.3932  0.1008  0.1435
11941TIP3    H157314   4.415   5.833  13.248  1.4640  1.2537  0.5498
11941TIP3    H257315   4.438   5.886  13.388 -1.5774 -0.3764  1.7469
11942TIP3   OH257316   5.108   4.318   2.423 -0.1725  0.2595 -0.6344
11942TIP3    H157317   5.080   4.245   2.367 -0.9505  0.3487 -0.3677
11942TIP3    H257318   5.085   4.291   2.512  0.3503  0.4551 -0.4312
11943TIP3   OH257319   1.433   5.213   3.876  0.4647  0.3208 -0.1506
11943TIP3    H157320   1.412   5.157   3.950  0.4932 -0.9623 -1.0718
11943TIP3    H257321   1.505   5.268   3.907  1.1094 -0.8364  0.4977
11944TIP3   OH257322   4.886   1.750  13.623 -0.5422 -0.3121  0.4524
11944TIP3    H157323   4.977   1.778  13.617 -0.6026 -0.1372  0.3642
11944TIP3    H257324   4.885   1.687  13.696 -0.9010  1.8815  2.4567
11945TIP3   OH257325   6.297   0.442  13.274  0.8474 -0.1762  0.3908
11945TIP3    H157326   6.268   0.465  13.362 -0.6216  0.4858 -0.2238
11945TIP3    H257327   6.216   0.425  13.226  1.5234  0.7106 -1.1461
11946TIP3   OH257328   2.162   4.242  14.059  0.5427  0.2262  0.0372
11946TIP3    H157329   2.197   4.326  14.089 -0.1770  0.5021  0.1339
11946TIP3    H257330   2.239   4.188  14.044  0.9847  0.5890  0.9058
11947TIP3   OH257331   2.841   3.338   3.013  0.0900 -0.0855  0.7517
11947TIP3    H157332   2.888   3.383   2.942  0.1184 -1.3741 -0.0709
11947TIP3    H257333   2.908   3.285   3.056  0.1253  0.8787  1.9322
11948TIP3   OH257334   4.259   2.016   4.828 -0.3324  0.3154  0.4792
11948TIP3    H157335   4.312   2.001   4.906  0.2289 -1.1961 -0.1604
11948TIP3    H257336   4.294   1.956   4.762  0.3279  2.6853 -1.5124
11949TIP3   OH257337   1.738   0.480   2.649  0.4121  0.0879  0.4162
11949TIP3    H157338   1.789   0.434   2.716  0.7233 -0.1141  0.0448
11949TIP3    H257339   1.669   0.525   2.698 -0.1191 -1.0640  0.7450
11950TIP3   OH257340   1.000   2.790   0.995 -0.3873 -0.0791 -0.5573
11950TIP3    H157341   0.937   2.766   1.062 -0.2163 -0.6109 -0.5873
11950TIP3    H257342   0.996   2.886   0.992 -0.5085 -0.0602  0.1015
11951TIP3   OH257343   3.788   6.668   4.314 -0.6257 -0.0227 -0.5153
11951TIP3    H157344   3.835   6.663   4.397  0.9996  1.8162 -1.2489
11951TIP3    H257345   3.772   6.577   4.290  3.5287 -0.8779 -0.7016
11952TIP3   OH257346   5.187   5.819   1.715  0.6895  0.0532  0.6290
11952TIP3    H157347   5.177   5.729   1.746  1.2041 -0.3950 -0.4547
11952TIP3    H257348   5.255   5.814   1.648 -2.3079  0.4089 -2.7369
11953TIP3   OH257349   5.769   4.129   5.527 -0.0364  0.2935 -0.1251
11953TIP3    H157350   5.733   4.213   5.554 -2.0621  1.2596 -4.8255
11953TIP3    H257351   5.696   4.068   5.537  0.2932 -0.1049 -0.1116
11954TIP3   OH257352   6.567   4.381  13.195 -0.1054 -0.0150 -0.1709
11954TIP3    H157353   6.645   4.412  13.149  0.3351 -0.8132  0.0150
11954TIP3    H257354   6.591   4.384  13.287 -0.3517 -0.1013 -0.1026
11955TIP3   OH257355   0.435   0.580  15.599 -0.0936 -0.2546 -0.5517
11955TIP3    H157356   0.363   0.641  15.583  0.4195  0.4415 -0.2436
11955TIP3    H257357   0.422   0.548  15.688  1.0618  1.3998  0.2611
11956TIP3   OH257358   2.881   2.200   2.166 -0.9063 -0.0601 -0.1635
11956TIP3    H157359   2.868   2.105   2.171 -1.1878  0.0255  2.9537
11956TIP3    H257360   2.805   2.231   2.117 -1.6678 -1.3362  0.1425
11957TIP3   OH257361   0.812   1.561  12.876 -0.2910  0.0421 -0.2949
11957TIP3    H157362   0.887   1.517  12.917 -0.9568 -0.5676  0.2918
11957TIP3    H257363   0.776   1.496  12.816  1.8218  1.5259 -3.4509
11958TIP3   OH257364   1.129   0.189   4.557  0.0429 -0.6160 -0.3531
11958TIP3    H157365   1.041   0.211   4.585  0.5424 -0.8517  1.5537
11958TIP3    H257366   1.185   0.254   4.599  0.6895  0.5162 -2.8287
11959TIP3   OH257367   2.553   3.487  15.161  0.0328  0.3738  0.1558
11959TIP3    H157368   2.569   3.411  15.218  2.5089  0.8882  0.2309
11959TIP3    H257369   2.578   3.562  15.214 -3.0112  1.4177  0.3147
11960TIP3   OH257370   1.474   1.022   4.269 -0.0884  0.0215 -0.0610
11960TIP3    H157371   1.522   0.972   4.335 -0.0853 -0.8374 -0.7063
11960TIP3    H257372   1.397   1.055   4.315  1.3135  1.8336  1.1319
11961TIP3   OH257373   2.427   3.157  15.824 -0.3483 -0.3527  0.2864
11961TIP3    H157374   2.360   3.206  15.872  0.9253 -0.3095  2.0961
11961TIP3    H257375   2.508   3.174  15.871  0.3923 -3.0633  0.1456
11962TIP3   OH257376   6.457   4.456   1.311 -0.1600 -0.6474  0.2319
11962TIP3    H157377   6.545   4.422   1.296  0.1754 -0.0848  0.8347
11962TIP3    H257378   6.427   4.484   1.225  1.3022  1.5656  0.3602
11963TIP3   OH257379   4.072   2.336   1.692  0.2231 -0.1570 -0.3513
11963TIP3    H157380   4.096   2.244   1.682  2.2168  0.2451  0.4453
11963TIP3    H257381   4.057   2.367   1.602 -0.1090 -1.1530 -0.6494
11964TIP3   OH257382   5.802   5.257  12.918  0.4078  0.2389  0.1232
11964TIP3    H157383   5.835   5.264  12.828  0.0635 -1.4813 -0.1623
11964TIP3    H257384   5.812   5.346  12.953  1.0558  0.8265 -1.4249
11965TIP3   OH257385   4.452   0.316  12.030 -0.0080 -0.1822  0.8450
11965TIP3    H157386   4.421   0.378  11.964  1.6006 -0.1132  0.1104
11965TIP3    H257387   4.546   0.308  12.013  0.2950 -0.7862  2.6347
11966TIP3   OH257388   3.644   0.828  15.797 -0.5899 -0.0474 -0.1326
11966TIP3    H157389   3.620   0.915  15.766 -0.6406 -0.1378 -0.3506
11966TIP3    H257390   3.674   0.782  15.718 -2.1976 -0.7926 -0.3380
11967TIP3   OH257391   2.698   2.200  14.747 -0.3775 -0.2103 -0.3302
11967TIP3    H157392   2.777   2.194  14.694 -0.9339  0.4891 -1.2824
11967TIP3    H257393   2.691   2.293  14.768 -0.2221 -0.4608  0.9120
11968TIP3   OH257394   0.548   1.271  13.908  0.0877 -0.4908 -0.4512
11968TIP3    H157395   0.539   1.270  14.004 -0.0818 -1.4040 -0.4704
11968TIP3    H257396   0.513   1.356  13.882  0.1318 -0.2332  0.3014
11969TIP3   OH257397   0.565   2.262  13.711 -0.0082 -0.2422  0.4671
11969TIP3    H157398   0.540   2.176  13.746 -1.5965  0.1170  0.3291
11969TIP3    H257399   0.624   2.299  13.776  3.6472 -2.7982 -1.0498
11970TIP3   OH257400   0.352   3.455  15.047  0.0100 -0.1508  0.1284
11970TIP3    H157401   0.276   3.507  15.023  1.3561  1.8764 -0.0372
11970TIP3    H257402   0.360   3.390  14.977 -0.2307  1.1326 -1.1484
11971TIP3   OH257403   3.449   1.244  16.916  0.2256  0.2882  0.1157
11971TIP3    H157404   3.379   1.255  16.980  0.3660  1.1261  0.1354
11971TIP3    H257405   3.403   1.230  16.833  0.0437  0.0503  0.2526
11972TIP3   OH257406   1.968   3.252  12.755  0.2050 -0.6275 -0.1450
11972TIP3    H157407   2.024   3.313  12.804  2.1205  0.4506 -3.3670
11972TIP3    H257408   1.898   3.307  12.720  0.6786 -0.6946 -1.2243
11973TIP3   OH257409   0.441   1.145  14.741 -0.1330  0.0954  0.1339
11973TIP3    H157410   0.513   1.165  14.801  1.0581 -0.6284 -1.0049
11973TIP3    H257411   0.403   1.064  14.775  1.9225 -1.5268 -1.2043
11974TIP3   OH257412   1.408   1.883   1.061 -0.1558  0.2651  0.1414
11974TIP3    H157413   1.497   1.917   1.067 -0.0054 -0.2057  0.6735
11974TIP3    H257414   1.353   1.961   1.063  0.2653  0.6607 -1.4661
11975TIP3   OH257415   5.061   1.064   1.639  0.3037  0.2646  0.1016
11975TIP3    H157416   4.984   1.032   1.593  1.2399  0.8056 -1.9816
11975TIP3    H257417   5.116   0.987   1.651  0.7877  0.3691 -1.2729
11976TIP3   OH257418   6.602   3.698   1.129 -0.6021  0.2307  0.1610
11976TIP3    H157419   6.576   3.648   1.206  1.3700 -0.9875  0.0912
11976TIP3    H257420   6.682   3.743   1.154  1.3789 -1.9479 -1.7324
11977TIP3   OH257421   6.588   4.485   0.184 -0.3618 -0.3918 -0.1742
11977TIP3    H157422   6.586   4.509   0.092 -2.2275  0.7919  0.1205
11977TIP3    H257423   6.497   4.464   0.205  0.3999 -3.0018  0.8456
11978TIP3   OH257424   3.472   5.014  11.289 -0.2111 -0.3264 -0.0477
11978TIP3    H157425   3.426   5.093  11.262  0.5263  0.5841  1.2191
11978TIP3    H257426   3.402   4.951  11.307 -0.9385  0.6657  0.7679
11979TIP3   OH257427   1.513   0.217  16.786  0.1801  0.1970 -0.1125
11979TIP3    H157428   1.515   0.311  16.770 -0.3523 -0.0615 -1.9512
11979TIP3    H257429   1.445   0.184  16.727  2.8189 -1.7825 -2.4014
11980TIP3   OH257430   6.647   6.621   0.862  0.1935  0.4301 -0.5877
11980TIP3    H157431   6.588   6.670   0.920  0.3894 -0.7328  0.6344
11980TIP3    H257432   6.595   6.546   0.833  0.4585  0.4248 -1.0657
11981TIP3   OH257433   6.006   1.712  15.067 -0.7207  0.3124  0.4331
11981TIP3    H157434   6.034   1.711  15.159 -1.3404  0.9328  0.6327
11981TIP3    H257435   6.049   1.636  15.028  0.3138  0.5831  1.0132
11982TIP3   OH257436   2.501   1.841  14.204  0.1837  0.2541 -0.0925
11982TIP3    H157437   2.438   1.902  14.241 -1.9531 -1.3233 -0.9666
11982TIP3    H257438   2.453   1.794  14.137  2.5648 -0.4157 -1.4606
11983TIP3   OH257439   2.485   1.732   4.352  0.9980 -0.0332  0.4038
11983TIP3    H157440   2.470   1.683   4.433 -1.7946 -2.1873 -1.2456
11983TIP3    H257441   2.554   1.795   4.375  0.0024 -0.1456  4.5614
11984TIP3   OH257442   3.090   2.769   5.377  0.3131 -0.6296 -0.0190
11984TIP3    H157443   3.118   2.829   5.446 -0.4868 -0.1038 -0.1395
11984TIP3    H257444   3.016   2.721   5.416 -0.5322  0.0924 -0.7074
11985TIP3   OH257445   5.547   4.596  15.805  0.3202  0.0413 -0.1806
11985TIP3    H157446   5.494   4.517  15.810  1.0926 -0.4602  0.3871
11985TIP3    H257447   5.505   4.658  15.864 -0.0360 -0.1067 -0.2800
11986TIP3   OH257448   4.941   4.106  10.747 -0.3392  0.0284 -0.1691
11986TIP3    H157449   4.874   4.041  10.767 -0.6396  0.6690  1.0106
11986TIP3    H257450   4.895   4.190  10.750  0.2666  0.3833 -0.5710
11987TIP3   OH257451   2.856   4.823   0.035 -0.5914  0.5414  0.0509
11987TIP3    H157452   2.906   4.773   0.099 -0.1609  0.8530 -0.0375
11987TIP3    H257453   2.815   4.893   0.086  0.0125  0.9842 -0.0532
11988TIP3   OH257454   1.061   6.090  15.207  0.2101 -0.2469  0.1736
11988TIP3    H157455   1.088   6.041  15.129  0.5549  0.2330 -0.0095
11988TIP3    H257456   1.141   6.100  15.259  0.5659  1.7413 -0.6763
11989TIP3   OH257457   0.050   3.141   1.939 -0.4312  0.4388  0.0899
11989TIP3    H157458  -0.016   3.205   1.966 -2.1171 -1.1619 -0.0098
11989TIP3    H257459   0.040   3.135   1.844  2.4615  2.8297 -0.5130
11990TIP3   OH257460   4.756   1.841   3.534  0.2224  0.1416  0.1133
11990TIP3    H157461   4.806   1.786   3.475 -1.3702 -0.8823 -0.3446
11990TIP3    H257462   4.785   1.815   3.622 -0.7051 -1.7068 -0.0753
11991TIP3   OH257463   2.218   5.745   3.092 -0.3777  0.1033  0.1480
11991TIP3    H157464   2.270   5.824   3.074 -1.2911  0.7279  0.1912
11991TIP3    H257465   2.159   5.771   3.162 -0.5174 -0.7092  0.3449
11992TIP3   OH257466   1.491   5.106  12.749 -0.2371 -0.4179 -0.1166
11992TIP3    H157467   1.453   5.193  12.763 -2.0389 -1.4209  1.5844
11992TIP3    H257468   1.416   5.048  12.736  0.5039 -2.5051  3.4846
11993TIP3   OH257469   6.030   2.958  12.709  0.1945  0.4421 -0.2051
11993TIP3    H157470   6.045   3.048  12.681  3.5178 -0.3686 -1.5377
11993TIP3    H257471   6.063   2.956  12.799  3.1475  0.0062 -1.1857
11994TIP3   OH257472   4.122   0.317   0.994 -0.0954 -0.0646 -0.4163
11994TIP3    H157473   4.088   0.359   1.072  0.3441  0.2184 -0.3744
11994TIP3    H257474   4.203   0.275   1.023 -0.2995 -0.5636 -0.5580
11995TIP3   OH257475   3.774   6.839   0.663 -0.8297 -0.2876 -0.2132
11995TIP3    H157476   3.704   6.875   0.718 -0.1988  0.6288  0.0196
11995TIP3    H257477   3.754   6.872   0.575 -0.7360 -0.0904 -0.1613
11996TIP3   OH257478   3.223   2.377  16.675  0.6050  0.5329  0.3201
11996TIP3    H157479   3.246   2.312  16.741  1.9422 -0.8285 -1.3837
11996TIP3    H257480   3.128   2.383  16.678  0.5412 -0.7050  1.2696
11997TIP3   OH257481   3.093   1.374   1.908 -0.1737 -0.2188  0.1744
11997TIP3    H157482   3.123   1.305   1.849 -3.3018 -2.1092  0.5997
11997TIP3    H257483   3.024   1.420   1.859  0.3678  1.2652  0.7252
11998TIP3   OH257484   2.106   2.907  13.676  0.5748  0.0539  0.1530
11998TIP3    H157485   2.039   2.906  13.743  1.6171  0.6290  1.2450
11998TIP3    H257486   2.062   2.943  13.598 -0.2201  0.9924  1.0093
11999TIP3   OH257487   0.466   5.756   2.953  0.0460  0.0524  0.4242
11999TIP3    H157488   0.557   5.757   2.924 -0.2038 -0.4834 -0.4161
11999TIP3    H257489   0.435   5.668   2.932 -1.4454  1.0361 -1.8852
12000TIP3   OH257490   2.355   4.756   4.415 -0.2821 -0.1349  0.3730
12000TIP3    H157491   2.363   4.851   4.422 -2.0983  0.1093 -0.4520
12000TIP3    H257492   2.421   4.723   4.476 -0.3940  1.6584  1.5513
12001TIP3   OH257493   2.520   6.274   6.086 -0.2861  0.3688 -0.3470
12001TIP3    H157494   2.500   6.362   6.120  1.3792  0.6620 -0.0105
12001TIP3    H257495   2.578   6.236   6.152  2.0151  0.4583 -2.2102
12002TIP3   OH257496   0.578   1.864   3.328  0.4279 -0.3816  0.0552
12002TIP3    H157497   0.517   1.791   3.343  0.6989 -0.5062  0.5714
12002TIP3    H257498   0.556   1.927   3.397  1.2945 -0.6975  0.6333
12003TIP3   OH257499   3.603   6.328   0.660 -0.9477  0.2508 -0.3339
12003TIP3    H157500   3.629   6.402   0.606 -0.2687  1.0830  1.0597
12003TIP3    H257501   3.601   6.253   0.601  2.4616  0.5489 -0.9923
12004TIP3   OH257502   6.259   6.492   3.073 -0.6697  0.3859  0.6706
12004TIP3    H157503   6.213   6.418   3.034  1.5789 -0.4407 -0.5848
12004TIP3    H257504   6.233   6.567   3.019 -0.0157 -0.2051 -0.5155
12005TIP3   OH257505   3.990   5.209   5.098 -0.1315 -0.4510 -0.5989
12005TIP3    H157506   3.965   5.187   5.188 -2.7134 -0.8020 -1.3236
12005TIP3    H257507   4.038   5.131   5.068  0.1664 -0.6066  0.2390
12006TIP3   OH257508   6.135   5.729   0.550  0.0815  0.2045  0.1102
12006TIP3    H157509   6.192   5.804   0.559 -1.7395  1.6317  0.3946
12006TIP3    H257510   6.111   5.727   0.457  0.0521  0.0415  0.1203
12007TIP3   OH257511   2.963   1.401   4.223 -0.3724 -0.2044 -0.1287
12007TIP3    H157512   2.962   1.411   4.319 -0.9618  2.9789 -0.3463
12007TIP3    H257513   3.000   1.484   4.191 -2.8564  0.0710 -2.7172
12008TIP3   OH257514   5.562   0.041   4.764 -0.0080  0.4475 -0.1759
12008TIP3    H157515   5.561   0.077   4.853  0.3709  0.8844 -0.3483
12008TIP3    H257516   5.654   0.029   4.743 -0.1200 -0.8054 -0.0608
12009TIP3   OH257517   3.719   4.431   0.828  0.0459  0.4192 -0.1466
12009TIP3    H157518   3.641   4.426   0.773 -0.4964  2.3548  0.3835
12009TIP3    H257519   3.690   4.473   0.909  0.9329 -1.9308  1.5145
12010TIP3   OH257520   5.191   1.460  12.353  0.2284 -0.2870  0.3898
12010TIP3    H157521   5.159   1.382  12.308 -0.8822  0.4959 -0.2542
12010TIP3    H257522   5.276   1.479  12.312  0.9995 -1.7313  1.2827
12011TIP3   OH257523   1.356   2.147   0.174  0.0535  0.0760  0.3698
12011TIP3    H157524   1.327   2.205   0.244 -0.0587 -1.4789  1.6811
12011TIP3    H257525   1.322   2.186   0.094  1.2851  2.6214  0.9966
12012TIP3   OH257526   4.903   3.374  16.123  0.5175 -0.0118 -0.1108
12012TIP3    H157527   4.967   3.414  16.183  2.5116 -0.6075 -1.7172
12012TIP3    H257528   4.854   3.448  16.087  0.0808  0.4407  1.3453
12013TIP3   OH257529   6.114   6.125  17.042 -0.0839 -0.1008 -0.5216
12013TIP3    H157530   6.066   6.109  16.961  0.7511 -2.1456 -0.6816
12013TIP3    H257531   6.146   6.038  17.069  1.5354  0.8347  0.8030
12014TIP3   OH257532   5.845   6.585   3.102 -0.4753 -0.2873  0.0075
12014TIP3    H157533   5.822   6.678   3.094  3.5363  0.8703 -0.4852
12014TIP3    H257534   5.826   6.548   3.015  0.8404  0.9564 -0.8661
12015TIP3   OH257535   1.589   4.995   6.694 -0.1086  0.7932  0.2082
12015TIP3    H157536   1.494   4.998   6.682  0.0803  3.2005 -1.2182
12015TIP3    H257537   1.616   5.086   6.701  1.9495  0.1318  2.4463
12016TIP3   OH257538   2.818   6.014   5.095 -0.1882 -0.1682  0.0886
12016TIP3    H157539   2.779   6.099   5.118 -0.7030 -0.1896 -0.6540
12016TIP3    H257540   2.745   5.953   5.097 -0.0890 -0.3263 -0.7218
12017TIP3   OH257541   2.580   0.669  16.580 -0.9011 -0.1039 -0.1303
12017TIP3    H157542   2.671   0.663  16.608 -0.9946 -1.1794  0.0195
12017TIP3    H257543   2.578   0.738  16.514 -0.3577  1.3129  1.2808
12018TIP3   OH257544   5.018   4.023  12.733 -0.0084 -0.0486  0.2585
12018TIP3    H157545   4.991   4.002  12.823  1.8364  1.1017  1.1489
12018TIP3    H257546   5.002   4.117  12.724  0.2876 -0.0600 -0.4482
12019TIP3   OH257547   0.258   6.707  13.687 -0.1974 -0.0308 -0.2687
12019TIP3    H157548   0.313   6.632  13.712  1.7324  1.2965 -0.2521
12019TIP3    H257549   0.198   6.718  13.760  0.8497 -0.3558  0.6759
12020TIP3   OH257550   6.776   5.719  15.909 -0.1062 -0.0048 -0.3519
12020TIP3    H157551   6.847   5.737  15.848  0.9442  0.0740  0.8547
12020TIP3    H257552   6.775   5.624  15.917  1.3276  0.0803  1.2651
12021TIP3   OH257553   0.097   5.865  13.457  0.0750 -0.1439 -0.2070
12021TIP3    H157554   0.117   5.853  13.364 -2.0495 -0.9614 -0.6192
12021TIP3    H257555   0.092   5.776  13.492  0.4041  0.1456  0.6000
12022TIP3   OH257556   6.383   4.159  13.679  0.3942  0.0155  0.0257
12022TIP3    H157557   6.354   4.226  13.616  1.8479  0.4745 -0.1857
12022TIP3    H257558   6.467   4.191  13.711  0.4289 -1.0176  1.0169
12023TIP3   OH257559   5.417   3.718   5.826 -0.5740  0.0315  0.2815
12023TIP3    H157560   5.404   3.634   5.782 -3.2161  0.1720  0.6211
12023TIP3    H257561   5.419   3.696   5.919  1.5331  0.1049  0.2955
12024TIP3   OH257562   0.410   1.747  13.888  0.1578 -0.3823 -0.0012
12024TIP3    H157563   0.476   1.678  13.896 -1.3207 -1.7736  0.4995
12024TIP3    H257564   0.378   1.739  13.798  0.6184  0.2938 -0.2426
12025TIP3   OH257565   1.782   3.882   1.150  0.6707 -0.4449 -0.6718
12025TIP3    H157566   1.710   3.821   1.133  0.0991  0.2387 -0.7486
12025TIP3    H257567   1.782   3.895   1.244  1.8412 -1.8106 -0.4527
12026TIP3   OH257568   0.288   2.895  15.117  0.7337  0.2759 -0.3303
12026TIP3    H157569   0.372   2.863  15.083  1.4958  2.0419 -0.2306
12026TIP3    H257570   0.295   2.990  15.112 -1.6671  0.4729 -1.2459
12027TIP3   OH257571   6.098   1.419  16.875  0.4326 -0.3240  0.4421
12027TIP3    H157572   6.107   1.490  16.811  2.1031 -0.1766  0.7855
12027TIP3    H257573   6.170   1.360  16.855  0.0410 -1.0859  1.2084
12028TIP3   OH257574   3.330   2.425  17.081 -1.2154 -0.6677  0.1651
12028TIP3    H157575   3.279   2.344  17.072  0.1383 -1.4681 -0.5920
12028TIP3    H257576   3.389   2.425  17.006 -2.4953  2.0425 -0.9930
12029TIP3   OH257577   0.600   5.319   3.380 -0.3699 -0.7122  0.1820
12029TIP3    H157578   0.665   5.369   3.429  0.1624 -0.8008 -0.4207
12029TIP3    H257579   0.516   5.345   3.418  0.0656 -1.5045  1.8172
12030TIP3   OH257580   5.032   4.091   0.208 -0.0561 -0.1420 -0.1929
12030TIP3    H157581   5.013   4.067   0.299  2.2354  0.2848  0.4757
12030TIP3    H257582   4.987   4.174   0.195  1.0453  0.7081  1.1895
12031TIP3   OH257583   4.859   1.461   4.063 -0.4226 -0.1630  0.3883
12031TIP3    H157584   4.788   1.516   4.030  0.2538  0.2106 -0.4925
12031TIP3    H257585   4.830   1.372   4.046 -0.0123  0.0184 -1.5018
12032TIP3   OH257586   1.641   2.385   4.680 -0.1542  0.2013  0.1485
12032TIP3    H157587   1.559   2.388   4.730 -1.3990  0.3435 -1.7768
12032TIP3    H257588   1.624   2.320   4.611  1.1370  0.6706 -0.6404
12033TIP3   OH257589   2.884   4.982   3.346 -0.5997 -0.1401 -0.2504
12033TIP3    H157590   2.794   5.003   3.321 -0.3849  0.2882 -0.6839
12033TIP3    H257591   2.928   5.066   3.352 -0.2925 -0.3255  0.2493
12034TIP3   OH257592   2.278   5.457  15.890 -0.0819  0.2433  0.8368
12034TIP3    H157593   2.302   5.509  15.967 -0.4998  0.3406  0.9058
12034TIP3    H257594   2.196   5.496  15.860  0.0557  0.1745  0.3676
12035TIP3   OH257595   0.440   3.664  12.641 -0.5733 -0.8115  0.0924
12035TIP3    H157596   0.501   3.591  12.652  2.4334  1.3938 -0.5638
12035TIP3    H257597   0.435   3.705  12.727  1.0881  0.5308 -0.3966
12036TIP3   OH257598   5.777   3.913   2.932 -0.1552  0.2582  0.5023
12036TIP3    H157599   5.697   3.885   2.887 -0.7519 -0.1084  1.7367
12036TIP3    H257600   5.798   3.840   2.990 -0.9613  1.7662  2.8067
12037TIP3   OH257601   2.004   4.759   4.195 -0.0103 -0.0113 -0.9625
12037TIP3    H157602   2.031   4.850   4.206 -2.1403  0.4012  2.4463
12037TIP3    H257603   1.912   4.764   4.170 -0.5462 -1.1491  0.6338
12038TIP3   OH257604   4.085   1.470  11.353 -0.3953 -0.0036 -0.3950
12038TIP3    H157605   4.154   1.404  11.349  1.7592  2.1455 -1.6389
12038TIP3    H257606   4.054   1.477  11.263 -2.9530 -1.5436  0.2936
12039TIP3   OH257607   4.234   4.619   4.430 -0.0092 -0.1167 -0.4530
12039TIP3    H157608   4.269   4.576   4.351  1.3857  1.2207 -0.6083
12039TIP3    H257609   4.143   4.639   4.408  0.4510  0.5562 -1.8875
12040TIP3   OH257610   6.252   2.554  15.270  0.4768  0.6693  0.1589
12040TIP3    H157611   6.305   2.499  15.213 -0.2340  0.2531 -0.1165
12040TIP3    H257612   6.165   2.514  15.269  0.7290 -0.0890  2.5519
12041TIP3   OH257613   4.902   0.537   0.218 -0.3187  0.2678  0.6724
12041TIP3    H157614   4.893   0.445   0.194 -0.6360  0.5556 -0.3499
12041TIP3    H257615   4.991   0.544   0.253 -0.5165 -0.5495  1.3858
12042TIP3   OH257616   4.045   6.154  13.854 -0.0879 -0.3983  0.0364
12042TIP3    H157617   3.980   6.224  13.856  0.4530  0.0878  0.9512
12042TIP3    H257618   4.118   6.191  13.804 -0.5455 -0.9883 -1.1017
12043TIP3   OH257619   3.075   6.847  14.481  0.2264 -0.2166  0.2241
12043TIP3    H157620   3.015   6.918  14.500 -0.6672 -0.9333  0.1433
12043TIP3    H257621   3.093   6.807  14.566 -0.2144 -0.6303  0.1245
12044TIP3   OH257622   2.032   2.404   5.233  0.2017 -0.2163 -0.2619
12044TIP3    H157623   1.979   2.482   5.252  0.8223 -0.1695  1.4689
12044TIP3    H257624   1.970   2.331   5.237 -0.0259 -0.0059  0.0587
12045TIP3   OH257625   2.384   6.490  12.137  0.4940 -0.4009 -0.5932
12045TIP3    H157626   2.441   6.549  12.186  0.6360 -0.9787 -0.0380
12045TIP3    H257627   2.298   6.531  12.140  1.0448  0.9426 -2.2328
12046TIP3   OH257628   1.976   0.180   1.748 -0.3637 -0.5509  0.3665
12046TIP3    H157629   1.896   0.228   1.728 -0.9676 -2.3958 -2.1431
12046TIP3    H257630   1.963   0.149   1.838 -2.0607 -0.0396  0.3343
12047TIP3   OH257631   3.017   5.529  12.752  0.6436 -0.2748 -0.3846
12047TIP3    H157632   3.110   5.547  12.735  0.7621  0.1502  0.6317
12047TIP3    H257633   2.993   5.591  12.822 -0.8034  0.6453 -1.6306
12048TIP3   OH257634   5.452   4.242  12.318 -0.1323  0.9868 -0.0374
12048TIP3    H157635   5.358   4.257  12.318 -0.9514 -3.0231  1.0364
12048TIP3    H257636   5.479   4.255  12.227 -1.9063  1.2576 -0.5564
12049TIP3   OH257637   5.353   2.121  12.322  0.3269 -0.1026 -0.0060
12049TIP3    H157638   5.339   2.046  12.380  1.2269  0.1618  0.5727
12049TIP3    H257639   5.277   2.121  12.264 -0.0876 -0.9766  0.5170
12050TIP3   OH257640   6.416   4.823  12.357 -0.4289 -0.1124 -0.3588
12050TIP3    H157641   6.445   4.914  12.363 -0.9507  0.1238 -1.1685
12050TIP3    H257642   6.360   4.809  12.433  0.2881  0.0011  0.1904
12051TIP3   OH257643   0.076   4.073  16.569 -0.3264 -0.5392 -0.1102
12051TIP3    H157644   0.013   4.013  16.529 -1.1294  0.7209 -0.8163
12051TIP3    H257645   0.031   4.107  16.646  0.1328 -0.8506  0.2996
12052TIP3   OH257646   1.104   4.781  11.269  0.4915  0.1220  0.0927
12052TIP3    H157647   1.110   4.840  11.344  1.8432 -1.8524  1.6654
12052TIP3    H257648   1.184   4.796  11.220 -0.4649  1.5237 -1.1079
12053TIP3   OH257649   0.066   6.451   4.471  0.0438  0.0136 -0.4953
12053TIP3    H157650   0.152   6.491   4.456 -0.3430  1.0986  0.1290
12053TIP3    H257651   0.070   6.368   4.423  0.6574  1.0259 -2.2621
12054TIP3   OH257652   5.753   4.283   4.357  0.6681  0.4070 -0.0064
12054TIP3    H157653   5.778   4.194   4.333 -1.1018 -0.6314  1.7651
12054TIP3    H257654   5.712   4.319   4.278 -0.0515 -0.9292 -0.2608
12055TIP3   OH257655   5.256   3.955  14.077  0.0629 -0.0078 -0.0966
12055TIP3    H157656   5.274   3.861  14.072  2.2864  0.3488  0.4229
12055TIP3    H257657   5.315   3.988  14.144 -0.8518  1.7421 -0.0887
12056TIP3   OH257658   0.277   1.721   2.666 -0.6155 -0.2047 -0.1655
12056TIP3    H157659   0.322   1.643   2.698  0.1069 -0.2512 -1.2251
12056TIP3    H257660   0.348   1.779   2.638 -1.1870  0.1527 -0.9023
12057TIP3   OH257661   3.336   1.783   2.749 -0.2103  1.0370  0.1768
12057TIP3    H157662   3.365   1.733   2.826  2.1071  3.5324  1.0770
12057TIP3    H257663   3.245   1.805   2.768 -1.2874 -2.4416 -0.1641
12058TIP3   OH257664   0.492   0.049  12.821 -0.0243  0.4888  0.1892
12058TIP3    H157665   0.480   0.094  12.737  0.1672  1.4595  0.6669
12058TIP3    H257666   0.547  -0.026  12.800 -1.7328 -0.5384 -0.9392
12059TIP3   OH257667   3.605   4.586   3.590  0.1303 -0.0301 -0.0712
12059TIP3    H157668   3.572   4.584   3.499  1.8972 -0.4184 -0.7338
12059TIP3    H257669   3.622   4.678   3.607 -0.8956  0.1292  0.1405
12060TIP3   OH257670   1.128   0.050  10.739  0.0244 -0.5421 -0.0121
12060TIP3    H157671   1.115   0.127  10.683  2.0475 -0.3064 -0.2164
12060TIP3    H257672   1.214   0.017  10.715 -0.3117 -2.2013  0.9163
12061TIP3   OH257673   1.183   1.560   1.249  0.2094 -0.1918  0.3051
12061TIP3    H157674   1.245   1.527   1.184  0.8800 -0.5890  1.1300
12061TIP3    H257675   1.140   1.481   1.283 -1.9558  0.1619 -1.3945
12062TIP3   OH257676   0.615   5.110  10.667 -0.5876 -0.3073 -0.1295
12062TIP3    H157677   0.706   5.093  10.645 -0.2559 -0.6185  1.3596
12062TIP3    H257678   0.565   5.048  10.613  0.0090  0.4458 -1.5721
12063TIP3   OH257679   6.131   4.144  12.291 -0.5320  0.7011  0.3552
12063TIP3    H157680   6.094   4.211  12.348  1.1393  2.6686 -0.7615
12063TIP3    H257681   6.219   4.128  12.326 -0.7342 -0.6305  0.3293
12064TIP3   OH257682   3.398   3.337   3.734 -0.7981  0.3222 -0.1497
12064TIP3    H157683   3.354   3.292   3.806  1.5173 -0.7565  0.7005
12064TIP3    H257684   3.373   3.288   3.656 -1.4587  0.0248  0.2439
12065TIP3   OH257685   2.810   1.144  16.795  0.0937 -0.6619  0.3221
12065TIP3    H157686   2.745   1.133  16.864 -2.0865 -0.1572 -1.5216
12065TIP3    H257687   2.828   1.238  16.793 -2.2315 -0.1597 -1.6940
12066TIP3   OH257688   5.569   0.164   5.371  0.1978  0.1412 -0.1127
12066TIP3    H157689   5.607   0.252   5.383 -1.3997  0.8793 -0.2183
12066TIP3    H257690   5.590   0.118   5.452  0.0150  1.0277  0.4511
12067TIP3   OH257691   3.136   4.369   0.221  0.2496 -0.4805 -0.0919
12067TIP3    H157692   3.046   4.345   0.244  0.5757 -0.9443  0.7681
12067TIP3    H257693   3.188   4.337   0.295  0.9926  0.7415 -0.0540
12068TIP3   OH257694   1.523   0.129  12.734  0.2761 -0.4638 -0.3035
12068TIP3    H157695   1.537   0.072  12.659 -3.8407 -2.6493  0.2952
12068TIP3    H257696   1.508   0.069  12.807 -0.3249  1.5071  1.2855
12069TIP3   OH257697   2.297   1.586  11.608  0.3768 -0.2147  0.6218
12069TIP3    H157698   2.263   1.675  11.625  1.1860  0.2189  0.0233
12069TIP3    H257699   2.268   1.535  11.683 -3.3818 -0.4039 -0.7287
12070TIP3   OH257700   1.629   2.347   2.920  0.0503  0.3060  0.3239
12070TIP3    H157701   1.639   2.426   2.868  2.5128  0.8012  1.3867
12070TIP3    H257702   1.592   2.282   2.860  3.8863  0.4512 -2.5492
12071TIP3   OH257703   4.288   4.236   1.921  0.2836  0.5375 -0.0832
12071TIP3    H157704   4.272   4.283   2.003  4.2137 -0.0449  1.2184
12071TIP3    H257705   4.253   4.148   1.938 -0.0829  0.7793  0.4687
12072TIP3   OH257706   1.483   5.485   1.577 -0.2061 -0.2857 -0.2410
12072TIP3    H157707   1.455   5.404   1.533  0.4033 -1.6716  1.7968
12072TIP3    H257708   1.577   5.473   1.591 -0.4802 -0.1833  1.9420
12073TIP3   OH257709   5.326   2.027  13.657 -0.1737 -0.2643  0.1894
12073TIP3    H157710   5.394   2.086  13.690 -0.5792  0.7886 -0.7681
12073TIP3    H257711   5.343   2.021  13.563  0.8426 -3.0367  0.4701
12074TIP3   OH257712   3.006   3.618   2.516  0.1995  0.0843  0.4005
12074TIP3    H157713   2.957   3.555   2.464  1.0942 -0.3146  0.0137
12074TIP3    H257714   2.950   3.695   2.521 -0.4579 -0.3602 -0.0234
12075TIP3   OH257715   5.981   0.116   2.234  0.1379 -0.5293 -0.1413
12075TIP3    H157716   5.998   0.209   2.222 -2.5460 -0.0222 -0.5447
12075TIP3    H257717   5.958   0.084   2.147  0.0198 -1.3589  0.1830
12076TIP3   OH257718   5.159   1.758   5.058 -0.1535  0.0930 -0.1139
12076TIP3    H157719   5.185   1.850   5.064 -0.8999  0.3873 -1.0967
12076TIP3    H257720   5.185   1.732   4.969  0.3220 -0.7363  0.2555
12077TIP3   OH257721   4.300   2.483   0.125  0.5313 -0.4178  0.3198
12077TIP3    H157722   4.230   2.433   0.082  0.3751 -0.5905  0.7739
12077TIP3    H257723   4.274   2.575   0.114  0.4396 -0.4662  0.1352
12078TIP3   OH257724   4.875   5.694   5.885  0.1959  0.4696 -0.7147
12078TIP3    H157725   4.900   5.641   5.961 -0.7477 -0.3568 -0.9578
12078TIP3    H257726   4.827   5.768   5.923  2.0990  1.5811 -0.3201
12079TIP3   OH257727   5.076   5.016  12.854  0.4610 -0.2189 -0.1544
12079TIP3    H157728   5.152   5.044  12.803  0.8484  1.0869  1.0520
12079TIP3    H257729   5.112   4.996  12.941 -0.4245 -0.6549  0.1182
12080TIP3   OH257730   1.193   5.574  16.942  0.3615 -0.0881 -0.3841
12080TIP3    H157731   1.239   5.646  16.898  0.9781  0.0943  0.5205
12080TIP3    H257732   1.221   5.495  16.894  1.1142  0.0945 -0.2684
12081TIP3   OH257733   2.257   1.274   2.604 -1.0034  0.2353 -0.1868
12081TIP3    H157734   2.247   1.221   2.525  0.8507  0.1585 -0.4207
12081TIP3    H257735   2.219   1.359   2.580 -0.7596  0.1082 -1.0655
12082TIP3   OH257736   4.241   5.513   1.647  0.0323  0.1628 -0.1119
12082TIP3    H157737   4.267   5.454   1.719 -0.7045  0.8548  0.7509
12082TIP3    H257738   4.174   5.569   1.686  0.2793  1.1658 -1.0986
12083TIP3   OH257739   1.730   4.096   1.871 -0.6735 -0.3107 -0.4198
12083TIP3    H157740   1.801   4.032   1.880 -0.2465  0.1528 -0.4466
12083TIP3    H257741   1.652   4.049   1.901 -0.1817 -0.4898  0.6287
12084TIP3   OH257742   4.542   0.116   0.540  0.8880 -0.7257 -0.0086
12084TIP3    H157743   4.586   0.043   0.584  1.1305 -0.5716  0.0082
12084TIP3    H257744   4.613   0.175   0.515  0.6301 -0.0989  0.6952
12085TIP3   OH257745   2.594   5.582  14.811 -0.0714 -0.2395 -0.5518
12085TIP3    H157746   2.611   5.633  14.731 -0.1624  0.5926 -0.0491
12085TIP3    H257747   2.631   5.635  14.881 -0.0509 -0.9405 -0.0306
12086TIP3   OH257748   5.775   1.756   0.344  0.4562 -0.3734 -0.1508
12086TIP3    H157749   5.775   1.797   0.430  0.1871 -0.1283 -0.2672
12086TIP3    H257750   5.820   1.673   0.358 -0.2384 -0.6739  0.3867
12087TIP3   OH257751   0.450   4.515  16.390  0.0509 -0.0764 -0.3628
12087TIP3    H157752   0.451   4.580  16.319 -0.6612  0.3807  0.0332
12087TIP3    H257753   0.476   4.565  16.468 -0.2041 -0.3318 -0.1104
12088TIP3   OH257754   2.940   2.129  13.013  0.3976  0.2663 -0.0460
12088TIP3    H157755   3.026   2.098  12.987  1.0541 -0.4945  2.7052
12088TIP3    H257756   2.947   2.224  13.015  0.5324  0.3176 -1.6893
12089TIP3   OH257757   3.711   0.466   2.522  0.1125 -0.3722 -0.2521
12089TIP3    H157758   3.745   0.378   2.503  2.4264  0.2799  0.5441
12089TIP3    H257759   3.744   0.520   2.450 -0.3077  0.0765 -0.1110
12090TIP3   OH257760   0.669   4.367  11.838  0.0443  0.1218  0.2794
12090TIP3    H157761   0.617   4.298  11.879 -0.8588  1.4172  1.3849
12090TIP3    H257762   0.734   4.320  11.786  0.6432 -1.5973  2.4331
12091TIP3   OH257763   1.597   6.632  15.863 -0.4361 -0.3473 -0.8186
12091TIP3    H157764   1.556   6.559  15.816  0.4810 -1.3323 -0.1269
12091TIP3    H257765   1.547   6.639  15.944  0.1234 -0.9005 -0.4192
12092TIP3   OH257766   0.222   5.649  13.825  0.0527 -0.1669  0.1327
12092TIP3    H157767   0.302   5.684  13.864 -0.4778 -0.3449  1.4110
12092TIP3    H257768   0.198   5.575  13.880  0.6921 -2.1070 -2.0562
12093TIP3   OH257769   5.358   4.390   2.790 -0.1237  0.1301 -0.2297
12093TIP3    H157770   5.409   4.461   2.830 -2.2394  0.9857  1.1261
12093TIP3    H257771   5.268   4.423   2.789 -1.0982 -2.3426 -0.0782
12094TIP3   OH257772   6.735   6.137  12.112  0.5262  0.3794  0.4442
12094TIP3    H157773   6.770   6.084  12.040 -3.4056 -1.2166 -0.5638
12094TIP3    H257774   6.722   6.224  12.074 -0.7639 -0.2440 -0.6385
12095TIP3   OH257775   0.515   6.503   3.162  0.0700  0.2168  0.0572
12095TIP3    H157776   0.586   6.440   3.177  0.3961  0.5731  0.0091
12095TIP3    H257777   0.514   6.516   3.067 -0.2866 -0.0433  0.0200
12096TIP3   OH257778   2.616   4.158   1.872 -0.3291 -0.5439 -0.1759
12096TIP3    H157779   2.567   4.226   1.919  0.1927 -0.3041  0.0244
12096TIP3    H257780   2.595   4.173   1.780 -0.4412 -0.2935 -0.1104
12097TIP3   OH257781   5.360   5.602  13.169  0.4282  0.5838  0.4562
12097TIP3    H157782   5.315   5.672  13.217 -0.9811  0.7586 -1.0203
12097TIP3    H257783   5.360   5.528  13.230  0.3690  1.3509  1.4060
12098TIP3   OH257784   6.650   0.121   3.037 -0.5300 -0.0708 -0.2627
12098TIP3    H157785   6.676   0.207   3.005 -2.2756  0.3400 -0.6684
12098TIP3    H257786   6.732   0.077   3.056  0.4070  2.0036  0.8460
12099TIP3   OH257787   2.095   4.882  10.442  0.7579 -0.7070  0.5010
12099TIP3    H157788   2.161   4.824  10.480  1.5862  0.6379  1.1869
12099TIP3    H257789   2.135   4.969  10.446 -1.3895  0.2959  1.7711
12100TIP3   OH257790   5.850   6.787   2.868  0.2914 -0.0672 -0.3199
12100TIP3    H157791   5.884   6.815   2.953 -2.6184 -2.2091  1.7318
12100TIP3    H257792   5.800   6.862   2.836 -0.0411  0.1631  0.7156
12101TIP3   OH257793   0.725   6.492   6.450 -0.8945  0.2639  0.2564
12101TIP3    H157794   0.792   6.556   6.473 -0.2095  0.8299 -2.9259
12101TIP3    H257795   0.642   6.540   6.456 -0.8643  0.1503  2.1286
12102TIP3   OH257796   3.146   3.610  12.515  0.5906  0.0680 -0.1179
12102TIP3    H157797   3.226   3.559  12.531  0.6436  0.0373 -0.4825
12102TIP3    H257798   3.178   3.698  12.492  0.6596 -0.6355 -3.1242
12103TIP3   OH257799   4.099   3.863  17.013 -0.5156  0.7091  0.2470
12103TIP3    H157800   4.005   3.865  17.031 -0.5913 -1.1282  0.2487
12103TIP3    H257801   4.107   3.813  16.932  0.3719  2.3355 -0.7412
12104TIP3   OH257802   6.543   3.471  12.191 -0.0750 -0.1313  0.6975
12104TIP3    H157803   6.624   3.424  12.173 -1.5471 -2.9881  0.7815
12104TIP3    H257804   6.530   3.461  12.285 -0.8236 -0.3181  0.5872
12105TIP3   OH257805   0.573   5.630   2.088  0.2066 -0.0914 -0.2937
12105TIP3    H157806   0.572   5.708   2.033 -1.0866  0.6549  0.7455
12105TIP3    H257807   0.491   5.585   2.067 -0.6856  0.6006  1.5459
12106TIP3   OH257808   6.098   0.289  13.623  0.0428  0.0381  0.2209
12106TIP3    H157809   6.106   0.200  13.659  0.5385  0.3536  0.9206
12106TIP3    H257810   6.159   0.341  13.675 -1.8249  1.2504  1.3109
12107TIP3   OH257811   0.537   3.702   2.477 -0.0243 -0.1062 -0.9829
12107TIP3    H157812   0.631   3.694   2.492 -0.0041 -0.2729 -1.2063
12107TIP3    H257813   0.498   3.631   2.527  0.0977 -1.1447 -2.3123
12108TIP3   OH257814   0.522   1.875  12.202 -0.5906 -0.1299  0.0734
12108TIP3    H157815   0.429   1.873  12.225 -0.2275  0.0371  1.7014
12108TIP3    H257816   0.531   1.946  12.140 -1.6439 -0.5318 -0.5524
12109TIP3   OH257817   6.537   1.369  12.317  0.2522 -0.1322  0.1232
12109TIP3    H157818   6.568   1.315  12.244  1.2022 -0.4690  0.7645
12109TIP3    H257819   6.473   1.428  12.277 -0.0397 -1.0276 -0.7833
12110TIP3   OH257820   0.563   3.241  11.714  0.5969  0.4220 -0.3519
12110TIP3    H157821   0.563   3.220  11.808  1.3251  2.3013  0.1217
12110TIP3    H257822   0.470   3.243  11.690  0.3554  0.7855  0.5612
12111TIP3   OH257823   5.114   1.209  13.565  0.2363 -0.2597  0.1121
12111TIP3    H157824   5.105   1.133  13.623  1.7575 -1.4208 -1.0760
12111TIP3    H257825   5.154   1.173  13.485  0.2705  1.6693 -0.7885
12112TIP3   OH257826   6.158   4.737   4.868  0.2787 -0.2098  0.0810
12112TIP3    H157827   6.183   4.651   4.833  0.4615 -0.1164 -0.0237
12112TIP3    H257828   6.105   4.776   4.799  2.7608  1.0408 -1.2815
12113TIP3   OH257829   6.157   3.045  13.451  0.3942 -0.0904  0.0738
12113TIP3    H157830   6.172   3.107  13.379  0.5511  0.4032  0.5247
12113TIP3    H257831   6.066   3.020  13.442  0.2925  0.3041 -0.0456
12114TIP3   OH257832   4.408   3.793   4.920 -0.4952 -0.4370  0.3231
12114TIP3    H157833   4.325   3.816   4.877  0.7224 -0.2332 -2.0786
12114TIP3    H257834   4.383   3.727   4.985 -2.7461  0.8070  0.8503
12115TIP3   OH257835   2.225   6.527  13.967 -0.1820 -0.3704  0.0346
12115TIP3    H157836   2.267   6.567  14.043 -0.4332  0.0455 -0.0424
12115TIP3    H257837   2.157   6.471  14.004 -0.6568  0.2440  0.1010
12116TIP3   OH257838   6.842   5.051  16.596  0.2989 -0.0862  0.3943
12116TIP3    H157839   6.923   5.062  16.646 -0.5677 -0.3564  1.9032
12116TIP3    H257840   6.806   4.968  16.626  0.5430 -1.0921 -1.8925
12117TIP3   OH257841   2.137   0.879   5.806 -0.1324  0.0891 -0.0583
12117TIP3    H157842   2.222   0.836   5.811  0.1730  0.7761  1.2697
12117TIP3    H257843   2.073   0.812   5.830  0.2982  0.2223  1.5754
12118TIP3   OH257844   2.485   3.993  16.753  0.2304  0.0450  0.2145
12118TIP3    H157845   2.534   4.063  16.710 -1.2991  0.7126 -0.5356
12118TIP3    H257846   2.490   4.015  16.846 -0.6917  1.5131 -0.0487
12119TIP3   OH257847   3.408   0.068   4.218 -0.1888  0.1343  0.6623
12119TIP3    H157848   3.352  -0.009   4.218  1.1073 -0.8765 -0.7277
12119TIP3    H257849   3.466   0.055   4.142  2.3372  0.7685  2.3640
12120TIP3   OH257850   0.052   6.679   3.317  0.0363 -0.0083 -0.8720
12120TIP3    H157851   0.124   6.623   3.290  0.9060  0.6450  0.0627
12120TIP3    H257852   0.039   6.739   3.242 -0.4952 -1.0272 -1.6168
12121TIP3   OH257853   1.689   4.168  14.247  0.0974 -0.3595 -0.1040
12121TIP3    H157854   1.769   4.116  14.248 -1.0980 -2.2763  1.4169
12121TIP3    H257855   1.671   4.188  14.338 -1.0539  0.2162 -0.4314
12122TIP3   OH257856   3.280   2.800   4.343  0.2450  0.2403  0.0339
12122TIP3    H157857   3.302   2.713   4.377 -1.2812  0.1731  0.9120
12122TIP3    H257858   3.337   2.860   4.391  0.3781 -0.1512  0.3700
12123TIP3   OH257859   6.250   5.871  14.979 -0.5070 -0.1665  0.1413
12123TIP3    H157860   6.300   5.794  14.951  0.2065 -0.6855  2.5894
12123TIP3    H257861   6.316   5.931  15.013 -1.2821  0.5614  0.3966
12124TIP3   OH257862   5.036   2.648  10.769 -0.3810  0.0812  0.4588
12124TIP3    H157863   5.120   2.643  10.724 -0.2173 -1.4441  0.8658
12124TIP3    H257864   5.051   2.708  10.842  0.1150  0.4316  0.0789
12125TIP3   OH257865   0.839   6.755   5.480  0.0683 -0.2402  0.3516
12125TIP3    H157866   0.934   6.758   5.464 -0.0365 -1.4569 -0.6339
12125TIP3    H257867   0.804   6.828   5.428  0.5436  0.9033  1.5747
12126TIP3   OH257868   0.017   4.534  14.641 -0.0919  0.4609 -0.8251
12126TIP3    H157869   0.017   4.475  14.716 -0.8610  0.9890 -0.3975
12126TIP3    H257870   0.109   4.555  14.627 -0.0409  1.7271  1.0792
12127TIP3   OH257871   0.543   4.379  14.154  0.0114  0.2267 -0.0036
12127TIP3    H157872   0.587   4.352  14.234  3.3007  0.8055 -1.4740
12127TIP3    H257873   0.497   4.300  14.124  0.5485 -0.6040  1.3082
12128TIP3   OH257874   0.807   1.931   4.615  0.2018 -0.5010  0.0952
12128TIP3    H157875   0.747   1.990   4.570 -0.9976 -1.5473  0.2587
12128TIP3    H257876   0.754   1.854   4.636  1.3796 -1.0939  1.0504
12129TIP3   OH257877   0.740   3.097  12.976  0.0757  0.4668 -0.0476
12129TIP3    H157878   0.720   3.185  12.943  0.3838  0.4057 -0.4056
12129TIP3    H257879   0.835   3.094  12.980  0.1132 -0.2484 -1.1468
12130TIP3   OH257880   2.811   1.536  10.739 -0.3563  0.1949 -0.0852
12130TIP3    H157881   2.775   1.572  10.658  0.1527  1.2475  0.1471
12130TIP3    H257882   2.896   1.501  10.713  0.1308  1.2003  0.1349
12131TIP3   OH257883   3.331   5.443  15.606  0.2133 -0.4601 -0.4636
12131TIP3    H157884   3.394   5.382  15.645 -0.0607 -1.0548 -0.9383
12131TIP3    H257885   3.248   5.396  15.607 -1.1083  1.5070  3.3117
12132TIP3   OH257886   0.876   3.633  15.939 -0.0923 -0.2037  0.2577
12132TIP3    H157887   0.805   3.595  15.991 -0.2350 -0.1207  0.1234
12132TIP3    H257888   0.942   3.659  16.004 -0.5624  0.5242  0.4577
12133TIP3   OH257889   1.113   3.548  15.604 -0.1597  0.0972 -0.0637
12133TIP3    H157890   1.207   3.538  15.590  0.1806  2.3411  0.2167
12133TIP3    H257891   1.099   3.515  15.693  0.5620  0.7297  0.2954
12134TIP3   OH257892   0.380   1.491   0.315 -0.5072  0.0723 -0.2853
12134TIP3    H157893   0.325   1.421   0.351  0.0336 -1.0154 -1.4675
12134TIP3    H257894   0.466   1.477   0.353 -0.6864  0.8822  0.4402
12135TIP3   OH257895   4.554   0.854  13.918 -0.1441 -0.2039 -0.3307
12135TIP3    H157896   4.590   0.776  13.961  2.0118  1.0471  0.2590
12135TIP3    H257897   4.459   0.848  13.934 -0.1287 -2.9330 -0.7469
12136TIP3   OH257898   3.555   5.413  16.246  0.0042 -0.1626  0.5297
12136TIP3    H157899   3.534   5.373  16.330  0.1886  1.6468  1.5003
12136TIP3    H257900   3.524   5.504  16.255  0.6026  0.2342 -1.1171
12137TIP3   OH257901   6.704   5.447  14.314 -0.0301  0.2763  0.0992
12137TIP3    H157902   6.655   5.406  14.385  2.9493 -2.0401  0.9943
12137TIP3    H257903   6.725   5.534  14.347  0.2451 -0.3184  1.5690
12138TIP3   OH257904   3.435   5.878  12.222  0.0273 -0.0143 -0.2245
12138TIP3    H157905   3.454   5.787  12.242  2.2003 -0.0859 -2.1352
12138TIP3    H257906   3.469   5.927  12.297 -0.4379 -0.7159  0.4520
12139TIP3   OH257907   0.218   1.407  13.514  0.0173 -0.3873  0.4322
12139TIP3    H157908   0.294   1.351  13.526  0.8492  0.5222 -0.4135
12139TIP3    H257909   0.206   1.412  13.419 -0.5087  0.2352  0.5205
12140TIP3   OH257910   2.653   6.616   2.885  0.2332 -0.1626  0.0779
12140TIP3    H157911   2.663   6.592   2.793  0.1327  0.8399 -0.2088
12140TIP3    H257912   2.732   6.583   2.927 -0.4764 -2.1346 -0.0183
12141TIP3   OH257913   1.831   4.691   2.839 -0.3283 -0.5246  0.6319
12141TIP3    H157914   1.867   4.648   2.916  1.7603 -0.3208 -0.1557
12141TIP3    H257915   1.907   4.708   2.783 -1.7735 -0.8587 -1.5836
12142TIP3   OH257916   3.162   4.955  13.936 -0.8992 -0.3319 -0.2972
12142TIP3    H157917   3.210   5.019  13.989  1.0218 -1.8744 -0.0496
12142TIP3    H257918   3.168   4.989  13.846 -1.4183  0.6950  0.0445
12143TIP3   OH257919   2.889   4.975  16.690 -0.4572 -0.5868 -0.1024
12143TIP3    H157920   2.892   4.900  16.630 -1.1551 -0.2771 -0.5350
12143TIP3    H257921   2.948   4.950  16.762 -0.5949 -1.5024 -0.2873
12144TIP3   OH257922   4.985   1.172   5.602 -0.2721 -0.2267  0.0417
12144TIP3    H157923   5.032   1.154   5.520 -1.5234 -0.4569 -0.6543
12144TIP3    H257924   4.973   1.086   5.642 -2.7494 -0.6016 -1.3159
12145TIP3   OH257925   1.905   4.074  11.353 -0.1470 -0.2295 -0.0736
12145TIP3    H157926   1.844   4.115  11.415 -1.1119  0.0975 -1.2051
12145TIP3    H257927   1.921   3.988  11.390  0.6810  0.5636  1.5318
12146TIP3   OH257928   0.510   3.303  15.834  0.2656  0.1707  0.1203
12146TIP3    H157929   0.587   3.322  15.888 -0.8612  0.1183  1.8094
12146TIP3    H257930   0.478   3.219  15.867 -0.5880  0.2541 -0.4687
12147TIP3   OH257931   3.945   5.313   4.487 -0.1301 -0.2123  0.3353
12147TIP3    H157932   3.926   5.225   4.519  0.4622 -0.4382  0.0774
12147TIP3    H257933   3.862   5.343   4.450  0.2189 -1.5858 -1.7364
12148TIP3   OH257934   1.327   0.769   4.992  0.2806 -0.3843  0.4573
12148TIP3    H157935   1.291   0.687   5.026 -0.6046 -0.2988 -0.2393
12148TIP3    H257936   1.266   0.836   5.021 -0.2935 -0.2670 -0.9569
12149TIP3   OH257937   0.351   4.930   4.873  1.1897  0.6860  0.0306
12149TIP3    H157938   0.328   4.841   4.845 -0.1631  0.6967  0.9961
12149TIP3    H257939   0.446   4.929   4.884  1.0732 -0.9595  1.0943
12150TIP3   OH257940   0.403   5.272   0.701 -0.0555 -0.6798  0.0011
12150TIP3    H157941   0.377   5.186   0.734  0.0732 -1.5243 -1.9965
12150TIP3    H257942   0.476   5.254   0.642  0.6022  0.9227  0.2723
12151TIP3   OH257943   1.415   2.061  14.075  0.4479 -0.2891 -0.3669
12151TIP3    H157944   1.441   2.069  14.167  0.1758 -0.3515 -0.2824
12151TIP3    H257945   1.452   1.977  14.047  1.6083  0.2983 -0.6819
12152TIP3   OH257946   5.621   5.958   2.438  1.3272 -0.2982 -0.3786
12152TIP3    H157947   5.567   5.888   2.404  1.2207  0.6039 -2.1974
12152TIP3    H257948   5.559   6.026   2.465  1.4664 -0.4472  0.3363
12153TIP3   OH257949   3.850   0.216   2.505  0.0722  0.3778  0.1247
12153TIP3    H157950   3.928   0.172   2.472 -0.8818 -0.2806 -1.3052
12153TIP3    H257951   3.797   0.233   2.428 -1.3858  0.4868  1.1135
12154TIP3   OH257952   5.665   1.359  17.126 -0.2451  0.4067 -0.3103
12154TIP3    H157953   5.572   1.347  17.145 -1.0072  0.2166 -3.6486
12154TIP3    H257954   5.692   1.277  17.085  1.0943  0.9084 -0.4653
12155TIP3   OH257955   4.503   2.421  11.998 -0.6993 -0.3436 -0.0558
12155TIP3    H157956   4.515   2.388  11.909 -0.1028 -2.0559  0.6228
12155TIP3    H257957   4.409   2.431  12.008 -0.8466 -1.2106 -0.5183
12156TIP3   OH257958   5.995   0.912   1.588 -0.1283  0.2036 -0.2357
12156TIP3    H157959   5.900   0.922   1.592 -0.3578 -1.0478 -1.6668
12156TIP3    H257960   6.009   0.817   1.582  1.1119  0.4318 -1.5335
12157TIP3   OH257961   3.410   2.340  13.882 -0.6171 -0.0199 -0.3560
12157TIP3    H157962   3.324   2.345  13.841 -0.6084 -1.2758 -0.5806
12157TIP3    H257963   3.394   2.344  13.976 -0.6823  2.3546 -0.4011
12158TIP3   OH257964   4.298   6.626   1.465  0.7507  0.0370 -0.6086
12158TIP3    H157965   4.376   6.662   1.423  0.4744  0.4872 -0.7473
12158TIP3    H257966   4.233   6.696   1.459  0.9021  0.3917  1.1560
12159TIP3   OH257967   0.847   3.575  14.491  0.0545  0.0963  0.1447
12159TIP3    H157968   0.781   3.605  14.429  1.6779  1.7311 -0.8841
12159TIP3    H257969   0.799   3.517  14.551 -2.1969  0.9225 -0.7554
12160TIP3   OH257970   0.136   0.777  14.753  0.5948 -0.0474 -0.5255
12160TIP3    H157971   0.217   0.791  14.704  0.5763  0.3810 -0.4351
12160TIP3    H257972   0.134   0.682  14.769  0.6467 -0.1769 -1.2677
12161TIP3   OH257973   3.802   5.338   6.067  0.2625 -0.3857 -0.7640
12161TIP3    H157974   3.860   5.270   6.102  1.7130  1.0623 -0.2365
12161TIP3    H257975   3.850   5.419   6.081 -3.0139  1.2502  2.2215
12162TIP3   OH257976   6.407   5.560   1.693 -0.4094  0.1305 -0.2949
12162TIP3    H157977   6.409   5.507   1.772  2.7701  0.6674  0.0846
12162TIP3    H257978   6.403   5.496   1.621  0.4240 -0.5120  0.2179
12163TIP3   OH257979   3.053   4.336  12.117 -0.4431 -0.3283  0.4273
12163TIP3    H157980   3.108   4.320  12.040  0.5508 -0.6424  1.1742
12163TIP3    H257981   3.073   4.426  12.142  0.5512 -0.7593  1.2966
12164TIP3   OH257982   6.073   3.923   1.438 -0.1005  0.1278 -0.0895
12164TIP3    H157983   6.061   3.868   1.516 -0.7888  0.0285 -0.2565
12164TIP3    H257984   6.024   3.877   1.370 -1.0264  1.1557 -0.1376
12165TIP3   OH257985   4.847   2.673  16.351 -0.2831 -0.6328 -0.6741
12165TIP3    H157986   4.871   2.632  16.268  1.6810 -3.7116  1.2406
12165TIP3    H257987   4.898   2.626  16.417 -1.6848  1.7173  2.3234
12166TIP3   OH257988   4.907   4.741   0.635 -0.3269 -0.2246  0.4691
12166TIP3    H157989   4.854   4.749   0.714 -2.4880 -1.4672 -0.7870
12166TIP3    H257990   4.972   4.674   0.657 -1.2422 -0.9558  1.0163
12167TIP3   OH257991   0.732   3.428   0.795  0.5466  0.0781  0.0701
12167TIP3    H157992   0.821   3.451   0.822  0.7319  1.2618 -1.4263
12167TIP3    H257993   0.707   3.496   0.733 -1.3123 -0.3951  0.2307
12168TIP3   OH257994   6.480   4.113  15.043  0.0750  0.2902  0.0919
12168TIP3    H157995   6.572   4.089  15.049 -0.0879 -0.1422  1.4187
12168TIP3    H257996   6.437   4.036  15.006  0.2079  0.3622 -0.2083
12169TIP3   OH257997   6.481   3.340  15.359  0.1746  0.0594 -0.0309
12169TIP3    H157998   6.399   3.390  15.367  0.7148  0.7931  1.2266
12169TIP3    H257999   6.549   3.407  15.348  0.8962 -0.3626  1.4981
12170TIP3   OH258000   5.854   6.216  14.588  0.1254  0.1663 -0.1419
12170TIP3    H158001   5.847   6.311  14.599  0.4621  0.2870 -0.9109
12170TIP3    H258002   5.923   6.191  14.650 -1.6821  0.0260  1.9554
12171TIP3   OH258003   3.792   0.337  14.272 -0.0489  0.3680 -0.6285
12171TIP3    H158004   3.733   0.389  14.217  0.7555  0.2801 -1.5923
12171TIP3    H258005   3.775   0.246  14.246 -0.1432  0.2732 -0.2453
12172TIP3   OH258006   6.529   5.246   1.050  0.0959 -0.0607  0.0907
12172TIP3    H158007   6.547   5.154   1.067  0.6982  0.1574  0.6913
12172TIP3    H258008   6.614   5.289   1.058 -0.2297  0.5881  0.1137
12173TIP3   OH258009   4.789   4.814   5.659  0.2528 -0.1868 -0.5310
12173TIP3    H158010   4.780   4.722   5.631  2.8018 -0.1876 -1.5368
12173TIP3    H258011   4.716   4.858   5.616 -1.1403 -1.7275  0.1107
12174TIP3   OH258012   6.353   2.593  15.537  0.5725  0.0738  0.3167
12174TIP3    H158013   6.264   2.608  15.568  0.5771  3.3887 -0.9386
12174TIP3    H258014   6.343   2.567  15.446  0.8931  1.9228 -0.2699
12175TIP3   OH258015   4.945   5.316   4.472 -0.1519  0.5878 -0.3525
12175TIP3    H158016   4.862   5.345   4.434  0.1295  1.4655 -0.3196
12175TIP3    H258017   5.000   5.296   4.396 -0.2317  0.4751 -0.3807
12176TIP3   OH258018   5.302   0.955   0.033 -0.2520 -0.1954  0.1550
12176TIP3    H158019   5.291   1.020   0.103  0.6854  0.1161  0.0282
12176TIP3    H258020   5.215   0.947  -0.005 -0.5989  0.2569  0.8106
12177TIP3   OH258021   2.136   5.857   3.825 -0.2747 -0.2469  0.3891
12177TIP3    H158022   2.075   5.853   3.899 -0.8578 -0.7779 -0.1188
12177TIP3    H258023   2.191   5.933   3.844 -0.8140 -0.0168  1.0643
12178TIP3   OH258024   3.795   2.835  14.264 -0.4412 -0.0639  0.3956
12178TIP3    H158025   3.699   2.836  14.259 -0.3903 -0.4478 -0.9908
12178TIP3    H258026   3.821   2.925  14.246 -0.4740 -0.4245 -1.6461
12179TIP3   OH258027   4.994   4.427   4.695  0.8297 -0.7127  0.2547
12179TIP3    H158028   4.974   4.334   4.686  0.5985 -0.8172  1.6707
12179TIP3    H258029   5.001   4.441   4.789 -2.2195  1.2918  0.3378
12180TIP3   OH258030   5.498   3.018   4.253  0.4833 -0.5200 -0.0208
12180TIP3    H158031   5.537   3.046   4.337 -0.4631  1.8056 -0.2749
12180TIP3    H258032   5.430   2.955   4.278  1.1444 -0.9287  0.8202
12181TIP3   OH258033   0.740   0.867  14.656 -0.5381 -0.1013 -0.2006
12181TIP3    H158034   0.648   0.856  14.678 -0.6978 -0.6854 -1.1227
12181TIP3    H258035   0.787   0.822  14.726 -0.9956 -0.8344 -0.3526
12182TIP3   OH258036   6.000   6.180  10.982 -0.4473 -0.0810 -0.1587
12182TIP3    H158037   5.995   6.086  11.001 -3.9015  0.1269  0.5529
12182TIP3    H258038   5.918   6.200  10.938  1.1646  2.2706 -2.3646
12183TIP3   OH258039   0.492   4.161   1.671 -0.3384  0.0721  0.0179
12183TIP3    H158040   0.513   4.106   1.746 -1.9588 -2.0879 -1.0183
12183TIP3    H258041   0.552   4.235   1.679  1.3063 -1.3462  2.0030
12184TIP3   OH258042   2.994   2.350  14.265  0.6036 -0.6682 -0.1302
12184TIP3    H158043   2.955   2.335  14.179 -1.5250  1.3967  0.3639
12184TIP3    H258044   3.022   2.442  14.263  0.2728 -0.5055  1.4487
12185TIP3   OH258045   0.162   3.374   2.692 -0.2933 -0.1128  0.2433
12185TIP3    H158046   0.180   3.468   2.700  2.0396 -0.6229  1.7466
12185TIP3    H258047   0.105   3.368   2.615 -2.0078  2.6755  1.1384
12186TIP3   OH258048   4.084   4.398  15.064  0.0924 -0.4224 -0.3466
12186TIP3    H158049   4.105   4.443  14.982 -1.3143 -1.1706 -1.1627
12186TIP3    H258050   4.141   4.439  15.129 -0.5573  2.0072 -1.1740
12187TIP3   OH258051   6.399   5.047   2.023 -0.0534 -0.2494 -0.4158
12187TIP3    H158052   6.360   4.995   1.952 -0.5947 -2.6774  1.5206
12187TIP3    H258053   6.453   4.984   2.071  1.1076  1.5707  0.7676
12188TIP3   OH258054   5.779   3.666   3.053  0.5186 -0.0513  0.0290
12188TIP3    H158055   5.687   3.641   3.063  0.4340  0.5324  0.7949
12188TIP3    H258056   5.822   3.588   3.018  0.2495 -1.2683  2.2548
12189TIP3   OH258057   1.700   3.972   0.855 -0.3769  0.1647 -0.3697
12189TIP3    H158058   1.716   4.066   0.848  1.0362 -0.0264 -0.0646
12189TIP3    H258059   1.679   3.957   0.947  1.9976 -0.1238  0.1978
12190TIP3   OH258060   3.093   4.948  14.614 -0.4591  0.0517  0.3626
12190TIP3    H158061   3.033   4.875  14.626 -0.2299 -0.3074 -0.6385
12190TIP3    H258062   3.044   5.024  14.646 -1.2668 -0.3066  0.0102
12191TIP3   OH258063   1.496   0.269   5.813  0.2042  0.3268 -0.3068
12191TIP3    H158064   1.503   0.192   5.869 -0.5701 -0.2836 -1.0242
12191TIP3    H258065   1.582   0.311   5.819 -0.2114  1.0025  2.3195
12192TIP3   OH258066   2.153   3.058   0.865  0.1666  0.0473  0.0203
12192TIP3    H158067   2.059   3.052   0.849 -0.0132  2.8505 -0.4099
12192TIP3    H258068   2.183   3.129   0.809  2.1884  0.5264  1.5767
12193TIP3   OH258069   6.853   3.637  16.083  0.1202 -0.2199  0.1285
12193TIP3    H158070   6.884   3.557  16.041 -0.3429 -0.4852  0.2845
12193TIP3    H258071   6.926   3.698  16.077  0.3438 -0.5342 -0.3209
12194TIP3   OH258072   4.532   2.326  16.334  0.0072  0.1068  0.5200
12194TIP3    H158073   4.540   2.413  16.373 -1.2787  0.1457  0.7563
12194TIP3    H258074   4.535   2.265  16.408 -1.2139  0.1052  0.5961
12195TIP3   OH258075   0.294   4.317   0.673  0.6663  0.3499  0.7637
12195TIP3    H158076   0.276   4.312   0.767  1.4371 -1.5853  0.8637
12195TIP3    H258077   0.218   4.276   0.632  2.3652 -3.4031  0.9198
12196TIP3   OH258078   5.905   5.827   2.219  0.1997  0.3216 -0.5352
12196TIP3    H158079   5.943   5.856   2.136 -0.0425  1.5281 -0.2453
12196TIP3    H258080   5.979   5.810   2.276  0.3550  1.5952 -0.3242
12197TIP3   OH258081   0.981   4.583   0.364 -0.5918 -0.0850  0.0739
12197TIP3    H158082   1.020   4.532   0.435 -0.3473  1.4172  1.0564
12197TIP3    H258083   0.981   4.523   0.290 -1.7483 -2.0318  1.5589
12198TIP3   OH258084   1.800   3.909  13.933  0.0793  0.1353  0.1788
12198TIP3    H158085   1.804   3.819  13.965 -0.9241  0.5206  1.4797
12198TIP3    H258086   1.768   3.901  13.843 -1.3999 -0.7566  0.7423
12199TIP3   OH258087   6.005   0.123   6.177 -0.2336 -0.1329  0.2898
12199TIP3    H158088   5.930   0.123   6.119  1.3510 -0.2669 -1.8822
12199TIP3    H258089   5.969   0.100   6.263 -2.4458 -1.5601 -0.9276
12200TIP3   OH258090   5.689   1.575  13.820  0.1904  0.3944 -0.0217
12200TIP3    H158091   5.627   1.645  13.799 -0.5429 -0.3469 -0.3318
12200TIP3    H258092   5.635   1.497  13.834  0.7728  0.3584  2.6694
12201TIP3   OH258093   6.774   2.900   0.597 -0.0132 -0.2140 -0.3624
12201TIP3    H158094   6.797   2.934   0.511  1.1557  1.2165  0.4625
12201TIP3    H258095   6.809   2.965   0.659 -1.5743 -0.7485  1.1697
12202TIP3   OH258096   3.983   3.007   0.234  0.1637 -0.4546 -0.1668
12202TIP3    H158097   3.891   3.032   0.226  0.1169 -0.0770  1.3853
12202TIP3    H258098   4.015   3.006   0.143 -1.3572 -0.6097 -0.7302
12203TIP3   OH258099   4.541   4.538   5.722 -0.0141  0.5391  0.0297
12203TIP3    H158100   4.473   4.593   5.683 -0.2174 -0.2123 -0.7141
12203TIP3    H258101   4.511   4.523   5.811 -0.7751  0.3065 -0.2574
12204TIP3   OH258102   1.509   0.986  14.284  0.4548 -0.8049 -0.0218
12204TIP3    H158103   1.430   0.978  14.230 -0.7298 -1.6550  1.7610
12204TIP3    H258104   1.483   0.954  14.370  2.0605  1.2123  1.3076
12205TIP3   OH258105   4.892   4.005   2.719 -0.5084  0.0130  0.1028
12205TIP3    H158106   4.896   3.978   2.811  0.6631 -0.3078 -0.0253
12205TIP3    H258107   4.799   4.003   2.698 -0.8681  0.7241  1.4648
12206TIP3   OH258108   6.466   6.135  12.417  0.1062  0.4730 -0.0105
12206TIP3    H158109   6.554   6.105  12.393 -0.1381 -1.3027  1.0818
12206TIP3    H258110   6.481   6.210  12.475  0.9578 -0.3645  0.8865
12207TIP3   OH258111   1.078   5.188   4.341 -0.4007  0.2971  0.3845
12207TIP3    H158112   0.990   5.152   4.328  1.4239 -4.6862 -0.6925
12207TIP3    H258113   1.124   5.170   4.259  1.9717  1.4848  1.3446
12208TIP3   OH258114   0.812   6.303  14.195  0.0209 -0.0663  0.0148
12208TIP3    H158115   0.839   6.251  14.120 -2.3718 -0.0584 -0.9440
12208TIP3    H258116   0.765   6.242  14.252 -1.8067  0.7286 -0.5691
12209TIP3   OH258117   5.181   1.054  15.455  0.0035  0.4638 -0.2699
12209TIP3    H158118   5.248   0.995  15.422 -0.2983  0.1713 -0.3666
12209TIP3    H258119   5.185   1.130  15.397  1.2276  1.0966  0.5924
12210TIP3   OH258120   6.417   6.069   5.514  0.0842  0.7233  0.2754
12210TIP3    H158121   6.488   6.118   5.556  1.8646 -2.8034  1.8367
12210TIP3    H258122   6.351   6.058   5.583  0.5205 -0.5036  0.5178
12211TIP3   OH258123   2.273   5.474  10.598  0.3697 -0.7320  0.2479
12211TIP3    H158124   2.179   5.459  10.606  0.1895 -0.2502 -0.8418
12211TIP3    H258125   2.289   5.553  10.650 -0.1734  0.3058 -1.1022
12212TIP3   OH258126   5.994   5.439   2.040  0.0117  0.0248  0.5977
12212TIP3    H158127   6.029   5.354   2.014 -0.7983 -0.4207  0.9191
12212TIP3    H258128   6.057   5.503   2.007 -0.6916 -0.5149 -2.0558
12213TIP3   OH258129   0.443   0.736   3.303 -0.0354 -0.2927 -0.2099
12213TIP3    H158130   0.443   0.747   3.208  2.4396  0.7386 -0.1466
12213TIP3    H258131   0.443   0.642   3.317  0.6087 -0.4578 -1.2660
12214TIP3   OH258132   3.858   1.068  12.992  0.2387  0.6399 -0.0619
12214TIP3    H158133   3.910   1.038  13.068  0.7938 -0.7227 -0.9368
12214TIP3    H258134   3.792   1.000  12.980 -2.2716  2.6264  1.3898
12215TIP3   OH258135   1.625   5.518   4.261  0.0877 -0.4548  0.1662
12215TIP3    H158136   1.569   5.594   4.277  0.4020 -0.6875  2.7270
12215TIP3    H258137   1.714   5.553   4.256  0.1310 -0.5361  0.3461
12216TIP3   OH258138   1.905   2.177   5.238  0.5360 -0.1053  0.0318
12216TIP3    H158139   1.982   2.120   5.242  0.5447 -0.1267 -0.3957
12216TIP3    H258140   1.856   2.145   5.162  1.3302  1.4282 -1.1824
12217TIP3   OH258141   0.469   4.045  11.239 -0.6365  0.1656  0.2801
12217TIP3    H158142   0.397   4.053  11.301 -1.7602 -1.6245 -0.6938
12217TIP3    H258143   0.430   4.065  11.154  1.1221  3.6472  0.1219
12218TIP3   OH258144   4.055   4.527   0.464  0.1238 -0.5421 -0.1598
12218TIP3    H158145   4.050   4.450   0.407  0.1364 -0.6048 -0.0761
12218TIP3    H258146   3.965   4.540   0.494  0.5383 -2.1517  1.9875
12219TIP3   OH258147   2.588   2.269   0.545  0.4584  0.4539 -0.3519
12219TIP3    H158148   2.647   2.208   0.501  0.5446 -0.6132  1.1940
12219TIP3    H258149   2.638   2.303   0.619 -0.1433  1.1736 -0.2659
12220TIP3   OH258150   3.611   1.929  14.913  0.0307 -0.3309  0.1069
12220TIP3    H158151   3.601   2.009  14.861 -0.9066 -1.8830 -2.2797
12220TIP3    H258152   3.656   1.958  14.992  0.5214  2.4015 -1.0354
12221TIP3   OH258153   3.622   1.583   4.293 -0.8318 -0.6436  0.0758
12221TIP3    H158154   3.659   1.514   4.349  2.0440  0.4339 -0.3035
12221TIP3    H258155   3.598   1.537   4.212  1.3860 -1.2599 -0.3214
12222TIP3   OH258156   1.627   4.098  13.695  0.3358  0.2754  0.1193
12222TIP3    H158157   1.625   4.161  13.767  1.1834 -2.6029  2.8716
12222TIP3    H258158   1.715   4.106  13.658  0.4449  0.6607  0.4545
12223TIP3   OH258159   1.827   1.042  15.466 -0.1069  0.2088  0.5347
12223TIP3    H158160   1.755   1.103  15.484 -1.4329 -0.7279 -1.3051
12223TIP3    H258161   1.792   0.982  15.400  2.3836 -0.2673 -0.4653
12224TIP3   OH258162   6.200   1.795  13.242  0.9160  0.6134 -0.2698
12224TIP3    H158163   6.287   1.768  13.212  0.5934  1.2076 -1.8523
12224TIP3    H258164   6.160   1.836  13.165 -1.0375 -0.2845  0.2157
12225TIP3   OH258165   1.622   2.699  13.932  0.0042 -0.0715  0.3232
12225TIP3    H158166   1.694   2.761  13.917 -0.8710  0.5276 -1.6947
12225TIP3    H258167   1.543   2.753  13.929 -0.6732 -1.0325  0.3631
12226TIP3   OH258168   1.113   2.880  13.580  0.1448  0.4988  0.0688
12226TIP3    H158169   1.026   2.870  13.618  0.1198  0.1822 -0.0708
12226TIP3    H258170   1.121   2.807  13.519  1.0503 -0.2779  1.0998
12227TIP3   OH258171   0.635   2.928  16.791  0.4115 -0.5048 -0.4369
12227TIP3    H158172   0.724   2.913  16.822  0.9031  0.2208 -1.4334
12227TIP3    H258173   0.645   2.939  16.696 -0.6604  0.2002 -0.4752
12228TIP3   OH258174   5.266   3.312   5.002 -0.0602  0.0724 -0.2063
12228TIP3    H158175   5.177   3.347   5.013  0.2444  0.4560  1.1803
12228TIP3    H258176   5.253   3.219   4.986 -0.7274  0.1981 -0.4406
12229TIP3   OH258177   6.846   5.178   4.371 -0.1775  0.2078 -0.1726
12229TIP3    H158178   6.917   5.114   4.374  0.0483  0.4956  1.5671
12229TIP3    H258179   6.875   5.242   4.306  1.0323  0.1567  0.2902
12230TIP3   OH258180   0.398   2.300  17.078 -0.5527 -0.1020 -0.7385
12230TIP3    H158181   0.310   2.295  17.115 -1.0363  1.6091 -1.5110
12230TIP3    H258182   0.454   2.253  17.140 -1.7052  0.5426  0.8586
12231TIP3   OH258183   6.497   4.558  17.074  0.4111  0.2916  0.6474
12231TIP3    H158184   6.442   4.628  17.107  0.6497 -0.6712  3.3133
12231TIP3    H258185   6.505   4.576  16.980  0.1924  3.5980  1.1459
12232TIP3   OH258186   3.661   3.980   7.828 -0.1119 -0.0704 -0.0303
12232TIP3    H158187   3.661   4.056   7.770  1.2798  1.1723  1.4877
12232TIP3    H258188   3.717   3.916   7.784  1.1910  0.9724  0.0515
12233TIP3   OH258189   1.095   3.822   0.078  1.0382  0.0573  0.8677
12233TIP3    H158190   1.128   3.809   0.167  0.5620  0.1498  1.0637
12233TIP3    H258191   1.047   3.905   0.082 -0.6542 -0.8715  1.0358
12234TIP3   OH258192   4.109   3.625   3.262 -0.3344  0.4368 -0.0033
12234TIP3    H158193   4.042   3.689   3.281 -0.0598  0.4949  0.8130
12234TIP3    H258194   4.191   3.669   3.284 -0.1367 -0.1430  0.4528
12235TIP3   OH258195   2.736   2.870  12.947 -0.6355 -0.8099  0.0961
12235TIP3    H158196   2.710   2.779  12.957 -3.3495 -0.3081 -1.2705
12235TIP3    H258197   2.733   2.886  12.852 -0.5988  0.7678  0.3283
12236TIP3   OH258198   3.544   3.044   0.749 -0.7355 -0.5569  0.4427
12236TIP3    H158199   3.576   3.119   0.698 -2.3596  0.5332  0.9748
12236TIP3    H258200   3.611   3.031   0.816  0.8263 -1.2349 -1.1658
12237TIP3   OH258201   1.145   4.778   4.596 -0.7788  0.4005  0.8117
12237TIP3    H158202   1.195   4.801   4.518 -1.8115  1.9322  0.5492
12237TIP3    H258203   1.162   4.850   4.658  0.0115 -0.7786  2.0110
12238TIP3   OH258204   2.798   0.459   1.197  0.3284  0.4653  0.6425
12238TIP3    H158205   2.855   0.385   1.218 -1.3261 -1.0150  0.1463
12238TIP3    H258206   2.855   0.522   1.154  1.5681 -1.0079  0.0470
12239TIP3   OH258207   3.489   2.210   0.955 -0.0665 -0.4558  0.3036
12239TIP3    H158208   3.541   2.143   0.999 -1.3245 -1.2676  0.6128
12239TIP3    H258209   3.434   2.247   1.024 -0.4449 -0.1577 -0.1477
12240TIP3   OH258210   4.018   3.627  13.535  0.0169 -0.1889  0.0773
12240TIP3    H158211   3.978   3.544  13.563 -0.8520  0.3270  0.3951
12240TIP3    H258212   4.112   3.613  13.548 -0.2251 -0.5886  1.6055
12241TIP3   OH258213   1.656   0.972   3.115  0.5915 -0.5567 -0.8474
12241TIP3    H158214   1.718   0.987   3.186  1.4205  0.1891 -1.7036
12241TIP3    H258215   1.623   1.059   3.092  0.2882 -0.7906 -1.3242
12242TIP3   OH258216   4.733   5.972  11.426  0.3852  0.4787  0.6301
12242TIP3    H158217   4.749   5.921  11.347 -2.9954  2.0563 -1.3115
12242TIP3    H258218   4.660   5.927  11.469 -0.4695  1.7976  0.6269
12243TIP3   OH258219   1.048   3.987   0.390 -0.0839  0.2789  0.4894
12243TIP3    H158220   1.095   3.912   0.353  1.1296  1.9955 -1.7478
12243TIP3    H258221   0.969   3.949   0.427  0.7172 -2.1668 -0.0641
12244TIP3   OH258222   5.711   5.121  16.338 -0.1295  0.1429 -0.5071
12244TIP3    H158223   5.737   5.030  16.322 -0.1090  0.1568 -0.5563
12244TIP3    H258224   5.656   5.144  16.263 -0.6440 -0.0248 -0.1853
12245TIP3   OH258225   5.076   3.907   1.425 -0.0599  0.1047 -0.2724
12245TIP3    H158226   5.043   3.969   1.492  1.5239  0.2580  0.4048
12245TIP3    H258227   5.017   3.832   1.432 -0.2723  0.3484  0.9375
12246TIP3   OH258228   4.873   3.444   3.320  0.2112 -1.0393  0.3484
12246TIP3    H158229   4.850   3.490   3.240 -2.5514 -1.4400  0.7862
12246TIP3    H258230   4.965   3.422   3.310  0.5000  0.7623 -1.7525
12247TIP3   OH258231   1.128   0.975   4.692  0.0308  0.3725 -0.4801
12247TIP3    H158232   1.153   1.033   4.763 -1.5273 -0.0361  0.4568
12247TIP3    H258233   1.210   0.952   4.649  0.7427  2.8830 -0.6106
12248TIP3   OH258234   3.304   5.707   1.426  0.8397  0.3565 -0.3386
12248TIP3    H158235   3.281   5.800   1.421 -0.5951  0.1666  1.5428
12248TIP3    H258236   3.400   5.707   1.429  0.9019  1.6931 -1.3193
12249TIP3   OH258237   2.364   2.720  16.947  0.8021 -0.1624 -0.4275
12249TIP3    H158238   2.317   2.800  16.972  0.2260 -0.5092 -0.3865
12249TIP3    H258239   2.373   2.672  17.029 -0.8772 -1.1932 -0.8035
12250TIP3   OH258240   6.645   4.354   2.699  0.6666  0.1367  0.6094
12250TIP3    H158241   6.630   4.443   2.733 -0.5822  1.4819 -3.0193
12250TIP3    H258242   6.566   4.306   2.724 -0.7188  1.3967 -1.1120
12251TIP3   OH258243   3.444   5.612  14.823  0.0761 -0.2231 -0.0373
12251TIP3    H158244   3.421   5.554  14.896 -0.6839 -1.1449 -0.9670
12251TIP3    H258245   3.521   5.571  14.783  1.9061  1.5017  1.5570
12252TIP3   OH258246   2.250   4.856   1.296 -0.0687 -0.4040 -0.0135
12252TIP3    H158247   2.190   4.887   1.229 -0.6068  0.4906  0.8629
12252TIP3    H258248   2.256   4.762   1.281 -1.1724 -0.4030 -0.5281
12253TIP3   OH258249   0.239   0.916  13.940 -0.0908 -0.5575 -0.2944
12253TIP3    H158250   0.313   0.895  13.883  0.9857  0.9667  0.4724
12253TIP3    H258251   0.162   0.911  13.883  0.7615 -0.7181 -1.4620
12254TIP3   OH258252   0.733   2.220  16.637  0.3451  0.2384  0.6731
12254TIP3    H158253   0.711   2.129  16.656  0.0894 -0.0916 -0.9994
12254TIP3    H258254   0.828   2.223  16.644  0.2113  0.4097  2.8999
12255TIP3   OH258255   6.813   4.301  16.419 -0.6673  0.1593 -0.3905
12255TIP3    H158256   6.842   4.227  16.473 -3.3453 -1.1983 -0.6207
12255TIP3    H258257   6.892   4.353  16.405  1.9534 -3.7304 -1.9614
12256TIP3   OH258258   3.966   4.338   7.053 -0.1599  0.4022 -0.0992
12256TIP3    H158259   4.013   4.296   6.981  2.0115  0.8117  0.9693
12256TIP3    H258260   4.035   4.362   7.115 -2.0469 -1.6406  3.0590
12257TIP3   OH258261   2.279   5.220  14.144  0.0622  0.0706 -0.2644
12257TIP3    H158262   2.349   5.236  14.207  0.5626  0.5516 -0.9256
12257TIP3    H258263   2.298   5.133  14.108 -0.9449 -0.7691  1.1429
12258TIP3   OH258264   3.793   4.175   3.368 -0.0727  0.2387  0.2796
12258TIP3    H158265   3.754   4.144   3.286  0.2427  0.5834 -0.0056
12258TIP3    H258266   3.745   4.128   3.436  1.0411 -1.6652 -0.1585
12259TIP3   OH258267   5.426   2.463   4.525  0.1446  0.4422 -0.1683
12259TIP3    H158268   5.444   2.551   4.492  1.8008  0.6900  1.2763
12259TIP3    H258269   5.472   2.405   4.464 -0.8758  0.5354 -1.0692
12260TIP3   OH258270   0.422   2.598  15.308  0.3331 -0.2048 -0.2080
12260TIP3    H158271   0.422   2.553  15.223  1.0183 -2.8871  1.0909
12260TIP3    H258272   0.512   2.631  15.317  0.8363 -1.6318  0.2550
12261TIP3   OH258273   3.706   4.681  14.515 -0.3134  0.4160  0.3752
12261TIP3    H158274   3.709   4.619  14.588 -1.6099  1.1776  1.1027
12261TIP3    H258275   3.637   4.648  14.458  2.0242 -1.3430 -1.6743
12262TIP3   OH258276   3.156   0.985   4.145  0.0019 -0.3799 -0.3442
12262TIP3    H158277   3.184   0.934   4.221  4.2063  1.0436 -0.6680
12262TIP3    H258278   3.183   0.934   4.070 -2.3001 -0.8317 -0.9486
12263TIP3   OH258279   5.304   5.137   5.996  0.2522  0.9748 -0.0925
12263TIP3    H158280   5.346   5.126   6.081 -0.2952 -0.5073  0.0158
12263TIP3    H258281   5.229   5.077   5.998 -0.1909  1.4458 -1.3508
12264TIP3   OH258282   6.411   3.410  13.542  0.1612  0.0469  1.0102
12264TIP3    H158283   6.402   3.391  13.636 -0.6483  3.0342  1.6525
12264TIP3    H258284   6.321   3.420  13.511  0.4558  2.0425  0.6793
12265TIP3   OH258285   4.317   1.402  13.157 -0.4749 -0.0454 -0.2870
12265TIP3    H158286   4.410   1.409  13.137 -0.8085  1.0491 -1.5410
12265TIP3    H258287   4.312   1.417  13.252  0.8353 -2.5369  0.2533
12266TIP3   OH258288   2.946   0.738  14.807 -0.5824  0.0131  0.1009
12266TIP3    H158289   3.006   0.751  14.880 -0.8924  0.3344  0.3006
12266TIP3    H258290   2.957   0.646  14.783  1.2314  0.4620 -0.9723
12267TIP3   OH258291   0.980   1.088  16.409 -0.1448 -0.1671 -0.0644
12267TIP3    H158292   1.040   1.151  16.450 -1.3637  1.1882 -0.2885
12267TIP3    H258293   0.996   1.099  16.315 -0.7598  0.2259 -0.1260
12268TIP3   OH258294   3.616   2.706  15.195 -0.6505  0.2519 -0.8142
12268TIP3    H158295   3.711   2.698  15.200 -0.4623 -0.6129 -4.1119
12268TIP3    H258296   3.583   2.620  15.220 -0.3116 -0.6713 -3.3460
12269TIP3   OH258297   6.524   0.439   5.323  0.4995 -0.0722  0.4211
12269TIP3    H158298   6.530   0.457   5.229 -3.0996  0.7127  0.2165
12269TIP3    H258299   6.545   0.522   5.365  0.2990  0.0651  0.2478
12270TIP3   OH258300   0.355   4.531   2.225 -0.3141  0.3926  0.1814
12270TIP3    H158301   0.394   4.446   2.204  0.4123  0.6573  0.4095
12270TIP3    H258302   0.411   4.594   2.180 -1.7558  0.6831 -1.3095
12271TIP3   OH258303   2.495   0.789  11.443  0.5010 -0.0476  0.6258
12271TIP3    H158304   2.434   0.760  11.375  0.3879 -1.7651  1.3903
12271TIP3    H258305   2.448   0.859  11.488 -1.3079 -1.7758  1.6423
12272TIP3   OH258306   2.659   3.165  13.034 -0.2403 -0.1522 -0.1367
12272TIP3    H158307   2.730   3.148  12.972  2.0609 -0.3808  2.3671
12272TIP3    H258308   2.689   3.242  13.084 -1.3969 -0.6891  1.4700
12273TIP3   OH258309   4.243   0.034   3.025 -0.2361 -0.0063  0.5566
12273TIP3    H158310   4.163  -0.012   2.999 -0.4856  1.1840 -0.8997
12273TIP3    H258311   4.290  -0.029   3.081 -1.5913 -1.1815  0.4202
12274TIP3   OH258312   4.969   0.076  16.940 -0.6672  0.0047 -0.1389
12274TIP3    H158313   5.013   0.112  17.018 -0.2703  1.6338 -1.0582
12274TIP3    H258314   4.889   0.128  16.932 -1.0442 -0.6178 -0.4228
12275TIP3   OH258315   4.379   2.734   1.197 -0.7231  0.0455  0.0967
12275TIP3    H158316   4.337   2.678   1.262  2.0785 -1.5200  0.7423
12275TIP3    H258317   4.453   2.773   1.244 -1.0591  2.2511 -1.0833
12276TIP3   OH258318   2.192   2.406   0.028  0.3208  0.3120  0.4369
12276TIP3    H158319   2.257   2.405   0.098  1.3435  1.5201 -0.4588
12276TIP3    H258320   2.160   2.316   0.025  1.8358 -0.2849  1.0007
12277TIP3   OH258321   2.085   4.409   4.345 -0.5672  0.3255 -0.0202
12277TIP3    H158322   2.136   4.356   4.285 -0.3964  0.0002  0.4167
12277TIP3    H258323   2.104   4.499   4.319  0.8274  0.2375  0.6297
12278TIP3   OH258324   3.810   1.417   4.146  0.0774  0.2541  0.1579
12278TIP3    H158325   3.740   1.360   4.178 -0.7923  0.9580 -0.4184
12278TIP3    H258326   3.792   1.427   4.052  0.1484  1.5224  0.2581
12279TIP3   OH258327   0.322   6.550  11.051 -0.5134 -0.6360  0.1437
12279TIP3    H158328   0.292   6.639  11.034 -1.5512 -0.5678  1.9921
12279TIP3    H258329   0.337   6.512  10.964 -1.7314  0.7754 -0.7280
12280TIP3   OH258330   6.282   4.269  14.380 -0.1481  0.5688  0.8880
12280TIP3    H158331   6.242   4.339  14.329 -0.7310 -0.0141  0.5402
12280TIP3    H258332   6.345   4.228  14.320  0.4460  1.0041  1.1986
12281TIP3   OH258333   1.809   0.306   6.593 -0.2840 -0.1349 -0.8860
12281TIP3    H158334   1.750   0.365   6.545  0.1831  0.9210 -0.1945
12281TIP3    H258335   1.889   0.304   6.540 -0.1185  0.2587 -0.6537
12282TIP3   OH258336   6.700   6.007  12.352 -0.2155 -0.1415 -0.3290
12282TIP3    H158337   6.739   6.078  12.301  2.6405 -0.7961  0.7943
12282TIP3    H258338   6.707   5.931  12.295 -2.4371  0.2018 -1.1657
12283TIP3   OH258339   5.955   6.311   3.188 -0.4376 -0.0126 -0.3038
12283TIP3    H158340   5.882   6.373   3.188 -1.9160 -1.6641 -0.2452
12283TIP3    H258341   5.993   6.318   3.101  0.0981  1.6568  0.0127
12284TIP3   OH258342   1.099   5.577   2.872 -0.0819 -0.1382  0.1421
12284TIP3    H158343   1.036   5.589   2.943 -0.7933  0.2996 -0.5401
12284TIP3    H258344   1.164   5.646   2.885  0.7547 -1.1127  1.3435
12285TIP3   OH258345   5.850   1.599   6.018 -0.2766  0.0924  0.0503
12285TIP3    H158346   5.810   1.684   6.034 -1.5324 -0.5417  0.3800
12285TIP3    H258347   5.856   1.592   5.923 -0.2203  0.5193  0.0213
12286TIP3   OH258348   4.750   0.801   2.671 -0.3545  0.0824  0.1527
12286TIP3    H158349   4.711   0.779   2.586 -0.8944 -0.2681  0.4826
12286TIP3    H258350   4.726   0.728   2.728 -1.5069  1.1183  1.0688
12287TIP3   OH258351   2.967   3.780   6.176 -0.1335  0.2845 -0.4100
12287TIP3    H158352   2.954   3.865   6.135  2.5599  0.8878 -0.1931
12287TIP3    H258353   3.014   3.729   6.111 -0.4299 -0.5458  0.0121
12288TIP3   OH258354   2.493   5.908  14.421 -0.4219 -0.2216  0.1477
12288TIP3    H158355   2.580   5.946  14.434 -0.4146 -0.6220  1.4298
12288TIP3    H258356   2.509   5.813  14.418 -0.5611 -0.2344 -1.9868
12289TIP3   OH258357   0.152   1.181   3.052 -0.2813 -0.5428  0.5035
12289TIP3    H158358   0.152   1.154   3.144  0.6392  0.0466  0.6966
12289TIP3    H258359   0.071   1.230   3.041 -0.5862 -0.9542  0.8923
12290TIP3   OH258360   5.887   2.767   3.639  0.0622  0.9685  0.4012
12290TIP3    H158361   5.947   2.829   3.598  0.1072  0.1741 -0.7693
12290TIP3    H258362   5.811   2.820   3.664  0.2064  1.5502 -0.3656
12291TIP3   OH258363   4.022   2.824   0.601 -0.6466 -0.0065  0.8822
12291TIP3    H158364   4.105   2.869   0.584 -1.0228  0.4778  0.2320
12291TIP3    H258365   4.040   2.732   0.583 -0.7262  0.3353 -1.2480
12292TIP3   OH258366   0.747   2.598  11.713  0.1505  0.4689 -0.0315
12292TIP3    H158367   0.824   2.549  11.743  0.7377  1.9869  1.1440
12292TIP3    H258368   0.784   2.677  11.673 -0.7686  1.4680  1.0063
12293TIP3   OH258369   2.818   2.835  16.838 -0.1194  0.2410  0.1781
12293TIP3    H158370   2.786   2.897  16.904 -1.0249 -0.5351  0.4977
12293TIP3    H258371   2.738   2.799  16.798  0.4077  0.1786 -0.8550
12294TIP3   OH258372   2.692   6.732  15.920  0.1975 -0.3105  0.1457
12294TIP3    H158373   2.605   6.712  15.886  0.6822 -0.4647 -1.0538
12294TIP3    H258374   2.676   6.789  15.995 -0.8967  0.7570 -0.8615
12295TIP3   OH258375   2.216   2.798  16.711 -0.0015 -0.4979 -0.3225
12295TIP3    H158376   2.122   2.814  16.721  0.3582  1.4620  0.2395
12295TIP3    H258377   2.242   2.757  16.793  0.0236  1.0643  0.4874
12296TIP3   OH258378   5.738   1.871   0.834 -0.4767  0.4244 -0.3017
12296TIP3    H158379   5.687   1.883   0.754  0.8465 -0.2363 -1.2925
12296TIP3    H258380   5.675   1.839   0.899 -1.6468  1.3119 -0.9566
12297TIP3   OH258381   0.332   4.740  11.040 -0.7425  0.2366  0.5497
12297TIP3    H158382   0.341   4.810  10.976  1.6367  0.5269  1.1009
12297TIP3    H258383   0.372   4.664  10.999  1.7115  0.6704  1.9451
12298TIP3   OH258384   6.155   5.142   1.083  0.0045 -0.0628 -0.0890
12298TIP3    H158385   6.172   5.101   0.998  0.0512 -0.9319  0.3221
12298TIP3    H258386   6.067   5.177   1.076 -0.2991 -0.8370 -0.2373
12299TIP3   OH258387   0.291   3.709   0.962  0.0564  0.1638  0.1154
12299TIP3    H158388   0.331   3.625   0.982  1.2630  0.9108  0.9266
12299TIP3    H258389   0.293   3.757   1.045  2.9967  2.4516 -1.1165
12300TIP3   OH258390   2.691   2.271   1.217  0.3824  0.0065 -0.3643
12300TIP3    H158391   2.651   2.340   1.269 -0.6385 -0.0747 -1.0099
12300TIP3    H258392   2.650   2.190   1.248 -1.8989  0.1381 -2.6698
12301TIP3   OH258393   1.667   5.955   5.552  0.4220  0.0989 -0.1428
12301TIP3    H158394   1.583   6.000   5.542  0.5047  0.0240 -1.2933
12301TIP3    H258395   1.650   5.887   5.617 -0.3709  0.1735 -0.2573
12302TIP3   OH258396   3.676   2.333   3.302  0.1512 -0.3763 -0.0848
12302TIP3    H158397   3.723   2.413   3.278  1.7486 -1.8662 -2.3779
12302TIP3    H258398   3.691   2.323   3.396  2.2611  0.6225 -0.2482
12303TIP3   OH258399   1.420   5.591   5.184 -0.1059 -0.8736  0.7370
12303TIP3    H158400   1.466   5.569   5.265  2.0494 -2.6803 -0.8358
12303TIP3    H258401   1.484   5.642   5.134 -1.8373  1.3051  0.5811
12304TIP3   OH258402   6.656   6.655  10.700  0.1311  0.0148  0.7452
12304TIP3    H158403   6.598   6.580  10.716  1.0458 -0.7083  0.7603
12304TIP3    H258404   6.599   6.722  10.662 -0.7527 -0.5993  0.9622
12305TIP3   OH258405   1.721   4.590  16.803  0.5305  0.2019  0.0012
12305TIP3    H158406   1.805   4.565  16.840  0.7104 -0.2321 -0.6824
12305TIP3    H258407   1.660   4.589  16.877  0.3981 -2.8009 -0.0224
12306TIP3   OH258408   1.987   2.315   5.602 -0.3347  0.4234 -0.2153
12306TIP3    H158409   2.068   2.337   5.647 -1.5137  0.1980  2.1544
12306TIP3    H258410   1.962   2.395   5.556  0.2468  1.0808  0.5899
12307TIP3   OH258411   6.454   3.359   1.530  0.0187 -0.0173  0.3701
12307TIP3    H158412   6.379   3.387   1.582  0.2858 -1.2393  1.4651
12307TIP3    H258413   6.525   3.347   1.593  1.0709  0.8117 -0.6062
12308TIP3   OH258414   1.176   2.259   1.746  0.3781  0.4570  0.2117
12308TIP3    H158415   1.213   2.275   1.659  2.1774 -1.6108  0.5154
12308TIP3    H258416   1.245   2.213   1.794 -0.9292  0.6651  2.4328
12309TIP3   OH258417   3.571   0.540   3.485 -0.2415 -0.0222  0.1267
12309TIP3    H158418   3.623   0.532   3.405 -0.2385  0.3135  0.0931
12309TIP3    H258419   3.632   0.519   3.556  0.2567  1.4766  0.1706
12310TIP3   OH258420   1.301   4.607   5.584  0.2623 -0.1719  0.1192
12310TIP3    H158421   1.310   4.531   5.641  0.4031 -0.0220  0.2957
12310TIP3    H258422   1.282   4.570   5.498 -1.3008 -0.3598  0.5163
12311TIP3   OH258423   4.294   5.050  16.804  0.0199  0.3345  0.1797
12311TIP3    H158424   4.353   4.989  16.759 -0.8263  0.4483 -1.1664
12311TIP3    H258425   4.215   5.000  16.820 -0.1400  0.6561  0.4048
12312TIP3   OH258426   3.963   0.193   5.187 -0.6183 -0.4138 -0.1120
12312TIP3    H158427   3.872   0.211   5.165 -0.0745 -0.1889 -2.3836
12312TIP3    H258428   3.981   0.107   5.150 -0.5976 -1.7237  2.6745
12313TIP3   OH258429   5.804   6.455   4.998  0.0720  0.5178 -0.4143
12313TIP3    H158430   5.718   6.481   5.031  0.2957  0.7217  0.0132
12313TIP3    H258431   5.866   6.503   5.053  0.4615  0.2703 -0.6355
12314TIP3   OH258432   3.772   1.746   2.089  0.0967  0.4885 -0.1856
12314TIP3    H158433   3.837   1.745   2.160  1.2682  0.2641 -1.2328
12314TIP3    H258434   3.748   1.838   2.080  0.4575  0.6070  0.0376
12315TIP3   OH258435   5.143   3.717   5.110  0.0850  0.7263  0.4582
12315TIP3    H158436   5.100   3.797   5.079  0.6831  1.0100  0.3442
12315TIP3    H258437   5.122   3.713   5.204  1.2469  1.8061  0.7874
12316TIP3   OH258438   0.075   4.369   1.317 -0.0094 -0.1922 -0.0343
12316TIP3    H158439   0.110   4.306   1.254 -0.2696  0.0687 -0.4422
12316TIP3    H258440   0.120   4.347   1.399 -0.7964 -1.5308  0.0682
12317TIP3   OH258441   6.038   6.196  11.247 -0.1093  0.3568  0.1606
12317TIP3    H158442   5.973   6.127  11.263 -0.6651  1.0882  1.1512
12317TIP3    H258443   6.038   6.207  11.152  0.4588 -1.4321 -0.1026
12318TIP3   OH258444   1.159   3.399  12.338 -0.8631  0.2533  0.5392
12318TIP3    H158445   1.108   3.480  12.333  0.4966  1.1341  0.3028
12318TIP3    H258446   1.174   3.386  12.432 -2.2919 -0.5470  0.6862
12319TIP3   OH258447   2.671   5.968  13.079  0.1044 -0.9240  0.3294
12319TIP3    H158448   2.579   5.988  13.096  0.0818  0.4236 -1.1172
12319TIP3    H258449   2.670   5.917  12.998  0.6536 -0.0997 -0.2241
12320TIP3   OH258450   0.405   3.966   3.654  0.0601 -0.4058  0.0360
12320TIP3    H158451   0.345   4.007   3.591  0.6092 -0.9589 -0.8559
12320TIP3    H258452   0.466   4.036   3.678 -0.6551  0.0395  0.6151
12321TIP3   OH258453   4.078   6.048   4.535 -0.7889 -0.0380 -0.4536
12321TIP3    H158454   4.016   6.117   4.558 -1.1103 -0.3641 -0.3409
12321TIP3    H258455   4.147   6.093   4.487 -0.5780  0.5055  0.3330
12322TIP3   OH258456   3.302   5.963   1.509  0.2294 -0.3379 -0.9356
12322TIP3    H158457   3.260   6.044   1.478  1.8454  0.7208 -0.4762
12322TIP3    H258458   3.322   5.980   1.601  0.9698 -1.0980 -0.9472
12323TIP3   OH258459   1.406   2.781  15.925 -0.0154 -0.1445 -0.3999
12323TIP3    H158460   1.409   2.806  15.833  2.4754 -0.3639 -0.4301
12323TIP3    H258461   1.428   2.688  15.926 -0.8434 -0.3530  0.3776
12324TIP3   OH258462   0.394   1.295  12.587  0.6189  0.0515  0.0255
12324TIP3    H158463   0.314   1.279  12.538  0.6382 -1.9593  0.5549
12324TIP3    H258464   0.384   1.244  12.668  1.3933  1.7350  1.2576
12325TIP3   OH258465   6.754   0.152   2.686  0.0387 -0.2462  0.1206
12325TIP3    H158466   6.781   0.175   2.597  0.9090 -0.3088  0.3650
12325TIP3    H258467   6.693   0.079   2.674  2.9307 -2.7936 -0.2551
12326TIP3   OH258468   2.175   3.362   3.387  0.2294 -0.5379 -0.4508
12326TIP3    H158469   2.145   3.414   3.462  0.8219 -0.2465 -0.4132
12326TIP3    H258470   2.111   3.290   3.381  0.4726 -0.8665  0.6639
12327TIP3   OH258471   1.593   4.098   5.921 -0.1033 -0.2463 -0.0668
12327TIP3    H158472   1.574   4.182   5.962  0.6797 -0.2125  0.2414
12327TIP3    H258473   1.510   4.050   5.926 -0.0686 -0.1966  1.4817
12328TIP3   OH258474   2.801   3.310   3.801  0.5641  0.5294  0.1705
12328TIP3    H158475   2.801   3.226   3.847  2.0166  1.4407  1.9639
12328TIP3    H258476   2.876   3.357   3.837  0.6415  2.0671 -1.8247
12329TIP3   OH258477   4.153   4.195  15.546 -0.1447 -0.1609  0.0058
12329TIP3    H158478   4.234   4.231  15.509  1.2709 -0.5996  2.4485
12329TIP3    H258479   4.119   4.137  15.478  2.2051 -0.7812 -0.7242
12330TIP3   OH258480   6.052   0.032  15.546  0.0939  0.7351 -0.8257
12330TIP3    H158481   6.120   0.055  15.484 -0.0905  2.5030 -0.4224
12330TIP3    H258482   6.030   0.114  15.590  0.0900 -0.4022  1.4621
12331TIP3   OH258483   1.628   2.447   2.419  0.3213 -0.1409  0.0091
12331TIP3    H158484   1.682   2.412   2.490  1.6339 -0.2758 -1.0071
12331TIP3    H258485   1.645   2.541   2.420  2.2678 -0.4094 -1.5935
12332TIP3   OH258486   6.813   0.079  11.439  0.3337  0.0074 -0.5947
12332TIP3    H158487   6.837   0.136  11.367 -1.8209 -0.9357 -2.1892
12332TIP3    H258488   6.838  -0.009  11.410 -2.5142 -0.6863 -1.3070
12333TIP3   OH258489   0.191   1.844  14.917 -0.5596 -0.6313 -0.2633
12333TIP3    H158490   0.272   1.818  14.961 -0.2295 -1.7325 -1.4508
12333TIP3    H258491   0.127   1.851  14.987  1.2538  3.8003  1.3168
12334TIP3   OH258492   0.042   6.632   2.534 -0.7324  0.5642 -0.0338
12334TIP3    H158493   0.025   6.663   2.623 -0.9597 -1.3984  0.6571
12334TIP3    H258494  -0.034   6.577   2.513  0.7024 -1.4128 -0.2458
12335TIP3   OH258495   4.333   1.172   3.458 -0.2255 -0.0373  0.1133
12335TIP3    H158496   4.414   1.195   3.413 -0.9287  1.0968 -0.6273
12335TIP3    H258497   4.352   1.088   3.500  0.8547 -0.5475 -1.3064
12336TIP3   OH258498   2.741   6.460   2.620  0.2826  0.2136 -0.1192
12336TIP3    H158499   2.741   6.381   2.565  0.0628  0.1909 -0.0878
12336TIP3    H258500   2.834   6.479   2.634  0.3752  0.8054 -1.3366
12337TIP3   OH258501   6.682   0.387   4.652  0.1923  0.0620 -0.2950
12337TIP3    H158502   6.622   0.340   4.593  1.4733  1.1389 -2.6115
12337TIP3    H258503   6.764   0.339   4.645  0.0135 -0.6402  1.8397
12338TIP3   OH258504   5.451   0.739  11.920 -0.7837 -0.2850 -0.2171
12338TIP3    H158505   5.535   0.777  11.894 -0.1530 -1.2887  0.2808
12338TIP3    H258506   5.441   0.663  11.863 -1.8213  0.3508 -0.9119
12339TIP3   OH258507   1.081   0.514   2.348 -0.2775 -0.4234 -0.0332
12339TIP3    H158508   1.065   0.557   2.264 -3.7580 -1.9533 -0.3173
12339TIP3    H258509   1.071   0.421   2.331  1.4968 -0.9959  1.6472
12340TIP3   OH258510   0.971   0.606  11.660  0.2514  0.0441 -0.8756
12340TIP3    H158511   1.058   0.643  11.672  0.2971  0.2291 -1.7602
12340TIP3    H258512   0.913   0.667  11.707  0.2903  1.4624 -2.5769
12341TIP3   OH258513   2.492   5.518  16.059  0.2650 -0.1116  0.0416
12341TIP3    H158514   2.573   5.466  16.068  1.2694  1.2187 -0.9999
12341TIP3    H258515   2.488   5.569  16.139  0.3136 -0.3594  0.2052
12342TIP3   OH258516   6.475   1.075   1.286  0.0110 -0.1625 -0.0310
12342TIP3    H158517   6.436   0.989   1.301 -1.6717  0.5028 -0.4584
12342TIP3    H258518   6.553   1.057   1.233 -0.4069 -1.3934 -0.2498
12343TIP3   OH258519   5.459   2.011   1.813  0.1061 -0.0176  0.5709
12343TIP3    H158520   5.506   2.083   1.855  1.2788  0.0137 -0.7466
12343TIP3    H258521   5.509   1.992   1.734 -2.2954  0.2522 -1.1234
12344TIP3   OH258522   2.077   5.048   3.407 -0.2578  0.1172  0.2547
12344TIP3    H158523   2.079   5.142   3.425  2.5711  0.4300 -1.0214
12344TIP3    H258524   2.134   5.009   3.473 -2.3072 -0.9405  1.4944
12345TIP3   OH258525   4.224   1.430   5.745 -0.0941 -0.4889 -0.0442
12345TIP3    H158526   4.285   1.421   5.818  1.9417 -1.1013 -1.7146
12345TIP3    H258527   4.230   1.347   5.698  0.7274  0.7664 -2.3592
12346TIP3   OH258528   4.175   1.439  13.483 -0.0513 -0.2042  0.6986
12346TIP3    H158529   4.152   1.491  13.560  0.1468 -2.2484  2.2224
12346TIP3    H258530   4.268   1.456  13.469  0.0667 -0.3047  1.3305
12347TIP3   OH258531   1.966   5.937   0.441 -0.0353  0.4733 -0.1372
12347TIP3    H158532   1.910   5.993   0.387  0.4257  2.1241  1.0325
12347TIP3    H258533   2.008   5.997   0.502  1.2635 -1.0418  0.5146
12348TIP3   OH258534   0.221   3.077  12.932 -0.2615  0.3380 -0.7547
12348TIP3    H158535   0.213   2.984  12.950 -1.6466  0.7573  1.1610
12348TIP3    H258536   0.295   3.106  12.986  0.3252  0.3376 -1.5334
12349TIP3   OH258537   2.917   6.268   5.943  0.6333 -0.2336  0.0131
12349TIP3    H158538   2.930   6.345   5.998 -1.3192 -1.7501  2.8312
12349TIP3    H258539   2.883   6.303   5.860  1.0553  1.9739  0.7122
12350TIP3   OH258540   0.991   6.366  13.530  0.2015  0.2364  0.2966
12350TIP3    H158541   0.984   6.278  13.493  0.2674  0.3058  0.1202
12350TIP3    H258542   1.062   6.407  13.481 -0.0543  0.5039  0.1502
12351TIP3   OH258543   1.736   0.716  12.732  0.1176  0.2416  0.3823
12351TIP3    H158544   1.653   0.760  12.746  1.6929  3.2246  1.2163
12351TIP3    H258545   1.758   0.678  12.817 -0.7027 -1.2878 -0.0483
12352TIP3   OH258546   2.831   2.641   5.127 -0.4293 -0.0295  0.1086
12352TIP3    H158547   2.780   2.701   5.182 -0.9315  0.3271 -0.7243
12352TIP3    H258548   2.766   2.591   5.078 -0.0161 -1.3354  0.8503
12353TIP3   OH258549   3.587   5.636   4.285 -0.5460 -0.7692  0.8097
12353TIP3    H158550   3.599   5.668   4.196 -0.3694  1.5138  1.5911
12353TIP3    H258551   3.492   5.641   4.300 -0.4213  0.4691  1.2798
12354TIP3   OH258552   1.612   6.181  12.910 -0.4605  0.6789 -0.5599
12354TIP3    H158553   1.623   6.087  12.920  0.0120  0.6842 -0.9957
12354TIP3    H258554   1.581   6.192  12.820  1.3093  1.0660 -1.1572
12355TIP3   OH258555   1.549   6.569  15.500  0.0895 -0.6676 -0.3857
12355TIP3    H158556   1.473   6.625  15.480 -0.6702 -1.9473 -1.2148
12355TIP3    H258557   1.512   6.494  15.546  0.8845 -1.2292 -0.6387
12356TIP3   OH258558   3.152   5.264  12.829 -0.9461 -0.2062 -0.5471
12356TIP3    H158559   3.112   5.348  12.807  0.2339  0.4973 -0.0938
12356TIP3    H258560   3.173   5.225  12.745 -0.5237  0.4562 -0.7633
12357TIP3   OH258561   2.549   5.727   3.609 -0.3410 -0.0227  0.6836
12357TIP3    H158562   2.591   5.648   3.642 -1.0853 -1.2086 -1.0414
12357TIP3    H258563   2.594   5.799   3.653  1.6541 -1.3191  0.8880
12358TIP3   OH258564   0.468   5.445  10.420  0.5492  0.4923  0.0271
12358TIP3    H158565   0.545   5.413  10.373  1.5210  1.1956  1.0916
12358TIP3    H258566   0.486   5.538  10.437 -0.4498  0.6292  0.4605
12359TIP3   OH258567   6.099   0.405   2.815  0.7580  0.3342 -0.3095
12359TIP3    H158568   6.108   0.319   2.774  1.7272  0.2843 -0.0174
12359TIP3    H258569   6.187   0.426   2.847  0.3043  0.9502  0.5896
12360TIP3   OH258570   4.913   1.284  13.769  0.4529 -0.1402 -0.0444
12360TIP3    H158571   4.958   1.253  13.690  0.2158 -0.7136  0.0369
12360TIP3    H258572   4.841   1.222  13.781 -0.9657  1.3114 -0.7208
12361TIP3   OH258573   2.299   2.766  12.333 -0.2696  0.2904 -0.2333
12361TIP3    H158574   2.254   2.849  12.316  0.9005  0.8649 -0.6865
12361TIP3    H258575   2.391   2.791  12.343  0.0872 -0.9448 -0.2685
12362TIP3   OH258576   5.027   5.751   2.916 -0.5744 -0.3052  0.2333
12362TIP3    H158577   5.059   5.785   3.000  0.3496 -3.8718  1.4949
12362TIP3    H258578   4.953   5.696   2.939 -1.3905 -0.0266 -1.5646
12363TIP3   OH258579   1.000   6.185  11.164  0.0669  0.2044 -0.2741
12363TIP3    H158580   1.055   6.237  11.106  1.7869 -0.8999  0.2887
12363TIP3    H258581   0.978   6.107  11.114  0.6369 -0.2400  0.1493
12364TIP3   OH258582   2.463   4.590  16.592  0.0312  0.1615  0.3954
12364TIP3    H158583   2.406   4.513  16.594  1.7859 -1.4132 -2.9758
12364TIP3    H258584   2.423   4.648  16.527  1.7431 -0.5834 -1.3763
12365TIP3   OH258585   4.050   5.186  17.121 -0.8459 -0.1635 -0.5221
12365TIP3    H158586   4.083   5.249  17.186 -0.5660 -0.1508 -0.6763
12365TIP3    H258587   4.056   5.101  17.164  0.8307 -0.3586 -1.0870
12366TIP3   OH258588   5.723   3.813   3.343 -0.2677 -0.1479  0.3001
12366TIP3    H158589   5.781   3.792   3.417  0.1968 -0.7977 -0.2385
12366TIP3    H258590   5.783   3.839   3.273 -0.7485  1.3620  0.4127
12367TIP3   OH258591   0.742   1.138  14.706  0.4707 -0.4716  0.0333
12367TIP3    H158592   0.731   1.044  14.691 -1.1108 -1.3489  4.8814
12367TIP3    H258593   0.677   1.179  14.649 -0.4291 -2.5494 -0.5373
12368TIP3   OH258594   6.024   0.381  12.044  0.0417  0.5020 -0.4547
12368TIP3    H158595   6.055   0.291  12.032 -0.3920  0.4991 -1.6762
12368TIP3    H258596   5.938   0.371  12.085  0.1252  0.3781 -0.3088
12369TIP3   OH258597   6.802   4.430   6.025  0.5702 -0.2944 -0.9204
12369TIP3    H158598   6.782   4.344   6.063  1.7591  0.1991  0.9682
12369TIP3    H258599   6.876   4.414   5.966  3.3281 -0.1210  2.2233
12370TIP3   OH258600   4.887   3.124  11.038 -0.5406 -0.6047  0.1034
12370TIP3    H158601   4.907   3.162  11.124  0.9011 -1.7587  0.3283
12370TIP3    H258602   4.962   3.067  11.019 -0.1911  0.5923 -2.5206
12371TIP3   OH258603   2.870   1.259   0.854  0.0552 -0.0571 -0.1403
12371TIP3    H158604   2.871   1.235   0.947 -1.8656 -0.7225 -0.2325
12371TIP3    H258605   2.946   1.315   0.842 -0.3793  1.1320  2.1466
12372TIP3   OH258606   0.217   4.590   5.676 -0.0370 -0.3811  1.1129
12372TIP3    H158607   0.238   4.623   5.589  0.5555  0.3615  1.5220
12372TIP3    H258608   0.296   4.607   5.727 -1.1087  1.2186  2.3512
12373TIP3   OH258609   0.496   2.818   2.626  0.4210  0.1062  0.0621
12373TIP3    H158610   0.456   2.829   2.540 -0.5428  0.3633  0.5279
12373TIP3    H258611   0.591   2.817   2.609  0.2460  0.2748 -0.9742
12374TIP3   OH258612   1.575   6.296  10.543  0.2504  0.0161  0.0050
12374TIP3    H158613   1.596   6.348  10.466  1.5003  0.2763  0.4893
12374TIP3    H258614   1.594   6.206  10.518  0.0378  0.0263 -0.1930
12375TIP3   OH258615   4.925   2.022  15.388  0.2595 -0.2412 -0.2835
12375TIP3    H158616   4.850   2.043  15.332  0.4738  1.2517 -0.0549
12375TIP3    H258617   4.942   2.103  15.436  0.2584 -1.3908  1.7669
12376TIP3   OH258618   4.996   2.158   3.055 -0.2840 -0.4706 -0.3788
12376TIP3    H158619   4.903   2.142   3.039 -0.2479 -0.4401 -0.6239
12376TIP3    H258620   5.038   2.141   2.971 -0.3637  1.7992 -0.9298
12377TIP3   OH258621   5.141   2.183  14.247 -0.0225 -0.3349  0.1962
12377TIP3    H158622   5.200   2.120  14.206  1.6513  1.1465  0.2289
12377TIP3    H258623   5.113   2.140  14.328 -1.1430 -2.1334 -1.0525
12378TIP3   OH258624   0.206   0.125   1.031  0.4542  0.3097 -0.1648
12378TIP3    H158625   0.280   0.171   1.070  0.9384  0.0927 -0.7949
12378TIP3    H258626   0.129   0.160   1.075  0.8834  1.0599 -0.0029
12379TIP3   OH258627   2.075   6.837  12.349  0.2743  0.5019  0.6249
12379TIP3    H158628   2.072   6.832  12.254 -0.9888  1.0463  0.6174
12379TIP3    H258629   1.990   6.801  12.377  0.6863  0.2294  1.5475
12380TIP3   OH258630   4.731   3.643  12.631  0.1317  0.0004 -0.5362
12380TIP3    H158631   4.819   3.677  12.644  0.3900 -0.8457  0.0499
12380TIP3    H258632   4.742   3.548  12.630 -0.5917 -0.0924 -1.9320
12381TIP3   OH258633   0.829   1.138   5.646  0.2064 -0.3087 -0.3953
12381TIP3    H158634   0.760   1.073   5.634 -0.7266  0.3801  0.9968
12381TIP3    H258635   0.907   1.087   5.669  0.7633 -1.2542 -3.8961
12382TIP3   OH258636   3.885   3.817  13.694  0.0360  0.3180  0.0588
12382TIP3    H158637   3.935   3.799  13.774 -0.8105  1.3528  0.8512
12382TIP3    H258638   3.919   3.754  13.630  0.9974 -0.2820  1.1161
12383TIP3   OH258639   0.470   1.765  15.535  0.0391  0.0242  0.1827
12383TIP3    H158640   0.535   1.832  15.555  0.3439 -0.4606  0.8522
12383TIP3    H258641   0.406   1.773  15.606  0.0228 -0.3179  0.2068
12384TIP3   OH258642   2.791   4.762  11.903  0.1143  0.4056  0.3734
12384TIP3    H158643   2.762   4.827  11.839  0.2974  0.3059  0.1893
12384TIP3    H258644   2.748   4.788  11.984  1.3878  1.6510  0.6843
12385TIP3   OH258645   4.075   3.333   4.265  0.0192 -0.4289  0.0807
12385TIP3    H158646   4.010   3.397   4.294  0.1113 -0.4154  0.2597
12385TIP3    H258647   4.112   3.370   4.185  0.5603  0.0727  0.5500
12386TIP3   OH258648   3.165   3.162   3.115 -0.6216  0.2464 -0.8984
12386TIP3    H158649   3.103   3.181   3.186  0.9815  0.0602  0.6094
12386TIP3    H258650   3.133   3.081   3.076 -1.5294  0.3583 -0.4098
12387TIP3   OH258651   6.321   6.158  11.292 -1.0468 -0.0897  0.3900
12387TIP3    H158652   6.336   6.065  11.274 -1.5927 -0.1445  0.2208
12387TIP3    H258653   6.234   6.175  11.259 -0.6007  0.7041 -0.4102
12388TIP3   OH258654   0.597   5.548  13.616  0.0812  0.5268  0.1069
12388TIP3    H158655   0.557   5.555  13.529 -1.0344  0.0725  0.5639
12388TIP3    H258656   0.543   5.483  13.662  2.2250 -1.2473  0.2815
12389TIP3   OH258657   1.769   2.254  17.006  0.2410  0.2536 -0.3913
12389TIP3    H158658   1.771   2.333  17.059  0.7664 -0.9646  1.5338
12389TIP3    H258659   1.686   2.212  17.029  0.7416 -0.5805 -0.0676
12390TIP3   OH258660   4.670   0.667   1.533 -0.5579  0.4992  0.7599
12390TIP3    H158661   4.619   0.597   1.575 -0.4475 -0.2666 -0.3239
12390TIP3    H258662   4.761   0.643   1.547 -0.5175  0.6245  0.7153
12391TIP3   OH258663   6.643   3.132   2.756  0.4856 -0.2256  0.7749
12391TIP3    H158664   6.676   3.132   2.666  1.1730 -1.3317  1.0044
12391TIP3    H258665   6.558   3.177   2.751  1.4707  1.6550 -0.0327
12392TIP3   OH258666   2.872   0.302  15.485  0.1899  0.0513  0.5577
12392TIP3    H158667   2.819   0.278  15.561  0.8396  1.7312  1.5939
12392TIP3    H258668   2.813   0.292  15.410 -0.8395 -0.4326  1.4083
12393TIP3   OH258669   0.460   6.117   5.500  0.8962 -0.4625 -0.1172
12393TIP3    H158670   0.379   6.124   5.449  0.9451 -0.1759 -0.1556
12393TIP3    H258671   0.477   6.023   5.504  0.6904 -0.5102 -0.3148
12394TIP3   OH258672   1.357   4.808  12.025  0.0486 -0.4925  0.1688
12394TIP3    H158673   1.397   4.857  11.953 -0.7389 -0.4134 -0.2266
12394TIP3    H258674   1.376   4.716  12.004 -2.1042 -0.6684 -1.4181
12395TIP3   OH258675   5.394   0.731  14.611  0.0977  0.5524  0.1665
12395TIP3    H158676   5.474   0.734  14.558 -0.8408  1.3925 -1.2564
12395TIP3    H258677   5.325   0.764  14.553 -0.9485  1.7309  1.9748
12396TIP3   OH258678   0.171   6.706   0.960 -0.2943 -0.0549  0.3713
12396TIP3    H158679   0.111   6.649   1.007 -0.5599  0.8232  1.1371
12396TIP3    H258680   0.151   6.794   0.992  0.5055  0.4077 -0.3351
12397TIP3   OH258681   6.084   6.414   6.365  0.5550  0.0189  0.0502
12397TIP3    H158682   6.023   6.485   6.348  2.4349  1.3005 -1.8304
12397TIP3    H258683   6.029   6.341   6.394 -1.7316  1.3601 -0.7034
12398TIP3   OH258684   1.188   6.733   0.473  0.1177 -0.3145 -0.2718
12398TIP3    H158685   1.238   6.665   0.518  1.0586  1.0568  0.8081
12398TIP3    H258686   1.252   6.801   0.453 -1.1076  1.0437  0.2492
12399TIP3   OH258687   6.317   4.132   3.050 -0.5301 -0.2697  0.2125
12399TIP3    H158688   6.382   4.152   2.983 -0.8588 -1.1670 -0.3845
12399TIP3    H258689   6.325   4.204   3.113 -0.9523  1.2006 -1.3221
12400TIP3   OH258690   3.370   4.877  14.686 -0.2643 -0.1875  0.0103
12400TIP3    H158691   3.275   4.874  14.676 -0.3095 -0.2960  0.4347
12400TIP3    H258692   3.403   4.910  14.603 -0.7980  1.7912  0.5464
12401TIP3   OH258693   4.641   1.782   5.786  0.4787 -0.3832 -0.6654
12401TIP3    H158694   4.651   1.831   5.868 -0.9450  2.0120 -1.8265
12401TIP3    H258695   4.730   1.762   5.759  1.1253  1.3809  0.0063
12402TIP3   OH258696   0.033   4.711  11.930 -0.1299 -0.7143  0.0359
12402TIP3    H158697   0.100   4.711  11.861  0.3019 -0.3619  0.4472
12402TIP3    H258698   0.044   4.627  11.973  0.4883 -0.3912  0.5173
12403TIP3   OH258699   3.776   3.224  11.503 -0.4425  0.2513  0.4891
12403TIP3    H158700   3.810   3.143  11.540 -1.1274 -0.2840 -0.0071
12403TIP3    H258701   3.690   3.235  11.544 -1.5388 -0.7374 -1.3713
12404TIP3   OH258702   6.437   2.823   3.840  0.1638 -0.3778  0.0070
12404TIP3    H158703   6.344   2.803   3.845  0.4616 -1.8279  0.3875
12404TIP3    H258704   6.478   2.762   3.901  1.6627 -2.0065 -2.4487
12405TIP3   OH258705   6.687   6.614   3.930 -0.1132  0.2285  0.6095
12405TIP3    H158706   6.646   6.556   3.866  1.4329  0.3261 -0.5394
12405TIP3    H258707   6.706   6.694   3.881  1.4455  0.1676  1.0568
12406TIP3   OH258708   2.582   4.899  13.298  0.6340 -0.2818  0.1376
12406TIP3    H158709   2.672   4.888  13.267  0.0084  0.7346 -2.2447
12406TIP3    H258710   2.564   4.993  13.288 -0.3105 -0.2406  1.7893
12407TIP3   OH258711   0.749   2.212  12.198  0.1534  0.9983  0.3006
12407TIP3    H158712   0.665   2.186  12.159  0.4943  1.6370 -0.9142
12407TIP3    H258713   0.801   2.131  12.199 -0.6622  0.4556  1.6378
12408TIP3   OH258714   6.480   2.134  12.822  0.1954  0.1905  0.1203
12408TIP3    H158715   6.477   2.210  12.880 -0.2134  0.4244 -0.2033
12408TIP3    H258716   6.404   2.144  12.765  0.6670  0.0327 -0.5489
12409TIP3   OH258717   4.301   4.315  16.890 -0.1715  0.2690  0.7867
12409TIP3    H158718   4.266   4.243  16.837 -0.7198  2.4597 -2.0233
12409TIP3    H258719   4.388   4.284  16.916 -0.0201 -1.0917 -1.0848
12410TIP3   OH258720   3.726   4.721   4.115 -0.4910  0.3778  0.1107
12410TIP3    H158721   3.703   4.651   4.055 -0.8250  0.1419  0.5090
12410TIP3    H258722   3.777   4.782   4.062  0.4733 -0.5388 -0.0452
12411TIP3   OH258723   4.463   4.628   5.079 -0.2446 -0.0338  0.0884
12411TIP3    H158724   4.389   4.666   5.031 -1.3029 -0.0829  1.6305
12411TIP3    H258725   4.459   4.668   5.166 -0.6959 -2.7273  1.4003
12412TIP3   OH258726   5.615   3.120  16.793  0.0694 -0.1484 -0.1597
12412TIP3    H158727   5.638   3.032  16.823  0.5774  0.1620  0.3765
12412TIP3    H258728   5.596   3.169  16.873  0.7837  0.5049 -0.3798
12413TIP3   OH258729   5.250   1.791   0.497  0.4281  0.1443 -0.2734
12413TIP3    H158730   5.202   1.834   0.567  0.3261 -0.7625  0.2351
12413TIP3    H258731   5.182   1.750   0.443  0.5898 -1.7975  0.8797
12414TIP3   OH258732   3.607   6.503  14.549 -0.7370 -0.0297 -0.0870
12414TIP3    H158733   3.553   6.438  14.504  1.0784 -0.7971 -1.2557
12414TIP3    H258734   3.687   6.456  14.571 -0.9358  0.7481  2.6642
12415TIP3   OH258735   1.935   2.191   3.393  0.2936  0.5369  0.0075
12415TIP3    H158736   1.964   2.169   3.481 -0.4876  0.4665  0.2551
12415TIP3    H258737   1.958   2.115   3.340 -1.3449 -0.4428  0.6288
12416TIP3   OH258738   0.801   1.987   3.956 -0.4661  0.0521 -0.3611
12416TIP3    H158739   0.886   1.952   3.932 -0.8347 -1.1056 -0.0609
12416TIP3    H258740   0.768   1.926   4.023 -0.3378  1.9999  1.6082
12417TIP3   OH258741   1.756   2.808   0.053  0.5757  0.4678 -0.4732
12417TIP3    H158742   1.750   2.765   0.138  0.9892 -0.9654 -1.1347
12417TIP3    H258743   1.697   2.884   0.060  0.6675  0.4299  1.0925
12418TIP3   OH258744   6.057   3.779   6.129 -0.6376  0.6644  0.0550
12418TIP3    H158745   5.988   3.790   6.196 -1.7514 -0.6111 -0.8316
12418TIP3    H258746   6.032   3.700   6.082 -0.8117  2.3822 -2.9558
12419TIP3   OH258747   6.099   1.964   3.556 -0.0268 -0.2205 -0.3038
12419TIP3    H158748   6.072   1.927   3.640 -1.3658 -0.6182 -0.8777
12419TIP3    H258749   6.101   2.058   3.570 -1.4567 -0.1962 -0.1291
12420TIP3   OH258750   6.261   2.888  14.344 -0.4101 -0.4220  0.4513
12420TIP3    H158751   6.232   2.924  14.428  1.3964  1.0351  0.5303
12420TIP3    H258752   6.306   2.807  14.367 -0.7597 -0.5204  0.7886
12421TIP3   OH258753   5.394   0.305  14.075 -0.0992  0.2760  0.8481
12421TIP3    H158754   5.446   0.245  14.128 -0.5363 -0.2639  0.6727
12421TIP3    H258755   5.341   0.353  14.139 -1.1426 -0.8709  0.8578
12422TIP3   OH258756   4.380   4.386   0.485 -0.3192  0.0941 -0.0795
12422TIP3    H158757   4.441   4.416   0.417  0.4333 -0.6518  0.2480
12422TIP3    H258758   4.328   4.318   0.442 -2.7789  2.4611 -1.1576
12423TIP3   OH258759   0.202   6.379   2.445  0.0085 -0.3385 -0.0425
12423TIP3    H158760   0.189   6.361   2.538 -0.3620  1.7914  0.3532
12423TIP3    H258761   0.177   6.470   2.434 -0.8306 -0.7920 -2.4298
12424TIP3   OH258762   2.352   4.705  15.771  0.5599  0.3670  0.1786
12424TIP3    H158763   2.338   4.797  15.748  1.1872 -0.1332 -2.6078
12424TIP3    H258764   2.423   4.707  15.836 -1.2369  1.9164  2.2426
12425TIP3   OH258765   2.923   4.732  15.703  0.3077 -0.3046  0.1641
12425TIP3    H158766   2.953   4.671  15.635  2.5837 -1.7455  2.2789
12425TIP3    H258767   2.870   4.678  15.762  1.2819  0.0331  1.3854
12426TIP3   OH258768   2.361   3.982  12.424  0.2211  0.4336  0.1728
12426TIP3    H158769   2.269   3.998  12.446 -0.1071 -1.5690  0.4670
12426TIP3    H258770   2.360   3.966  12.329  0.4099  1.2332  0.0298
12427TIP3   OH258771   3.808   2.052  16.119  0.3359 -0.1046 -0.0796
12427TIP3    H158772   3.776   2.130  16.073  0.6224  0.1304  0.1241
12427TIP3    H258773   3.887   2.080  16.165  0.6268 -0.5940 -0.2674
12428TIP3   OH258774   3.214   4.027   3.336  0.3132  0.4776  0.1445
12428TIP3    H158775   3.124   4.034   3.305  0.2803 -0.7491 -0.0740
12428TIP3    H258776   3.213   4.069   3.422 -0.9023 -1.0716  0.9341
12429TIP3   OH258777   5.738   3.450  14.514  0.1309  0.5619 -0.1636
12429TIP3    H158778   5.788   3.368  14.517 -0.0175  0.4413 -0.8660
12429TIP3    H258779   5.673   3.440  14.583 -0.7448 -0.4887 -1.0874
12430TIP3   OH258780   2.445   5.138   5.090 -0.1363  0.2344  0.1891
12430TIP3    H158781   2.528   5.127   5.043  0.1555 -0.2856  0.8139
12430TIP3    H258782   2.386   5.178   5.025 -0.0923 -1.5321 -1.0401
12431TIP3   OH258783   4.229   0.117  16.612 -0.2562  0.0949 -0.2106
12431TIP3    H158784   4.320   0.088  16.614  0.2557  1.6630  0.6201
12431TIP3    H258785   4.192   0.084  16.694 -0.5799 -0.9344 -0.7574
12432TIP3   OH258786   5.668   4.724   1.013  0.1323 -0.4580 -0.0388
12432TIP3    H158787   5.671   4.640   1.060 -0.4347  0.8086  2.4330
12432TIP3    H258788   5.576   4.736   0.992  0.2587 -0.5595 -0.6958
12433TIP3   OH258789   1.866   5.003  12.335 -0.2336 -0.1147 -0.1667
12433TIP3    H158790   1.948   5.037  12.372 -1.3049  0.1008  2.1997
12433TIP3    H258791   1.893   4.949  12.261  2.0215  0.1786  0.3828
12434TIP3   OH258792   0.426   2.328   4.192  0.0116 -0.4604 -0.0698
12434TIP3    H158793   0.510   2.307   4.233  0.2932  1.1463  0.2210
12434TIP3    H258794   0.379   2.380   4.257 -0.4707  0.1933 -0.9189
12435TIP3   OH258795   0.875   1.861  16.079  0.3551 -0.8106 -0.1074
12435TIP3    H158796   0.802   1.833  16.024  1.1607 -1.8555 -0.6720
12435TIP3    H258797   0.845   1.943  16.118 -1.4384 -1.5998  0.3034
12436TIP3   OH258798   3.870   5.262  11.108  0.6214  0.1611  0.1714
12436TIP3    H158799   3.791   5.285  11.059  1.3231 -0.0506 -1.1035
12436TIP3    H258800   3.841   5.258  11.200 -0.6457  0.9237 -0.1718
12437TIP3   OH258801   5.812   0.850   4.541  0.6188  0.1056  0.1894
12437TIP3    H158802   5.833   0.810   4.625  1.0437  0.7249  0.3793
12437TIP3    H258803   5.782   0.938   4.562 -2.9665 -0.8865  0.0248
12438TIP3   OH258804   3.577   3.225  12.209 -0.3059  0.3901 -0.2659
12438TIP3    H158805   3.557   3.132  12.224 -1.5569  0.6965  0.1279
12438TIP3    H258806   3.642   3.246  12.275 -2.2628  0.5217  1.7524
12439TIP3   OH258807   2.312   5.721   0.020 -0.0926  0.3822  0.5719
12439TIP3    H158808   2.245   5.671  -0.027  0.0788 -1.6169  2.3157
12439TIP3    H258809   2.297   5.700   0.112  2.4892  0.4117  1.0566
12440TIP3   OH258810   5.744   5.634   6.297  0.4854  0.1761  0.3700
12440TIP3    H158811   5.777   5.724   6.289  1.2785 -0.0483  1.0308
12440TIP3    H258812   5.750   5.598   6.208  2.7592 -0.1014  0.5884
12441TIP3   OH258813   4.842   0.149  10.536  0.0534  0.6114 -0.6859
12441TIP3    H158814   4.874   0.092  10.466  0.2298 -0.9040  0.5751
12441TIP3    H258815   4.909   0.143  10.604  0.3442  2.8005 -0.7391
12442TIP3   OH258816   1.636   5.564   5.869 -0.1090  0.6541  0.2990
12442TIP3    H158817   1.704   5.531   5.810 -0.4508 -0.7866  0.6862
12442TIP3    H258818   1.578   5.614   5.812  0.0667  0.0461 -0.4238
12443TIP3   OH258819   3.012   1.320  16.406 -0.1189 -0.3791 -0.5749
12443TIP3    H158820   3.085   1.305  16.466 -1.2416 -0.9065  0.7154
12443TIP3    H258821   2.967   1.236  16.400 -1.9238  0.4406  0.4811
12444TIP3   OH258822   6.566   2.388   5.717 -0.1448 -0.0447 -0.4529
12444TIP3    H158823   6.611   2.448   5.776  1.1369 -1.1417 -0.2820
12444TIP3    H258824   6.602   2.407   5.630 -0.9489  0.5399 -0.6783
12445TIP3   OH258825   1.421   2.220   5.407  0.0923 -0.1218 -0.0950
12445TIP3    H158826   1.331   2.213   5.437  0.3681 -0.2028  0.7467
12445TIP3    H258827   1.427   2.159   5.334 -0.7527  0.5222 -0.7129
12446TIP3   OH258828   4.626   1.781  13.743 -0.0095 -0.1341 -0.1865
12446TIP3    H158829   4.706   1.792  13.692  1.0005 -1.3713  1.0215
12446TIP3    H258830   4.601   1.690  13.728 -1.2219  0.2513 -0.5714
12447TIP3   OH258831   6.603   5.600   3.871  0.0686 -0.4662 -0.2388
12447TIP3    H158832   6.544   5.601   3.946  0.2933  0.2207 -0.0635
12447TIP3    H258833   6.557   5.651   3.804  0.3279 -0.1760 -0.1987
12448TIP3   OH258834   1.354   5.332   0.394 -0.3988 -0.2113 -0.6874
12448TIP3    H158835   1.374   5.289   0.477  1.4233 -0.0047 -0.9733
12448TIP3    H258836   1.272   5.380   0.410 -1.8307 -2.7318 -0.0038
12449TIP3   OH258837   0.056   2.574  17.125 -0.1107  0.5051  0.2494
12449TIP3    H158838   0.095   2.636  17.186 -0.7856  0.0960  1.1231
12449TIP3    H258839   0.097   2.490  17.146 -0.2913  0.3728  0.0850
12450TIP3   OH258840   5.377   1.764   1.615 -0.2964 -0.3001 -0.3439
12450TIP3    H158841   5.366   1.705   1.540 -0.7909  2.8098 -2.9369
12450TIP3    H258842   5.309   1.830   1.604  0.8865  1.4037  1.7342
12451TIP3   OH258843   2.583   0.196  15.367 -0.0519  0.3148 -0.3234
12451TIP3    H158844   2.563   0.263  15.433  1.4906 -0.1563  0.6599
12451TIP3    H258845   2.513   0.131  15.377  0.0531  0.3544  0.7113
12452TIP3   OH258846   2.165   6.754  11.056  0.2373  0.3513 -0.0490
12452TIP3    H158847   2.168   6.747  10.961  1.1245  1.3763 -0.1104
12452TIP3    H258848   2.073   6.773  11.076 -0.3602 -1.7980 -0.5262
12453TIP3   OH258849   6.416   4.245   3.948 -0.3061 -0.2270 -0.2971
12453TIP3    H158850   6.393   4.243   4.040 -1.1118  1.9561 -0.3809
12453TIP3    H258851   6.356   4.183   3.906 -0.0013 -1.1544  0.6065
12454TIP3   OH258852   5.249   6.751   1.729  0.0671 -0.1346  0.1112
12454TIP3    H158853   5.234   6.749   1.635  2.4788  0.6580 -0.3718
12454TIP3    H258854   5.229   6.840   1.756  1.4765  0.2872 -0.1254
12455TIP3   OH258855   2.911   4.172   5.067  0.8078 -0.7937 -0.1267
12455TIP3    H158856   2.922   4.150   5.160 -0.9341  2.3765  0.9844
12455TIP3    H258857   2.817   4.187   5.057  1.2654  1.5747 -1.6615
12456TIP3   OH258858   5.842   4.511  11.079 -0.5370  0.3232 -0.4352
12456TIP3    H158859   5.774   4.493  11.014 -0.2952 -0.7629 -0.4174
12456TIP3    H258860   5.888   4.427  11.088 -0.3274  0.5695  0.8579
12457TIP3   OH258861   4.545   2.923  13.200  0.2758 -0.4405  0.4300
12457TIP3    H158862   4.512   2.834  13.214  1.2133 -0.8776 -0.0219
12457TIP3    H258863   4.484   2.961  13.138 -0.4573 -0.5700  1.0617
12458TIP3   OH258864   1.548   0.715   4.377  0.6560 -0.4993 -0.4758
12458TIP3    H158865   1.549   0.708   4.282 -1.9911  0.1554 -0.6376
12458TIP3    H258866   1.516   0.630   4.408  1.6972 -0.7798 -0.1352
12459TIP3   OH258867   5.492   0.468   2.158  0.1028 -0.2210  0.2951
12459TIP3    H158868   5.422   0.421   2.203  0.4879 -0.0602  1.0972
12459TIP3    H258869   5.454   0.553   2.137  0.3574  0.2812  1.7086
12460TIP3   OH258870   4.798   1.540  10.491 -0.7811 -0.0095  0.3167
12460TIP3    H158871   4.792   1.517  10.584 -2.9429 -0.8622  0.0144
12460TIP3    H258872   4.708   1.561  10.465 -0.3600 -0.5558 -1.7751
12461TIP3   OH258873   4.671   5.763   1.711  0.4032 -0.4709  0.4860
12461TIP3    H158874   4.741   5.701   1.731  1.5963  0.4939 -0.5166
12461TIP3    H258875   4.624   5.774   1.794  0.9043 -1.7836  0.9683
12462TIP3   OH258876   2.148   4.769   5.327  0.4063  0.0609 -0.5675
12462TIP3    H158877   2.155   4.812   5.242 -1.1423 -0.3850 -0.9613
12462TIP3    H258878   2.112   4.682   5.307  1.0578 -0.4615  0.4435
12463TIP3   OH258879   0.280   0.821   1.615 -0.1284 -0.0389  0.0295
12463TIP3    H158880   0.288   0.832   1.520 -0.4224 -2.2103 -0.2887
12463TIP3    H258881   0.242   0.734   1.626  1.7172 -0.6614  2.1932
12464TIP3   OH258882   4.300   0.908  14.019  0.2171  0.3260  0.0597
12464TIP3    H158883   4.298   0.986  14.074  1.4372  0.3606  0.0828
12464TIP3    H258884   4.251   0.932  13.941 -2.2623  0.0083  1.4320
12465TIP3   OH258885   5.601   5.724   1.208 -0.0356  0.7173 -0.3109
12465TIP3    H158886   5.655   5.653   1.242  0.1114 -1.0866 -3.9234
12465TIP3    H258887   5.655   5.802   1.218  0.2920  0.2547  2.5959
12466TIP3   OH258888   4.080   2.908  14.832  0.5771  0.5438 -0.4952
12466TIP3    H158889   4.128   2.891  14.913  0.3457  0.9852 -0.2651
12466TIP3    H258890   4.016   2.975  14.855 -1.3442 -1.2164 -0.3360
12467TIP3   OH258891   6.738   0.526  14.687  0.0288 -0.6934  0.2773
12467TIP3    H158892   6.702   0.438  14.685 -0.9896 -0.2913  0.4461
12467TIP3    H258893   6.734   0.551  14.780 -3.1668  0.8913 -0.1458
12468TIP3   OH258894   2.318   5.618   0.725 -0.4118 -0.2988 -0.1430
12468TIP3    H158895   2.408   5.609   0.693  0.4853  0.2984  2.0028
12468TIP3    H258896   2.278   5.533   0.708  1.3208 -1.4034  0.9247
12469TIP3   OH258897   5.365   3.418  15.367 -0.9341  0.2015  0.4353
12469TIP3    H158898   5.307   3.464  15.428  0.6036  1.3937  1.0736
12469TIP3    H258899   5.306   3.372  15.307 -2.5077  0.8959  1.3942
12470TIP3   OH258900   4.043   1.633  16.903 -0.1161 -0.0519  0.5558
12470TIP3    H158901   4.129   1.610  16.939  1.0851 -0.8037 -2.4721
12470TIP3    H258902   4.060   1.710  16.849 -1.4714  0.0918  0.3125
12471TIP3   OH258903   3.614   0.764   1.359 -0.1743 -0.0495  0.0626
12471TIP3    H158904   3.524   0.734   1.364 -0.7400  1.6385  0.7094
12471TIP3    H258905   3.607   0.859   1.348  1.5208  0.0820 -0.1464
12472TIP3   OH258906   5.208   5.866  13.980  0.3631 -0.2287  0.5080
12472TIP3    H158907   5.283   5.888  14.036  0.6375 -0.5915  0.2916
12472TIP3    H258908   5.150   5.941  13.986  1.0496  0.3343  0.1715
12473TIP3   OH258909   2.512   4.884  11.210  0.5811  0.1028  0.0120
12473TIP3    H158910   2.457   4.913  11.283 -0.2528 -1.8027  0.1957
12473TIP3    H258911   2.449   4.853  11.144  1.3250  1.7136 -1.5206
12474TIP3   OH258912   3.577   1.108  14.727 -0.0162  0.2120  0.3546
12474TIP3    H158913   3.593   1.053  14.804  2.8829 -0.1069 -0.3451
12474TIP3    H258914   3.600   1.053  14.652  2.5338  2.0729 -0.3948
12475TIP3   OH258915   0.973   0.889  12.753 -0.2046  0.4587 -0.4333
12475TIP3    H158916   0.930   0.869  12.670 -0.6920  0.3298 -0.1530
12475TIP3    H258917   0.904   0.880  12.819  0.0531  1.0524 -0.0726
12476TIP3   OH258918   3.562   3.768   0.671 -0.3438 -0.5863  0.1208
12476TIP3    H158919   3.505   3.781   0.747  0.2167 -1.6617  0.7455
12476TIP3    H258920   3.504   3.732   0.604 -0.2454 -2.6451  1.0814
12477TIP3   OH258921   6.295   6.485   6.196 -0.3602 -0.1424 -0.0372
12477TIP3    H158922   6.256   6.466   6.281 -0.1338  0.4049  0.1924
12477TIP3    H258923   6.264   6.414   6.139 -1.5640  0.1950  0.1723
12478TIP3   OH258924   3.404   5.034   2.464 -0.2806  0.6654 -0.0437
12478TIP3    H158925   3.334   5.068   2.520 -0.8462 -1.1092  0.3802
12478TIP3    H258926   3.369   5.040   2.375 -0.6846  0.4768  0.0990
12479TIP3   OH258927   3.876   4.161  12.997  0.0190 -0.4310  0.2370
12479TIP3    H158928   3.846   4.085  13.047 -0.3376 -0.4763 -0.0428
12479TIP3    H258929   3.959   4.185  13.038 -0.4856 -0.1952  1.1442
12480TIP3   OH258930   3.378   1.553  13.696 -0.3330 -0.0293  0.4171
12480TIP3    H158931   3.440   1.551  13.769 -0.0370 -0.0440  0.1658
12480TIP3    H258932   3.337   1.466  13.698  0.4626 -0.4202 -0.1090
12481TIP3   OH258933   6.549   0.236  14.684  0.6462  0.4229 -0.5390
12481TIP3    H158934   6.546   0.221  14.590  1.1968 -0.2450 -0.4538
12481TIP3    H258935   6.642   0.237  14.706  0.5165 -0.7266  0.1880
12482TIP3   OH258936   6.510   1.204   4.271 -0.0255 -0.2652  0.3267
12482TIP3    H158937   6.531   1.126   4.324  0.0372  0.0574  0.7872
12482TIP3    H258938   6.533   1.179   4.182  0.2545 -0.6836  0.5116
12483TIP3   OH258939   6.728   6.039  16.701 -0.2229  0.1868 -0.3470
12483TIP3    H158940   6.732   6.116  16.645  0.2437 -0.6517 -1.5016
12483TIP3    H258941   6.681   5.974  16.649  0.8937 -0.8606 -0.0898
12484TIP3   OH258942   0.472   6.705   2.049  0.2526 -0.2665  0.1332
12484TIP3    H158943   0.524   6.712   2.129  0.0519  2.1095  0.1141
12484TIP3    H258944   0.522   6.645   1.993  1.8122  0.1907  0.9710
12485TIP3   OH258945   3.951   3.404  16.406 -0.6619  0.2629 -0.5040
12485TIP3    H158946   3.883   3.467  16.429 -0.0623  0.7711 -0.0577
12485TIP3    H258947   3.995   3.443  16.331  1.1174  1.5115  1.0849
12486TIP3   OH258948   6.020   0.652  11.226  0.0287  0.0124  0.1572
12486TIP3    H158949   6.005   0.591  11.298 -1.5380  0.2940  0.1040
12486TIP3    H258950   5.988   0.606  11.149 -2.2088  1.2426  0.2657
12487TIP3   OH258951   4.978   0.897   5.697 -0.1375 -0.6717  0.1180
12487TIP3    H158952   4.936   0.815   5.722 -0.4051 -0.2096  1.2119
12487TIP3    H258953   5.063   0.896   5.742  0.4968 -0.9866 -1.0177
12488TIP3   OH258954   6.363   1.763   2.368 -0.3234 -0.1201 -0.4931
12488TIP3    H158955   6.340   1.763   2.461  1.4316 -0.6029 -0.0020
12488TIP3    H258956   6.436   1.700   2.363 -0.2222  0.1041 -2.1467
12489TIP3   OH258957   3.735   1.172  12.669 -0.0707 -0.0377 -0.4440
12489TIP3    H158958   3.685   1.118  12.730  0.5949 -1.8019 -1.3847
12489TIP3    H258959   3.790   1.227  12.725 -1.6387  0.5893  0.5601
12490TIP3   OH258960   3.449   1.905  15.177 -0.5049 -0.2886 -0.0316
12490TIP3    H158961   3.526   1.962  15.176 -2.5974  2.7766 -0.4855
12490TIP3    H258962   3.443   1.874  15.267  0.7363  0.1172  0.2075
12491TIP3   OH258963   1.003   4.617   5.227  0.2462  0.1196 -0.0979
12491TIP3    H158964   1.065   4.562   5.276 -1.6252  0.4210  2.8660
12491TIP3    H258965   1.042   4.704   5.229 -1.6863  1.2078  5.1892
12492TIP3   OH258966   0.654   0.673  14.167 -0.1311  0.0203 -0.4914
12492TIP3    H158967   0.748   0.683  14.149 -0.0202  1.9259  0.8253
12492TIP3    H258968   0.610   0.699  14.086  0.4600  0.2607 -0.7401
12493TIP3   OH258969   6.456   2.912  12.856 -0.0611  0.2448  0.9233
12493TIP3    H158970   6.446   2.868  12.771 -0.2619  1.2409  0.4095
12493TIP3    H258971   6.482   2.842  12.916 -0.6398 -0.6254  0.2063
12494TIP3   OH258972   5.681   2.133  12.003  0.0565 -0.2604  0.1559
12494TIP3    H158973   5.620   2.182  12.058 -1.7222 -1.9056 -0.2202
12494TIP3    H258974   5.736   2.085  12.064  1.1547  1.3874  0.5081
12495TIP3   OH258975   6.852   6.286  14.623 -0.5357 -0.3555 -0.0236
12495TIP3    H158976   6.891   6.286  14.710 -0.4765 -0.8424 -0.0487
12495TIP3    H258977   6.830   6.194  14.606 -2.2058 -0.0357  0.2072
12496TIP3   OH258978   3.913   4.869   0.785 -0.5750 -0.0415 -0.2477
12496TIP3    H158979   3.992   4.917   0.811 -1.4179 -0.4123  3.4514
12496TIP3    H258980   3.843   4.934   0.789 -0.8385 -0.2368 -1.3136
12497TIP3   OH258981   6.597   3.628   2.579  0.1422  0.0525 -0.2620
12497TIP3    H158982   6.603   3.614   2.673  1.8816  0.0421 -0.3454
12497TIP3    H258983   6.679   3.672   2.556 -0.5138  0.5982 -1.6806
12498TIP3   OH258984   1.126   1.040   5.494  0.3652  0.2294 -0.4662
12498TIP3    H158985   1.125   1.131   5.464  0.4577  0.4318  0.1366
12498TIP3    H258986   1.043   1.004   5.464  0.4713  0.4124 -1.0004
12499TIP3   OH258987   5.926   3.684   0.751  0.4685  0.3366  0.7557
12499TIP3    H158988   5.875   3.724   0.680  0.6835  1.0396  0.9824
12499TIP3    H258989   5.983   3.755   0.781  1.8308 -0.5271  0.2847
12500TIP3   OH258990   2.163   5.646   2.201  0.0876  0.1936 -0.2210
12500TIP3    H158991   2.200   5.559   2.214  0.6903  0.1877 -1.7159
12500TIP3    H258992   2.232   5.694   2.154 -0.6868  1.0990 -0.4663
12501TIP3   OH258993   2.267   5.634   0.276  0.0992  0.1746 -0.2537
12501TIP3    H158994   2.188   5.593   0.312 -0.1391 -1.1061 -2.1195
12501TIP3    H258995   2.339   5.587   0.318 -0.1506 -0.3069 -0.3573
12502TIP3   OH258996   6.529   4.381  11.688  0.0094 -1.1033  0.4282
12502TIP3    H158997   6.531   4.476  11.678 -0.9726 -1.1717 -0.8392
12502TIP3    H258998   6.501   4.367  11.778 -1.4228 -0.1404  0.1779
12503TIP3   OH258999   5.511   0.229  12.494 -0.2845 -0.4541 -0.0637
12503TIP3    H159000   5.471   0.181  12.567  0.1368 -0.3099  0.2717
12503TIP3    H259001   5.508   0.168  12.421 -2.6023  0.1239 -0.5283
12504TIP3   OH259002   5.379   6.726  11.140  0.4324  0.0682 -0.2161
12504TIP3    H159003   5.382   6.690  11.051  0.6072  0.7614 -0.5014
12504TIP3    H259004   5.377   6.821  11.127 -2.7260  0.1869  0.4176
12505TIP3   OH259005   5.223   3.449   0.058 -0.8118  0.5314  0.1142
12505TIP3    H159006   5.146   3.393   0.052 -1.7315  1.5794  1.5340
12505TIP3    H259007   5.291   3.393   0.095 -1.7970  0.3647  1.7735
12506TIP3   OH259008   1.639   6.561  14.006 -0.3916  0.5406 -0.6225
12506TIP3    H159009   1.728   6.594  14.014 -0.4974  0.7606 -0.3590
12506TIP3    H259010   1.610   6.593  13.920 -0.0290  0.0114 -0.9474
12507TIP3   OH259011   4.239   0.737  13.716 -0.5662  0.0743 -0.7434
12507TIP3    H159012   4.243   0.642  13.715 -1.1872  0.0078  0.5511
12507TIP3    H259013   4.212   0.761  13.628  2.9145 -0.7157 -2.1937
12508TIP3   OH259014   3.833   5.399  16.488  0.2891 -0.2477 -0.0397
12508TIP3    H159015   3.787   5.483  16.485 -1.6800 -1.1901  1.4340
12508TIP3    H259016   3.885   5.403  16.568  2.1774  0.4434 -1.2216
12509TIP3   OH259017   1.780   6.823   3.953  0.1635 -0.1593  0.6618
12509TIP3    H159018   1.760   6.848   4.043  1.8250  1.4025  0.6555
12509TIP3    H259019   1.828   6.740   3.962 -0.5707 -0.5442  1.1219
12510TIP3   OH259020   2.566   5.859   1.946  0.1988 -0.0667  0.0128
12510TIP3    H159021   2.483   5.885   1.987  0.9130  0.1743  1.3632
12510TIP3    H259022   2.621   5.936   1.952  1.2303 -0.8520  1.0570
12511TIP3   OH259023   1.462   1.116  14.714  0.4024  0.1241 -0.4444
12511TIP3    H159024   1.461   1.024  14.740  1.4566  0.0452 -0.6456
12511TIP3    H259025   1.555   1.139  14.711  0.1397  1.2507 -0.2119
12512TIP3   OH259026   1.338   6.067   4.152 -0.1975 -0.0848 -0.4547
12512TIP3    H159027   1.414   6.125   4.160  0.3963 -0.7515 -1.0997
12512TIP3    H259028   1.263   6.122   4.172  0.4041  0.7554 -0.4772
12513TIP3   OH259029   0.558   5.442   5.376 -0.6987  0.1796  0.6037
12513TIP3    H159030   0.590   5.474   5.460 -2.1881  0.5454  1.0762
12513TIP3    H259031   0.548   5.347   5.389 -1.1500  0.2654  0.9448
12514TIP3   OH259032   0.995   1.152  12.723  0.4161  0.2586  0.4433
12514TIP3    H159033   0.952   1.067  12.731  1.1702 -0.0519  1.2141
12514TIP3    H259034   0.968   1.200  12.802  1.4178  0.0884  0.8974
12515TIP3   OH259035   1.520   0.316  14.924 -0.1622 -0.6212  0.2402
12515TIP3    H159036   1.507   0.341  15.016 -3.7536  2.1513 -0.7716
12515TIP3    H259037   1.522   0.399  14.876  1.9896 -1.9566 -2.2298
12516TIP3   OH259038   3.670   4.766  16.025  0.3271  0.0858  0.4083
12516TIP3    H159039   3.720   4.844  16.000  1.7384 -0.9320 -0.0774
12516TIP3    H259040   3.586   4.776  15.980 -0.1250  2.0269  1.5546
12517TIP3   OH259041   6.645   3.415   3.957  0.0365 -0.5869 -0.2684
12517TIP3    H159042   6.677   3.446   3.872  0.4829 -1.3217 -0.3743
12517TIP3    H259043   6.583   3.345   3.935 -0.0662 -0.5806 -0.0011
12518TIP3   OH259044   0.725   6.266   3.092 -0.0888 -0.0885 -0.6564
12518TIP3    H159045   0.794   6.202   3.072  0.5182  0.3827 -0.1374
12518TIP3    H259046   0.764   6.351   3.068 -0.9636  0.0803 -1.5454
12519TIP3   OH259047   3.861   0.030  16.128  0.0152  0.1947  0.3239
12519TIP3    H159048   3.802   0.086  16.076 -0.9154  1.0639  2.1922
12519TIP3    H259049   3.949   0.062  16.107 -0.3493  0.6853 -0.5203
12520TIP3   OH259050   0.373   5.831   1.514 -0.0692 -0.2074  0.7142
12520TIP3    H159051   0.430   5.839   1.438 -1.2438 -0.2705 -0.2011
12520TIP3    H259052   0.390   5.743   1.547  1.3388  0.2484  1.2928
12521TIP3   OH259053   5.726   5.707  15.662  0.0012 -0.1377 -0.0391
12521TIP3    H159054   5.761   5.796  15.666 -0.3555 -0.0200  0.5356
12521TIP3    H259055   5.668   5.708  15.586 -1.4015  0.6426  1.0001
12522TIP3   OH259056   4.771   1.403  10.733 -0.2235 -0.1364  0.0075
12522TIP3    H159057   4.792   1.321  10.779  1.2408  0.7499  0.9922
12522TIP3    H259058   4.675   1.402  10.727 -0.2072 -2.2789 -0.7245
12523TIP3   OH259059   5.968   4.467   2.148 -0.2178  0.1775  0.0228
12523TIP3    H159060   6.063   4.472   2.150 -0.2244  0.9871 -1.1088
12523TIP3    H259061   5.939   4.557   2.132 -1.2193  0.1182  1.3418
12524TIP3   OH259062   6.678   5.620   4.185 -0.2443  0.1422 -0.8069
12524TIP3    H159063   6.592   5.614   4.144 -0.5128  2.5316 -0.7054
12524TIP3    H259064   6.736   5.571   4.127 -1.6675 -1.7071 -0.7539
12525TIP3   OH259065   4.271   0.074   5.458  0.4382 -0.4865 -0.2293
12525TIP3    H159066   4.251  -0.003   5.404 -0.4480 -1.7462  1.7763
12525TIP3    H259067   4.208   0.069   5.530  3.0144 -0.2040  2.2070
12526TIP3   OH259068   4.343   5.209   3.904  0.1655  0.4097  0.2859
12526TIP3    H159069   4.418   5.250   3.948  1.3124 -1.0690 -0.2216
12526TIP3    H259070   4.376   5.125   3.873 -1.5115  0.0395 -0.6182
12527TIP3   OH259071   5.486   3.685   5.104  0.0254 -0.3995 -0.0006
12527TIP3    H159072   5.530   3.760   5.145 -1.8801 -1.2599  4.1246
12527TIP3    H259073   5.429   3.724   5.038  0.5157  1.5897  0.6699
12528TIP3   OH259074   3.402   6.629   3.713  0.2700 -0.3797  0.5336
12528TIP3    H159075   3.411   6.537   3.740 -0.4036  0.0107  2.2288
12528TIP3    H259076   3.331   6.628   3.649 -2.0695 -0.6831  2.9599
12529TIP3   OH259077   3.150   4.455   5.229 -0.1578  0.2175  0.3425
12529TIP3    H159078   3.215   4.420   5.169  0.2978  0.2512  0.8033
12529TIP3    H259079   3.134   4.384   5.291  0.3542  0.6136  0.9501
12530TIP3   OH259080   1.906   6.483   3.933 -0.2644  0.2530  0.6246
12530TIP3    H159081   1.901   6.571   3.970  0.0393 -0.1036  1.5483
12530TIP3    H259082   1.948   6.496   3.848  0.6304  0.9005  1.1409
12531TIP3   OH259083   1.273   3.465   3.580  0.7718 -0.1400  0.0203
12531TIP3    H159084   1.204   3.416   3.534  0.3465  0.1270  0.3591
12531TIP3    H259085   1.332   3.398   3.613 -1.0611 -0.6775  2.5409
12532TIP3   OH259086   0.593   2.149   5.494  0.2482 -0.6357 -0.6311
12532TIP3    H159087   0.563   2.102   5.572  0.9469 -1.3649 -0.7799
12532TIP3    H259088   0.617   2.236   5.526 -1.1434 -0.3332 -0.3583
12533TIP3   OH259089   1.972   4.386   3.906 -0.3611  0.5278  0.0028
12533TIP3    H159090   1.994   4.336   3.985 -1.1302 -2.0582 -1.3234
12533TIP3    H259091   2.037   4.456   3.904 -0.5380  0.9511  3.0842
12534TIP3   OH259092   0.899   6.503   4.745  0.1991  0.0635 -0.2101
12534TIP3    H159093   0.808   6.519   4.719  0.2478 -0.1696 -0.5214
12534TIP3    H259094   0.892   6.439   4.816  0.1398 -0.2695 -0.5092
12535TIP3   OH259095   2.832   1.586  12.997 -0.3620 -0.2425  0.7479
12535TIP3    H159096   2.836   1.663  12.941 -0.0774  0.3143  1.5086
12535TIP3    H259097   2.812   1.513  12.938  0.4097  0.2467 -0.1311
12536TIP3   OH259098   2.122   2.669  14.349 -0.1140 -0.5011  0.2594
12536TIP3    H159099   2.164   2.747  14.387 -1.6753 -0.1468  1.3757
12536TIP3    H259100   2.087   2.699  14.265  0.6628 -0.4496 -0.0582
12537TIP3   OH259101   5.904   6.387  16.866  0.0535 -0.1069 -0.7342
12537TIP3    H159102   5.830   6.369  16.809 -0.7983 -0.9969  0.6180
12537TIP3    H259103   5.972   6.325  16.839  0.2625  0.5567 -1.8172
12538TIP3   OH259104   5.788   5.950  15.556  0.4122 -0.1097 -0.3089
12538TIP3    H159105   5.746   6.030  15.587  0.4722 -0.0439 -0.3988
12538TIP3    H259106   5.807   5.966  15.464 -0.8631 -0.7570 -0.7167
12539TIP3   OH259107   1.315   2.763  15.055 -0.4866  0.3465  0.2520
12539TIP3    H159108   1.389   2.723  15.010 -0.3879 -0.0917  0.8003
12539TIP3    H259109   1.268   2.690  15.095  0.3231  0.8503  2.2146
12540TIP3   OH259110   0.074   1.274   1.677  0.2101 -0.4060  0.2287
12540TIP3    H159111   0.070   1.179   1.666 -0.5169 -0.1053 -2.8295
12540TIP3    H259112   0.028   1.290   1.759  0.2530 -2.6679  0.7655
12541TIP3   OH259113   6.352   4.025  13.325  0.5032  0.6544 -0.6393
12541TIP3    H159114   6.424   4.062  13.377 -1.3955  2.1421  1.0562
12541TIP3    H259115   6.356   4.072  13.242  1.3315  0.8722 -0.4881
12542TIP3   OH259116   4.544   3.286   4.388  0.5421 -0.4940  0.0331
12542TIP3    H159117   4.562   3.319   4.300  1.9607 -2.8261 -0.6283
12542TIP3    H259118   4.592   3.346   4.446 -1.9013  2.2048 -0.5017
12543TIP3   OH259119   1.394   0.532   0.549 -0.3497 -0.1076 -0.7518
12543TIP3    H159120   1.393   0.574   0.635  0.8060 -0.9048 -0.3324
12543TIP3    H259121   1.433   0.596   0.490 -1.2686  0.4920 -0.7266
12544TIP3   OH259122   0.217   6.268   0.034  0.1839  0.0262  0.5510
12544TIP3    H159123   0.258   6.355   0.038 -0.5424  0.3266  2.1226
12544TIP3    H259124   0.132   6.280   0.077  0.6981 -1.8010  2.1904
12545TIP3   OH259125   4.218   3.968  12.198 -0.2958 -0.0612  0.0095
12545TIP3    H159126   4.186   4.055  12.223 -0.7489 -0.4843  0.9772
12545TIP3    H259127   4.158   3.907  12.242 -0.5569 -0.8699 -1.4098
12546TIP3   OH259128   5.477   4.495   0.143  0.0912 -0.1173 -0.0195
12546TIP3    H159129   5.557   4.453   0.113  1.4307  2.3431 -0.1927
12546TIP3    H259130   5.502   4.587   0.157 -2.0650  0.2125  2.4683
12547TIP3   OH259131   2.626   6.510  15.476 -0.2186 -0.0140 -0.1028
12547TIP3    H159132   2.637   6.521  15.381  1.4440  0.0140  0.0559
12547TIP3    H259133   2.578   6.428  15.485 -1.0466  0.3463 -0.9754
12548TIP3   OH259134   0.427   6.409   0.198  0.1375 -0.3207 -0.5414
12548TIP3    H159135   0.484   6.346   0.242  1.0619  0.3932 -0.6774
12548TIP3    H259136   0.486   6.477   0.168 -0.9720  1.2947  0.7558
12549TIP3   OH259137   2.333   1.166  17.025 -1.0524 -0.2081 -0.2879
12549TIP3    H159138   2.331   1.072  17.043 -0.4381 -0.2542 -0.4289
12549TIP3    H259139   2.408   1.198  17.076 -1.3398  0.2259 -0.1388
12550TIP3   OH259140   0.181   2.914  16.630  0.3753 -0.3090  0.3261
12550TIP3    H159141   0.202   2.952  16.545 -1.7802  0.9828  0.3195
12550TIP3    H259142   0.141   2.830  16.609 -1.8089  0.7723 -0.1061
12551TIP3   OH259143   2.114   3.132   0.032 -0.4330 -0.3994 -0.2933
12551TIP3    H159144   2.069   3.110   0.113  0.2847 -0.9156 -0.0293
12551TIP3    H259145   2.194   3.079   0.033 -0.6607 -0.8139 -1.5771
12552TIP3   OH259146   1.603   4.544  14.324  0.0758  0.0031 -0.1112
12552TIP3    H159147   1.648   4.570  14.243  1.1996 -0.0052  0.5009
12552TIP3    H259148   1.653   4.584  14.394 -0.6323 -0.3610  0.6214
12553TIP3   OH259149   4.837   1.227  15.410  0.7482 -0.4167 -0.5932
12553TIP3    H159150   4.864   1.162  15.346  1.6464 -0.8612  0.2212
12553TIP3    H259151   4.885   1.205  15.489 -1.6068 -0.9295  0.7904
12554TIP3   OH259152   0.429   5.928  12.840  1.0592 -0.2319  0.5769
12554TIP3    H159153   0.479   5.865  12.788  2.1493  0.1578  1.1428
12554TIP3    H259154   0.342   5.927  12.800  1.1928 -1.7115  0.2542
12555TIP3   OH259155   4.607   6.182  10.393 -0.3754 -0.1208  0.6883
12555TIP3    H159156   4.608   6.206  10.485  0.1847 -1.4067  1.0406
12555TIP3    H259157   4.525   6.132  10.382 -1.3696  1.5612  0.0410
12556TIP3   OH259158   6.789   0.449  11.041  0.0187 -0.5149 -0.1648
12556TIP3    H159159   6.708   0.447  10.990  0.0357  2.9346 -0.5556
12556TIP3    H259160   6.854   0.407  10.984 -0.8968 -0.7485 -1.0729
12557TIP3   OH259161   2.400   1.573   3.194 -0.1287  0.2130  0.1526
12557TIP3    H159162   2.369   1.524   3.118  0.8948  1.2942 -0.9996
12557TIP3    H259163   2.423   1.505   3.258 -0.9985 -0.7156 -0.4797
12558TIP3   OH259164   6.799   0.108  11.725 -0.1411  0.9846 -0.1802
12558TIP3    H159165   6.732   0.175  11.734 -1.9863 -0.7699 -0.0006
12558TIP3    H259166   6.811   0.097  11.631 -3.1437 -1.3610 -0.4589
12559TIP3   OH259167   0.671   2.431  11.937 -0.0294  0.3231  0.2938
12559TIP3    H159168   0.653   2.490  11.864 -0.5890 -0.8428 -0.5291
12559TIP3    H259169   0.698   2.349  11.896  1.1189  0.0939  1.4270
12560TIP3   OH259170   5.037   0.052   6.230 -0.4756 -0.1696 -0.3057
12560TIP3    H159171   5.047   0.007   6.314 -1.2622  0.1081 -0.0479
12560TIP3    H259172   5.090   0.131   6.238  1.2183 -1.2121 -0.9045
12561TIP3   OH259173   5.030   1.304   5.831 -0.7491  0.3872  0.0274
12561TIP3    H159174   4.995   1.236   5.889  2.1386 -0.4765  0.9317
12561TIP3    H259175   5.042   1.260   5.748 -1.0920  0.4900 -0.0801
12562TIP3   OH259176   2.542   3.351   0.877 -0.4413  0.2946 -0.1696
12562TIP3    H159177   2.536   3.341   0.782  1.2413  0.7935 -0.3610
12562TIP3    H259178   2.603   3.424   0.890  2.5984 -2.2284  1.2686
12563TIP3   OH259179   1.296   3.896  11.403  0.2032  0.0867 -0.3464
12563TIP3    H159180   1.280   3.828  11.338  0.3378 -0.7451  0.4681
12563TIP3    H259181   1.220   3.955  11.396 -0.1856 -0.4475 -0.6823
12564TIP3   OH259182   6.614   5.327  11.985  0.1066 -0.5345  0.1438
12564TIP3    H159183   6.569   5.380  12.051 -0.6220 -1.4156  0.3795
12564TIP3    H259184   6.572   5.241  11.991  0.5864 -0.8606 -0.9095
12565TIP3   OH259185   2.018   2.451  14.538 -0.0387  0.1788 -0.0614
12565TIP3    H159186   2.041   2.527  14.485 -0.2807 -0.2901 -0.8500
12565TIP3    H259187   1.923   2.453  14.544 -0.2229 -1.1422 -1.7685
12566TIP3   OH259188   3.284   3.181  12.374  0.2240 -0.1997 -0.4975
12566TIP3    H159189   3.357   3.169  12.435 -1.0906  0.5262  1.3045
12566TIP3    H259190   3.304   3.264  12.329 -0.5352  1.1902  1.6164
12567TIP3   OH259191   5.490   2.053   2.154  0.4619  0.0202  0.3286
12567TIP3    H159192   5.516   2.124   2.096  1.3286 -0.8726 -0.4141
12567TIP3    H259193   5.396   2.041   2.136  0.4573  0.5339 -0.0097
12568TIP3   OH259194   6.586   0.255  15.100 -0.2647  0.1302  0.3587
12568TIP3    H159195   6.679   0.251  15.080 -0.4708 -1.6767 -0.3830
12568TIP3    H259196   6.559   0.342  15.071  1.0967  0.5235  0.2121
12569TIP3   OH259197   6.532   4.760  13.786  0.2333 -0.7952 -0.3026
12569TIP3    H159198   6.617   4.796  13.762  0.1618 -0.2577  0.2159
12569TIP3    H259199   6.521   4.783  13.878  0.2738 -2.3530  0.1105
12570TIP3   OH259200   4.087   2.376   1.169  0.5658 -0.5082 -0.1383
12570TIP3    H159201   4.103   2.439   1.099  1.5645 -1.4584 -0.7907
12570TIP3    H259202   4.012   2.325   1.139 -0.6025  0.6812  0.6400
12571TIP3   OH259203   2.493   3.322   4.777 -0.0700 -0.4149  0.6053
12571TIP3    H159204   2.569   3.380   4.775 -0.6537  0.3707  0.0496
12571TIP3    H259205   2.523   3.240   4.739  0.4843 -0.0839  0.3185
12572TIP3   OH259206   2.602   5.273  12.078 -0.3040 -0.0763  0.2147
12572TIP3    H159207   2.628   5.234  12.161  1.8503  2.1284  0.7036
12572TIP3    H259208   2.649   5.357  12.075  1.6201 -0.9973 -4.2161
12573TIP3   OH259209   2.908   6.500   1.937  0.2862 -0.4301  0.5115
12573TIP3    H159210   2.988   6.476   1.984  0.8397  0.1881 -0.0953
12573TIP3    H259211   2.939   6.539   1.855 -0.6565 -1.1365 -0.1998
12574TIP3   OH259212   1.296   0.959   3.621  0.4168 -0.3117 -0.7364
12574TIP3    H159213   1.264   1.043   3.586 -0.3858 -0.7939 -1.1786
12574TIP3    H259214   1.294   0.971   3.716 -0.2640 -0.0331 -0.7797
12575TIP3   OH259215   1.328   3.495   5.615  0.2860 -0.6426 -0.2485
12575TIP3    H159216   1.363   3.542   5.540 -1.2196  0.5016 -0.2640
12575TIP3    H259217   1.281   3.421   5.577 -0.8769  0.1971 -0.5008
12576TIP3   OH259218   0.192   3.589  12.859 -0.5066 -0.2140 -0.2645
12576TIP3    H159219   0.181   3.683  12.873  0.0964 -0.2814  0.7021
12576TIP3    H259220   0.268   3.582  12.801 -1.4134 -0.0588 -1.5202
12577TIP3   OH259221   2.317   2.707  15.145  0.3383 -0.3820 -0.5478
12577TIP3    H159222   2.232   2.726  15.185  0.8538 -1.2320  1.0132
12577TIP3    H259223   2.380   2.717  15.215  1.7539  1.5838 -2.0007
12578TIP3   OH259224   5.174   4.021  13.680 -0.7417  0.1698 -0.3801
12578TIP3    H159225   5.168   4.062  13.594 -0.9789  0.8298 -0.0547
12578TIP3    H259226   5.144   4.089  13.741  1.9474  0.6580  0.5081
12579TIP3   OH259227   2.548   3.545  17.119 -0.1505  0.0723 -0.5038
12579TIP3    H159228   2.625   3.572  17.070  0.0523 -0.5087 -0.5072
12579TIP3    H259229   2.580   3.528  17.207  0.2636 -2.6942 -1.1001
12580TIP3   OH259230   5.495   3.343  11.957  0.1461  0.3162 -0.2365
12580TIP3    H159231   5.543   3.322  11.877  1.1094 -1.6747  0.7995
12580TIP3    H259232   5.562   3.368  12.020 -0.4729  0.5331  0.3548
12581TIP3   OH259233   1.085   4.332   6.267  0.3600 -0.2438  0.0132
12581TIP3    H159234   1.018   4.265   6.280  0.9684 -0.7542  0.5446
12581TIP3    H259235   1.036   4.409   6.238 -0.3868 -0.7975 -0.2199
12582TIP3   OH259236   3.333   1.661  14.972 -0.3226 -0.5275 -0.2888
12582TIP3    H159237   3.377   1.735  15.013 -1.7990  1.2690 -1.7288
12582TIP3    H259238   3.386   1.642  14.894  0.4539 -1.4878  0.4629
12583TIP3   OH259239   0.595   0.332  11.754 -0.2847  0.3145 -0.8177
12583TIP3    H159240   0.529   0.388  11.793 -0.3793  0.1274 -0.7075
12583TIP3    H259241   0.554   0.298  11.675 -0.8315 -0.8886 -0.0402
12584TIP3   OH259242   2.978   1.061  16.140  0.4415  0.1397 -0.1011
12584TIP3    H159243   3.043   1.066  16.070  0.7138  0.6365  0.1756
12584TIP3    H259244   2.917   1.132  16.120 -0.2067 -0.5372 -0.5413
12585TIP3   OH259245   6.788   0.175   3.864  0.9153 -0.1112 -0.1975
12585TIP3    H159246   6.795   0.225   3.784  1.1027 -0.4025 -0.3658
12585TIP3    H259247   6.749   0.091   3.837  0.6159 -0.0647  0.0758
12586TIP3   OH259248   1.588   6.225  12.464 -0.4977  0.5907  0.1332
12586TIP3    H159249   1.580   6.152  12.525 -3.9759 -0.1975 -1.0273
12586TIP3    H259250   1.654   6.196  12.400 -0.4882 -0.7317  0.7157
12587TIP3   OH259251   1.558   3.711   4.264 -0.2814  0.1307  0.2166
12587TIP3    H159252   1.641   3.663   4.258 -2.0854 -3.1559 -1.9226
12587TIP3    H259253   1.517   3.677   4.344 -0.6550 -0.2850 -0.1471
12588TIP3   OH259254   2.786   5.325   0.587 -0.2343  0.4659 -0.1383
12588TIP3    H159255   2.876   5.294   0.597  0.7091  3.3037  1.2647
12588TIP3    H259256   2.791   5.393   0.520 -1.0849  1.3904  0.7045
12589TIP3   OH259257   5.096   2.183  12.161  0.2187 -0.5517  0.3246
12589TIP3    H159258   5.026   2.216  12.217  2.3784  1.1177  2.2546
12589TIP3    H259259   5.096   2.242  12.085  1.3401  1.4093  1.7522
12590TIP3   OH259260   6.734   5.213  13.665 -0.0042 -0.2849 -0.1811
12590TIP3    H159261   6.820   5.186  13.634 -0.4619 -0.6271 -1.2358
12590TIP3    H259262   6.750   5.291  13.718  1.0010 -0.6691  0.0934
12591TIP3   OH259263   6.046   4.896  14.952 -0.2282 -0.6691  0.4962
12591TIP3    H159264   6.040   4.803  14.977  0.5933 -0.8817 -0.0677
12591TIP3    H259265   5.976   4.909  14.888 -1.2279 -0.5503  1.5794
12592TIP3   OH259266   5.478   2.861   0.091  0.4096  0.4391 -0.1338
12592TIP3    H159267   5.567   2.837   0.063 -0.7727 -1.5492 -2.5542
12592TIP3    H259268   5.477   2.845   0.185  1.9763 -1.7104 -0.4203
12593TIP3   OH259269   4.311   4.134   4.593 -0.0806  0.1401 -0.3511
12593TIP3    H159270   4.312   4.160   4.685 -1.7816  0.2172 -0.3183
12593TIP3    H259271   4.396   4.093   4.578  0.1428 -0.0524  1.3108
12594TIP3   OH259272   4.437   2.754  15.823  0.1156 -0.1207 -0.2820
12594TIP3    H159273   4.477   2.789  15.903  0.8728 -1.2227 -0.1602
12594TIP3    H259274   4.366   2.815  15.803  0.7840  0.9365  0.4592
12595TIP3   OH259275   0.423   2.266  16.118 -0.3512  0.0895  0.3642
12595TIP3    H159276   0.374   2.193  16.080  1.1573 -0.4155 -0.6930
12595TIP3    H259277   0.386   2.276  16.206 -2.7702  0.1739 -0.5868
12596TIP3   OH259278   6.277   4.174  13.941 -0.1438  0.1681  0.2919
12596TIP3    H159279   6.184   4.190  13.926 -0.4626 -2.2507 -0.7455
12596TIP3    H259280   6.313   4.160  13.853  0.3074 -2.9525  0.8580
12597TIP3   OH259281   5.235   5.052  15.472 -0.1341 -0.3236  0.0339
12597TIP3    H159282   5.272   5.045  15.384  0.7529  2.0887  0.1654
12597TIP3    H259283   5.302   5.016  15.529 -0.5333 -1.4842 -0.1843
12598TIP3   OH259284   3.114   6.369   5.660  0.8305 -0.2387 -0.3402
12598TIP3    H159285   3.160   6.451   5.642 -0.2226  0.6181  0.7078
12598TIP3    H259286   3.032   6.396   5.700  0.2183 -1.8005 -0.4600
12599TIP3   OH259287   4.038   0.633  16.364 -0.3018  0.2697 -0.4076
12599TIP3    H159288   4.109   0.682  16.322  1.7760 -0.5482  1.8487
12599TIP3    H259289   4.048   0.544  16.330  1.0436 -0.2716  1.2532
12600TIP3   OH259290   4.795   3.294  12.069  0.4072 -0.5432 -0.1686
12600TIP3    H159291   4.887   3.307  12.091  0.3039  0.0928 -0.1050
12600TIP3    H259292   4.758   3.250  12.146  0.5809 -0.4883 -0.0528
12601TIP3   OH259293   3.771   6.474   5.462 -0.2816  0.3665 -0.2623
12601TIP3    H159294   3.695   6.533   5.456 -0.1694  0.6708  1.1593
12601TIP3    H259295   3.744   6.407   5.524  0.5181  0.3184  0.0377
12602TIP3   OH259296   4.593   2.277  15.067 -0.0665  0.0107 -0.1728
12602TIP3    H159297   4.597   2.201  15.125  1.3978  0.5928  0.5198
12602TIP3    H259298   4.587   2.352  15.126 -1.5042  0.4801 -0.8515
12603TIP3   OH259299   4.693   3.756   2.034  0.2250  0.3694  0.2021
12603TIP3    H159300   4.755   3.818   2.072  1.9965 -1.1179 -0.1167
12603TIP3    H259301   4.691   3.683   2.096 -0.9722  0.2362  0.0315
12604TIP3   OH259302   1.092   1.344  15.678 -0.3243  0.2162 -0.0548
12604TIP3    H159303   0.996   1.341  15.671 -0.2317  0.4146 -2.0221
12604TIP3    H259304   1.113   1.437  15.685 -0.2600  0.2385 -0.4688
12605TIP3   OH259305   2.166   4.165  16.678  0.6643 -0.5932 -0.0773
12605TIP3    H159306   2.230   4.104  16.715 -1.0813 -2.0241  0.7325
12605TIP3    H259307   2.100   4.109  16.637 -1.0040  0.7148  0.6781
12606TIP3   OH259308   2.208   4.357   3.066 -0.5219  0.2292 -0.0706
12606TIP3    H159309   2.274   4.349   2.998  0.9025  1.0911  1.1592
12606TIP3    H259310   2.162   4.272   3.065  0.8877 -0.5522 -0.6537
12607TIP3   OH259311   5.770   5.522  14.702  0.0111  0.2410  0.0900
12607TIP3    H159312   5.726   5.587  14.647  0.7292 -1.2064 -2.3850
12607TIP3    H259313   5.813   5.573  14.770 -1.0212  2.1475 -0.6014
12608TIP3   OH259314   4.074   3.112   5.902 -0.1473 -0.0032  0.1805
12608TIP3    H159315   4.125   3.046   5.855 -0.0626  1.4557 -1.9205
12608TIP3    H259316   3.991   3.068   5.923 -0.6520 -0.4363 -2.4070
12609TIP3   OH259317   0.325   2.321   5.277  0.3491  0.3240  0.6202
12609TIP3    H159318   0.376   2.400   5.297  0.5838  0.4449 -0.4098
12609TIP3    H259319   0.253   2.353   5.222  1.5791 -0.4225 -1.5636
12610TIP3   OH259320   5.464   2.093   0.846  0.0495 -0.3073  0.2414
12610TIP3    H159321   5.517   2.172   0.858 -0.5818  0.6219 -2.4724
12610TIP3    H259322   5.482   2.040   0.924 -0.2504  2.8881  2.6999
12611TIP3   OH259323   0.067   0.475  15.267  0.3214  0.3814  0.5533
12611TIP3    H159324   0.036   0.551  15.218  1.2216  0.4933  0.1379
12611TIP3    H259325   0.029   0.400  15.222  0.9484  0.4960 -0.1848
12612TIP3   OH259326   6.098   2.013   1.715 -0.6179  0.3770 -0.9635
12612TIP3    H159327   6.038   2.087   1.704  0.1568  0.9482 -1.4841
12612TIP3    H259328   6.138   2.027   1.801 -0.0210  0.9074 -1.3236
12613TIP3   OH259329   6.055   0.109   4.749  0.1487 -0.0910 -0.1720
12613TIP3    H159330   6.093   0.181   4.700 -0.7663  0.2494 -0.3945
12613TIP3    H259331   6.095   0.116   4.836  0.3351  0.4707 -0.2970
12614TIP3   OH259332   1.621   3.871  15.066 -0.1390 -0.1515 -0.2311
12614TIP3    H159333   1.627   3.843  14.975 -0.2889 -0.0744 -0.2657
12614TIP3    H259334   1.527   3.888  15.080 -0.2213 -0.8728  0.1534
12615TIP3   OH259335   4.833   0.910  11.259  0.1250  0.5960 -0.4811
12615TIP3    H159336   4.773   0.839  11.239  0.3953  0.3803 -0.5354
12615TIP3    H259337   4.779   0.989  11.258 -0.1853  0.3863 -0.3728
12616TIP3   OH259338   1.104   3.670  13.258  0.0342  0.4284 -0.1867
12616TIP3    H159339   1.022   3.622  13.262 -0.4399  1.2874  1.0991
12616TIP3    H259340   1.161   3.627  13.322  1.7182 -2.0271 -3.0693
12617TIP3   OH259341   6.411   1.223  14.745 -0.4288  0.3980  0.0847
12617TIP3    H159342   6.327   1.184  14.720  0.7651 -1.7958 -0.8347
12617TIP3    H259343   6.435   1.180  14.827 -0.2487  1.1272  0.4287
12618TIP3   OH259344   4.141   6.000  13.132 -0.5799 -0.0138 -0.4514
12618TIP3    H159345   4.048   6.023  13.132 -0.4329  1.0914 -3.5807
12618TIP3    H259346   4.186   6.080  13.158 -0.4457 -0.3968  0.5435
12619TIP3   OH259347   3.623   1.748  14.680 -0.2948 -0.0152  0.1331
12619TIP3    H159348   3.610   1.774  14.771  2.4407  0.3328  0.4961
12619TIP3    H259349   3.586   1.820  14.629  1.6299  1.7410  1.0642
12620TIP3   OH259350   6.643   4.180  15.601  0.6337  0.1986 -0.0915
12620TIP3    H159351   6.677   4.157  15.514  0.9684 -0.1888  0.1442
12620TIP3    H259352   6.593   4.103  15.628 -1.1148  1.0289 -0.7646
12621TIP3   OH259353   0.114   0.437   1.254  0.1399  0.1661 -0.0265
12621TIP3    H159354   0.048   0.409   1.190  0.6313 -1.5013  0.1509
12621TIP3    H259355   0.145   0.355   1.294  2.8319  0.7970 -0.6350
12622TIP3   OH259356   6.023   6.697  13.893  0.5637 -0.4747  0.7384
12622TIP3    H159357   6.010   6.609  13.858  0.1564 -0.4301  0.7633
12622TIP3    H259358   5.973   6.697  13.975 -0.8289  0.2758 -0.0574
12623TIP3   OH259359   6.700   1.442  11.233  0.0683  0.1506 -0.4554
12623TIP3    H159360   6.768   1.424  11.167 -1.0657 -0.8027 -1.3992
12623TIP3    H259361   6.744   1.426  11.317  0.9507 -0.6938 -1.0479
12624TIP3   OH259362   5.633   4.304   5.265  0.2782 -0.6242 -0.2302
12624TIP3    H159363   5.632   4.320   5.359  1.0796 -0.3819 -0.2553
12624TIP3    H259364   5.672   4.384   5.227  2.8286 -1.9079 -0.5009
12625TIP3   OH259365   1.544   6.691  15.195 -0.0183  0.0259  0.4232
12625TIP3    H159366   1.570   6.778  15.227 -0.2296  0.4582 -0.5321
12625TIP3    H259367   1.595   6.630  15.248  0.7929  0.7650  0.5189
12626TIP3   OH259368   3.498   4.303   4.794 -0.0867 -0.2079 -0.2067
12626TIP3    H159369   3.438   4.266   4.858  0.0725 -0.3358 -0.1314
12626TIP3    H259370   3.539   4.228   4.752 -1.3838 -0.1900 -1.6318
12627TIP3   OH259371   3.439   5.868   3.749 -0.1735  0.2699 -0.0240
12627TIP3    H159372   3.405   5.955   3.728  0.4616  0.8802  1.3196
12627TIP3    H259373   3.365   5.822   3.789 -0.4304  0.2946 -0.4683
12628TIP3   OH259374   0.717   1.938  15.542  0.2628  0.1139 -0.3084
12628TIP3    H159375   0.801   1.957  15.500  0.3572  0.2666 -0.0565
12628TIP3    H259376   0.739   1.926  15.635  0.5649 -3.3785 -0.7027
12629TIP3   OH259377   3.675   1.196  10.749  0.0589  0.0463  0.4305
12629TIP3    H159378   3.733   1.124  10.725  0.3398  0.1739  0.7308
12629TIP3    H259379   3.688   1.207  10.843  0.2312  0.6793  0.3316
12630TIP3   OH259380   5.398   0.894   2.012  0.4108 -0.3410  0.1592
12630TIP3    H159381   5.425   0.982   2.037  2.1956 -1.0974  1.0685
12630TIP3    H259382   5.425   0.839   2.086  0.3856 -1.8136 -0.8891
12631TIP3   OH259383   4.412   0.777  15.888  0.2706 -0.0522 -0.1590
12631TIP3    H159384   4.497   0.804  15.852 -0.2405 -0.2205 -1.5629
12631TIP3    H259385   4.401   0.831  15.966  0.6728  1.5878 -1.1749
12632TIP3   OH259386   3.039   6.155   2.664  0.4667  0.0838  0.2822
12632TIP3    H159387   2.987   6.076   2.650 -0.7361  1.0138 -0.8810
12632TIP3    H259388   3.124   6.135   2.626  0.2462 -0.7323  0.2038
12633TIP3   OH259389   3.710   3.848  11.705  0.2208 -0.1615  0.6547
12633TIP3    H159390   3.794   3.875  11.741 -0.5022  0.5104  1.8895
12633TIP3    H259391   3.648   3.914  11.735 -0.9597 -1.2534  0.7111
12634TIP3   OH259392   0.151   1.501  16.983  0.2251 -0.4288 -0.1695
12634TIP3    H159393   0.201   1.539  17.055 -0.9885 -0.0589  0.5017
12634TIP3    H259394   0.137   1.410  17.009  1.6110 -0.9006 -0.9583
12635TIP3   OH259395   3.829   2.903  11.804 -0.3126  0.4424 -0.4749
12635TIP3    H159396   3.856   2.962  11.874 -0.7475 -0.0347  0.1006
12635TIP3    H259397   3.908   2.853  11.782 -0.2435  0.4058 -0.1398
12636TIP3   OH259398   1.158   1.020   0.914 -0.5659  0.8625 -0.6583
12636TIP3    H159399   1.125   1.109   0.905 -0.8300  1.0844  1.8006
12636TIP3    H259400   1.105   0.982   0.984 -0.5792 -1.3212 -1.7783
12637TIP3   OH259401   6.613   2.410  12.630 -0.5165 -0.1036 -0.3805
12637TIP3    H159402   6.589   2.415  12.722 -1.6668  1.8349 -0.7509
12637TIP3    H259403   6.706   2.387  12.631 -0.0659  1.5942  1.3198
12638TIP3   OH259404   4.706   5.407   1.524  0.0138 -0.1405 -0.3215
12638TIP3    H159405   4.745   5.320   1.521  1.1962  0.3793 -0.9970
12638TIP3    H259406   4.684   5.421   1.616 -0.3482 -1.1998 -0.2341
12639TIP3   OH259407   6.568   5.247   4.356  0.2887  0.3039 -0.1761
12639TIP3    H159408   6.651   5.199   4.370 -0.3600 -1.0246 -0.7061
12639TIP3    H259409   6.560   5.254   4.261 -0.3375  0.1720 -0.1379
12640TIP3   OH259410   3.004   6.010  17.123 -0.1947 -0.3244  0.4375
12640TIP3    H159411   3.066   6.080  17.104  0.7265 -1.3988 -0.7167
12640TIP3    H259412   2.918   6.048  17.101  0.1295  0.8751  1.1686
12641TIP3   OH259413   2.330   4.257   3.376  0.0118  0.2616 -0.5705
12641TIP3    H159414   2.412   4.266   3.426 -1.0397  0.8722  1.1319
12641TIP3    H259415   2.321   4.341   3.330  1.2961 -0.5235 -2.4105
12642TIP3   OH259416   5.273   3.595  11.240 -0.2186  0.3652  0.2930
12642TIP3    H159417   5.322   3.603  11.158  0.6534  0.5915  0.8158
12642TIP3    H259418   5.207   3.528  11.222  0.7291 -0.4656 -0.2446
12643TIP3   OH259419   0.024   6.696  14.156 -0.7501 -0.4007  0.0193
12643TIP3    H159420   0.008   6.784  14.190 -1.7724 -0.2212 -0.8532
12643TIP3    H259421  -0.063   6.659  14.143 -0.3426 -1.3045 -0.2513
12644TIP3   OH259422   3.061   0.473  10.486  0.2854  0.4840 -0.5548
12644TIP3    H159423   3.080   0.537  10.555 -1.6195  0.5447 -0.0172
12644TIP3    H259424   3.008   0.521  10.422  1.3313  0.2022 -1.6681
12645TIP3   OH259425   2.548   1.800   3.971  0.5313  0.3433 -0.2490
12645TIP3    H159426   2.594   1.763   4.047 -1.2104  2.2058  1.8381
12645TIP3    H259427   2.520   1.887   3.999 -0.9039  0.8040 -2.7797
12646TIP3   OH259428   2.226   6.258   3.727  0.4623 -0.4308 -0.6343
12646TIP3    H159429   2.302   6.287   3.678  0.9953  2.0742  1.4244
12646TIP3    H259430   2.255   6.181   3.776  0.7981 -1.1450 -1.9361
12647TIP3   OH259431   5.573   3.908  13.611 -0.5214 -0.7298  0.4006
12647TIP3    H159432   5.562   3.932  13.519 -1.1957 -0.8593  0.4402
12647TIP3    H259433   5.496   3.854  13.630 -1.8730  1.5452  1.8044
12648TIP3   OH259434   1.234   1.988  12.086  0.0011  0.4532 -0.6457
12648TIP3    H159435   1.210   1.983  12.178 -2.3757  0.4255 -1.2084
12648TIP3    H259436   1.178   2.057  12.050  0.6664  0.2581 -2.1289
12649TIP3   OH259437   4.572   1.674   2.730 -0.0089  0.5896  0.4220
12649TIP3    H159438   4.626   1.750   2.710  0.0073  0.1474 -1.3678
12649TIP3    H259439   4.488   1.712   2.757  0.1536  1.2499  0.0385
12650TIP3   OH259440   3.206   3.981  10.585  0.3190  0.1373 -0.1391
12650TIP3    H159441   3.203   4.074  10.564 -1.9669  0.6691  2.0842
12650TIP3    H259442   3.285   3.971  10.638  0.8345  0.6933 -0.7819
12651TIP3   OH259443   0.894   5.577  14.003 -0.5197  0.3284  0.2814
12651TIP3    H159444   0.817   5.564  13.949 -0.2455 -0.7254  0.1061
12651TIP3    H259445   0.874   5.654  14.056 -1.5153  0.3148 -0.0533
12652TIP3   OH259446   4.560   1.266  12.493 -0.5963 -0.5639  0.0909
12652TIP3    H159447   4.541   1.206  12.422  0.8739  0.4094 -1.1743
12652TIP3    H259448   4.582   1.349  12.450 -0.7448  0.3767  1.7154
12653TIP3   OH259449   6.005   0.129   0.983  0.5051  0.3441  0.2199
12653TIP3    H159450   5.919   0.127   1.026 -0.0047  2.0834 -0.6075
12653TIP3    H259451   5.986   0.107   0.892  1.2319 -0.9956  0.3693
12654TIP3   OH259452   3.102   0.135  11.519  0.2197 -0.3382  0.3420
12654TIP3    H159453   3.106   0.094  11.606  0.6331 -1.2267 -0.0890
12654TIP3    H259454   3.010   0.155  11.506 -0.0628 -1.5921  0.3579
12655TIP3   OH259455   3.796   3.129  14.686 -0.0348  0.0785 -0.8404
12655TIP3    H159456   3.801   3.060  14.752  0.5880 -0.2736 -1.2462
12655TIP3    H259457   3.722   3.105  14.631 -0.7875  0.5726 -0.0533
12656TIP3   OH259458   2.154   4.981  17.038 -0.7299  0.0784  0.0973
12656TIP3    H159459   2.112   5.016  17.116  1.7216  0.5927  1.3012
12656TIP3    H259460   2.172   5.058  16.984 -1.0237 -0.0913 -0.2431
12657TIP3   OH259461   6.795   0.810   4.120  0.0621 -0.6588  0.7775
12657TIP3    H159462   6.856   0.836   4.051 -1.6820 -1.2326 -1.0681
12657TIP3    H259463   6.794   0.715   4.117 -1.0227 -0.6507  0.6732
12658TIP3   OH259464   5.910   6.596  12.987 -0.0349  0.0284 -0.0777
12658TIP3    H159465   6.004   6.609  12.998 -0.1361 -0.8898  2.6566
12658TIP3    H259466   5.903   6.520  12.929  0.8743  0.5705 -0.9215
12659TIP3   OH259467   1.077   5.594  13.764 -0.1767  0.5860 -0.2851
12659TIP3    H159468   1.016   5.592  13.838 -0.6409 -0.6865 -0.6732
12659TIP3    H259469   1.022   5.575  13.688  0.9886 -3.0544 -0.3945
12660TIP3   OH259470   0.995   0.643   0.626  0.3649 -0.2527  0.2988
12660TIP3    H159471   0.940   0.629   0.703  0.0153 -3.4431 -0.3900
12660TIP3    H259472   0.970   0.729   0.593 -1.0879  0.2173  2.4261
12661TIP3   OH259473   6.824   3.026  16.804 -0.0529  0.0798 -0.0335
12661TIP3    H159474   6.815   3.069  16.719 -0.4789  0.7643  0.3485
12661TIP3    H259475   6.912   2.990  16.803 -0.5980 -1.3504 -1.4051
12662TIP3   OH259476   4.258   5.554   3.187 -0.5330 -0.3798 -0.3431
12662TIP3    H159477   4.168   5.584   3.201  0.0509  1.4209 -0.1825
12662TIP3    H259478   4.264   5.541   3.093 -1.3992 -2.1191 -0.1989
12663TIP3   OH259479   2.027   2.088   2.160 -0.5027 -0.1950 -0.0508
12663TIP3    H159480   2.064   2.153   2.100  3.3427 -1.9259  0.1328
12663TIP3    H259481   1.964   2.039   2.106 -0.7707  1.3227 -1.2007
12664TIP3   OH259482   4.768   1.292  14.424 -0.2688  0.5758 -0.4196
12664TIP3    H159483   4.726   1.339  14.496  1.6598  0.4979  0.8265
12664TIP3    H259484   4.703   1.226  14.398 -0.9889  0.5148  1.3522
12665TIP3   OH259485   4.838   1.547  13.830  0.0322 -0.1744  0.0472
12665TIP3    H159486   4.905   1.600  13.873 -0.6303  2.2703 -1.6978
12665TIP3    H259487   4.884   1.468  13.802  2.6289  1.9426 -2.1788
12666TIP3   OH259488   5.317   3.761   4.911 -0.0647  0.1048 -0.2987
12666TIP3    H159489   5.263   3.720   4.979  0.7787 -3.4415 -1.5381
12666TIP3    H259490   5.256   3.785   4.842 -0.4146 -1.4364 -0.5677
12667TIP3   OH259491   6.652   4.561   4.663  0.3347 -0.1324  0.5312
12667TIP3    H159492   6.606   4.645   4.662 -0.4401 -0.5452 -1.0761
12667TIP3    H259493   6.587   4.498   4.692 -0.9359 -1.0640 -3.6700
12668TIP3   OH259494   6.564   0.960   3.584  0.1632 -0.0775  0.5988
12668TIP3    H159495   6.524   0.906   3.515 -0.6611  0.6402  0.4855
12668TIP3    H259496   6.637   1.003   3.541 -1.4701  1.8556 -0.4463
12669TIP3   OH259497   2.999   3.746  11.806  0.1338 -0.3662  0.2046
12669TIP3    H159498   3.066   3.703  11.859  0.7608 -0.6616 -0.7778
12669TIP3    H259499   3.047   3.775  11.728 -0.5814  0.7996  0.1826
12670TIP3   OH259500   5.115   3.954  14.413 -0.3337 -0.1771  0.2970
12670TIP3    H159501   5.202   3.915  14.422 -0.4646 -1.0794 -1.8565
12670TIP3    H259502   5.056   3.886  14.446 -0.3262 -0.1199  0.4317
12671TIP3   OH259503   4.943   2.204   4.592 -0.2265  0.0647  0.2695
12671TIP3    H159504   4.908   2.273   4.649 -1.1301 -1.8665  2.2021
12671TIP3    H259505   5.038   2.216   4.595 -0.3757  1.4560  0.2181
12672TIP3   OH259506   4.589   2.038   0.258 -0.6247 -0.1366 -0.7762
12672TIP3    H159507   4.505   2.066   0.222 -0.7816 -0.4789 -0.6856
12672TIP3    H259508   4.624   1.978   0.193 -1.2956 -1.4154 -0.0096
12673TIP3   OH259509   0.260   4.197  15.295  0.0702  0.7508 -0.2200
12673TIP3    H159510   0.302   4.146  15.365 -1.0443  1.4299  0.9871
12673TIP3    H259511   0.168   4.174  15.301 -0.0383  0.8142 -1.4959
12674TIP3   OH259512   4.272   2.795   2.016  0.3333 -0.3550  0.1585
12674TIP3    H159513   4.195   2.849   2.000  1.5387  1.1933 -0.7927
12674TIP3    H259514   4.272   2.731   1.945  1.4671  1.5529 -1.6767
12675TIP3   OH259515   6.397   1.681   1.501  0.1072 -0.9241  0.8199
12675TIP3    H159516   6.486   1.644   1.500 -0.1383 -1.8558  3.5272
12675TIP3    H259517   6.340   1.607   1.482 -0.2399 -1.4137  3.4157
12676TIP3   OH259518   6.107   2.355  13.271 -0.3035  0.0769 -0.3505
12676TIP3    H159519   6.135   2.289  13.207 -0.5899 -1.8611  1.4177
12676TIP3    H259520   6.064   2.305  13.339 -0.7762  2.1670  0.9672
12677TIP3   OH259521   6.298   0.469  13.734 -0.2624 -0.5639 -0.2163
12677TIP3    H159522   6.383   0.437  13.703 -0.5454 -2.5976  0.9443
12677TIP3    H259523   6.319   0.522  13.810  0.0456 -0.1179 -0.6100
12678TIP3   OH259524   5.788   1.017   5.164 -0.3756  0.0921 -0.4769
12678TIP3    H159525   5.752   1.082   5.224  0.8273  2.0374 -1.7360
12678TIP3    H259526   5.740   1.030   5.082  0.2830 -0.1737 -0.9190
12679TIP3   OH259527   0.738   2.136  16.993  0.3383 -0.3650  0.6293
12679TIP3    H159528   0.704   2.109  17.079 -1.6123 -1.1117 -0.3193
12679TIP3    H259529   0.663   2.132  16.935  1.6852 -0.2329 -1.2232
12680TIP3   OH259530   2.221   5.142   5.646 -0.8794  0.7672  0.0376
12680TIP3    H159531   2.294   5.193   5.678 -0.5314  1.4340 -1.7054
12680TIP3    H259532   2.205   5.176   5.558 -3.3821  0.7494  0.4129
12681TIP3   OH259533   6.015   5.957  11.812 -0.3580 -0.1872 -0.1628
12681TIP3    H159534   6.046   6.024  11.873  1.7746 -1.2271 -0.0033
12681TIP3    H259535   6.063   5.975  11.731  0.1603 -1.4005 -0.1527
12682TIP3   OH259536   2.690   3.449  12.467 -0.1960  0.5181 -0.3238
12682TIP3    H159537   2.728   3.362  12.454  1.4301  0.9532  1.1370
12682TIP3    H259538   2.621   3.455  12.401  0.6682 -1.2773 -1.4704
12683TIP3   OH259539   6.490   3.952  16.135 -0.0680  0.4456 -0.1199
12683TIP3    H159540   6.500   3.889  16.064 -0.9600 -1.3648  1.2576
12683TIP3    H259541   6.579   3.971  16.163  0.2075 -1.4133  0.3915
12684TIP3   OH259542   3.996   5.265  13.826 -0.1230  0.6515 -0.1934
12684TIP3    H159543   3.903   5.251  13.807  0.1959  0.2062 -1.5664
12684TIP3    H259544   4.014   5.354  13.794  0.5954 -0.3777 -2.9728
12685TIP3   OH259545   5.984   3.418  16.637 -0.0978  0.0119 -0.1093
12685TIP3    H159546   5.934   3.339  16.617  0.4879 -0.4153  0.0930
12685TIP3    H259547   5.937   3.459  16.710 -0.8960  0.3256 -0.7826
12686TIP3   OH259548   0.187   2.345   0.341 -0.1005 -0.1940  0.2265
12686TIP3    H159549   0.134   2.368   0.417  1.0275  0.2702  0.9079
12686TIP3    H259550   0.261   2.297   0.378  0.3039 -0.2269 -0.6161
12687TIP3   OH259551   1.807   5.255  12.077 -0.0922 -0.0264 -0.0035
12687TIP3    H159552   1.833   5.250  12.169 -0.2993  1.2627  0.1343
12687TIP3    H259553   1.712   5.243  12.079 -0.2084  0.8478  0.0455
12688TIP3   OH259554   3.352   2.676  15.797 -0.1904 -0.3038  0.0005
12688TIP3    H159555   3.282   2.740  15.786 -0.7035 -1.0981 -1.6755
12688TIP3    H259556   3.331   2.631  15.879 -2.4163 -1.3808 -1.0690
12689TIP3   OH259557   5.181   4.566  14.434 -0.1086 -0.1056  0.1250
12689TIP3    H159558   5.181   4.511  14.513  1.3610  2.3070  1.9508
12689TIP3    H259559   5.109   4.628  14.448 -0.8238 -0.5762 -1.2276
12690TIP3   OH259560   0.320   2.039  14.683 -0.4500 -0.0318  0.0111
12690TIP3    H159561   0.382   2.064  14.752  1.8002 -2.6134 -0.9090
12690TIP3    H259562   0.288   1.953  14.709 -2.4300  0.5167 -0.4160
12691TIP3   OH259563   5.977   4.577  10.799  0.8341  0.5561 -0.0883
12691TIP3    H159564   5.903   4.594  10.857  1.0389 -0.6135  0.5348
12691TIP3    H259565   5.946   4.510  10.738  0.8931  1.1704 -0.8110
12692TIP3   OH259566   1.810   4.151  11.867 -0.4586  0.5611  0.0939
12692TIP3    H159567   1.724   4.175  11.900 -1.5296 -0.5800 -1.7013
12692TIP3    H259568   1.824   4.061  11.897  0.0469  0.6783  0.2284
12693TIP3   OH259569   0.626   2.763   5.124  0.0576 -0.1701 -0.0514
12693TIP3    H159570   0.670   2.849   5.121 -1.5304  0.6720 -1.0365
12693TIP3    H259571   0.614   2.745   5.217 -1.9749  2.0232  0.2027
12694TIP3   OH259572   5.199   1.381   2.071 -0.0024  0.2652 -0.0603
12694TIP3    H159573   5.125   1.410   2.017 -0.8753 -1.1026  0.3346
12694TIP3    H259574   5.217   1.455   2.129 -0.9938  0.6770 -0.2572
12695TIP3   OH259575   0.503   1.146  11.575 -0.3951  0.2256  0.6071
12695TIP3    H159576   0.484   1.211  11.642 -1.8871 -1.4864  1.9653
12695TIP3    H259577   0.438   1.163  11.506  0.3916  1.2665  0.1054
12696TIP3   OH259578   2.802   3.256  12.308  0.2966  0.0049 -0.3228
12696TIP3    H159579   2.725   3.211  12.272 -0.5978  0.7412  0.6144
12696TIP3    H259580   2.848   3.188  12.358 -0.9780  0.0540  0.9865
12697TIP3   OH259581   1.270   2.495  14.576  0.3666  0.0107 -0.2312
12697TIP3    H159582   1.188   2.543  14.563  0.7418  0.8844  0.4669
12697TIP3    H259583   1.338   2.562  14.565  0.9827 -0.6791 -0.6696
12698TIP3   OH259584   5.391   1.689   1.351  0.2567 -0.0833  0.3994
12698TIP3    H159585   5.449   1.651   1.285  0.5054  1.8148 -0.5504
12698TIP3    H259586   5.328   1.619   1.370  0.1820 -0.7343 -1.8554
12699TIP3   OH259587   0.394   5.347   2.071  0.2150 -0.3065 -0.1494
12699TIP3    H159588   0.417   5.355   1.978 -1.4219 -0.1926 -0.5852
12699TIP3    H259589   0.448   5.275   2.103 -1.0335 -2.1572 -1.8830
12700TIP3   OH259590   3.385   2.884  13.938  0.0398  0.2769 -0.5959
12700TIP3    H159591   3.395   2.811  13.876  1.4095 -0.9278  0.9405
12700TIP3    H259592   3.435   2.956  13.898 -0.9176  0.2521 -1.9046
12701TIP3   OH259593   2.287   5.228  16.676  0.0914  0.5293 -0.0467
12701TIP3    H159594   2.308   5.146  16.632  0.5612 -0.2341  1.5401
12701TIP3    H259595   2.372   5.268  16.695 -0.1006  0.8242  0.2134
12702TIP3   OH259596   2.408   2.111  14.952 -0.1140 -0.1699 -0.1276
12702TIP3    H159597   2.396   2.054  14.876  1.2794 -1.4416  0.5559
12702TIP3    H259598   2.490   2.082  14.991 -0.3744  1.0138  1.3987
12703TIP3   OH259599   0.069   2.360  14.043 -0.7211 -0.8291  0.0839
12703TIP3    H159600   0.030   2.394  14.123 -0.0731  1.8136 -0.6329
12703TIP3    H259601   0.026   2.410  13.973  0.1655 -1.6588 -1.0892
12704TIP3   OH259602   1.561   1.233  12.397 -0.3656  0.3123 -0.1181
12704TIP3    H159603   1.505   1.310  12.395 -0.8996 -0.0399  0.6706
12704TIP3    H259604   1.545   1.194  12.483 -0.3116 -0.8243 -0.6045
12705TIP3   OH259605   4.257   3.387  13.002  0.4082  0.6770 -0.2714
12705TIP3    H159606   4.338   3.435  13.019  0.5452 -0.0479  1.3196
12705TIP3    H259607   4.206   3.396  13.082 -0.1124 -0.7437 -0.4073
12706TIP3   OH259608   0.347   4.863   1.558 -0.0785  0.1852  0.5450
12706TIP3    H159609   0.394   4.782   1.578  0.1851 -0.3541 -1.8496
12706TIP3    H259610   0.260   4.851   1.596 -0.3497 -1.6672 -0.5152
12707TIP3   OH259611   4.813   3.100  10.259 -0.2480 -0.2370  0.1889
12707TIP3    H159612   4.842   3.029  10.316 -0.0748  1.9684  3.1003
12707TIP3    H259613   4.722   3.116  10.285 -0.5468  0.0683 -1.0117
12708TIP3   OH259614   1.727   2.976  11.654  0.1061 -0.3442  0.1009
12708TIP3    H159615   1.774   3.057  11.675 -1.7505  0.5209  1.2013
12708TIP3    H259616   1.774   2.908  11.702  0.9579  0.2690  0.1701
12709TIP3   OH259617   1.000   1.318  10.997  0.1502  0.0970  0.3437
12709TIP3    H159618   0.907   1.338  11.008  0.0485 -0.8443  1.2616
12709TIP3    H259619   1.045   1.380  11.054 -0.0146 -0.5078  1.1436
12710TIP3   OH259620   1.582   0.746  11.031 -0.0189 -0.0240 -0.3033
12710TIP3    H159621   1.521   0.802  11.080 -0.4431 -1.5328  0.9800
12710TIP3    H259622   1.529   0.672  11.003  1.3219 -1.8225  1.5893
12711TIP3   OH259623   4.951   1.722   3.382  0.7612  0.2076  0.2296
12711TIP3    H159624   4.982   1.676   3.304 -0.6046 -0.0927 -0.1593
12711TIP3    H259625   5.019   1.787   3.400  1.8515 -0.7516 -0.2809
12712TIP3   OH259626   1.051   3.028  12.524 -0.0295 -0.5945  0.4959
12712TIP3    H159627   1.131   3.059  12.567  0.2370 -0.9135  0.2276
12712TIP3    H259628   1.011   2.969  12.588 -1.1657  1.1935  1.5148
12713TIP3   OH259629   5.118   1.713   4.400  0.1107 -0.0162 -0.3507
12713TIP3    H159630   5.173   1.704   4.323 -0.7686 -0.6388 -0.9185
12713TIP3    H259631   5.077   1.799   4.391  0.1695  0.0008 -0.4545
12714TIP3   OH259632   5.775   5.403  16.119 -0.1208  0.5558 -0.6846
12714TIP3    H159633   5.763   5.344  16.194  1.1547 -0.2410 -1.0788
12714TIP3    H259634   5.750   5.489  16.152 -0.6945  0.0321  0.3042
12715TIP3   OH259635   1.755   0.018   4.219  0.2528  0.0159  0.0955
12715TIP3    H159636   1.777  -0.071   4.247 -1.0577 -0.8281 -1.3332
12715TIP3    H259637   1.805   0.075   4.276  1.0734 -1.6473  1.1097
12716TIP3   OH259638   6.473   4.697  11.341  0.4061  0.4039  0.2061
12716TIP3    H159639   6.553   4.695  11.289  1.0880 -0.2220  1.2496
12716TIP3    H259640   6.503   4.703  11.432 -0.7410  0.6041  0.5862
12717TIP3   OH259641   0.891   1.530   1.842  0.1310 -0.1567 -0.9395
12717TIP3    H159642   0.908   1.611   1.794 -0.4931  0.2828 -0.4247
12717TIP3    H259643   0.922   1.548   1.931  1.2435 -0.9503 -1.1456
12718TIP3   OH259644   3.327   0.831   1.365  0.8602 -0.1169 -0.6596
12718TIP3    H159645   3.236   0.805   1.381  1.2429 -1.0160  0.1389
12718TIP3    H259646   3.322   0.925   1.348 -0.0092  0.2653  1.4131
12719TIP3   OH259647   1.170   2.008   4.774  0.7856  0.6025  0.3049
12719TIP3    H159648   1.095   2.041   4.822  0.3080  1.3625 -0.9262
12719TIP3    H259649   1.171   2.057   4.692  1.1242 -1.1562 -0.8148
12720TIP3   OH259650   5.254   1.743  13.416 -0.7596 -0.2206 -0.3902
12720TIP3    H159651   5.231   1.681  13.485 -0.8268  1.0275  0.7582
12720TIP3    H259652   5.178   1.743  13.358  0.1084 -2.7855 -1.6528
12721TIP3   OH259653   5.702   3.355   2.189  0.1293  0.1584 -0.3485
12721TIP3    H159654   5.643   3.415   2.234  0.2306 -0.7425  1.0580
12721TIP3    H259655   5.785   3.363   2.236  0.1957 -0.9184 -0.2449
12722TIP3   OH259656   0.909   0.622  15.391 -0.0750  0.3454 -0.1545
12722TIP3    H159657   0.983   0.673  15.424 -0.0712  0.4191 -0.2736
12722TIP3    H259658   0.922   0.534  15.427  0.6027  0.1017 -0.9566
12723TIP3   OH259659   4.587   2.148  16.548 -0.3119 -0.3183  0.2438
12723TIP3    H159660   4.656   2.172  16.610 -1.8711 -0.6803  2.2316
12723TIP3    H259661   4.626   2.079  16.494  1.8327  1.5499 -0.7422
12724TIP3   OH259662   0.808   1.037  13.100 -0.0685  0.0589  0.1101
12724TIP3    H159663   0.760   1.105  13.148 -0.7657  0.0619 -0.5835
12724TIP3    H259664   0.864   1.086  13.040 -2.3555  0.0890 -2.1817
12725TIP3   OH259665   4.456   1.655  14.313 -0.0743  0.0082  0.2303
12725TIP3    H159666   4.375   1.669  14.362  0.4940 -0.3002  1.2994
12725TIP3    H259667   4.429   1.649  14.222 -1.5052 -1.9004  0.7159
12726TIP3   OH259668   6.854   0.191  15.103  0.6303  0.1394  1.0336
12726TIP3    H159669   6.947   0.213  15.107  0.9682 -0.4359 -1.6646
12726TIP3    H259670   6.853   0.096  15.087 -0.3618  0.2807  0.1268
12727TIP3   OH259671   6.825   2.580  14.221 -0.4914 -0.0894  0.3721
12727TIP3    H159672   6.828   2.513  14.290 -1.8770 -1.0938 -0.4963
12727TIP3    H259673   6.771   2.650  14.259 -0.8479 -0.4258  0.4939
12728TIP3   OH259674   0.862   6.298  15.605 -0.5481  0.3792  0.0398
12728TIP3    H159675   0.870   6.301  15.510 -2.0216  0.2766 -0.1126
12728TIP3    H259676   0.883   6.207  15.629  1.2825  0.7545  0.0023
12729TIP3   OH259677   0.525   5.516   5.121 -0.4014  0.4292 -0.0455
12729TIP3    H159678   0.602   5.475   5.079  0.5426  1.0287  1.0385
12729TIP3    H259679   0.531   5.489   5.212 -3.0893 -1.8381 -0.4213
12730TIP3   OH259680   6.376   2.850  13.912 -0.3764 -0.2129  0.2848
12730TIP3    H159681   6.428   2.897  13.846 -0.8302 -0.2429 -0.0947
12730TIP3    H259682   6.385   2.757  13.888 -3.7896 -0.0644 -2.2169
12731TIP3   OH259683   3.061   1.130   3.285  0.1503 -0.6612  0.0319
12731TIP3    H159684   3.078   1.039   3.310 -0.3784 -0.9957 -0.7773
12731TIP3    H259685   3.062   1.178   3.368 -1.3005 -1.6804  0.6950
12732TIP3   OH259686   5.886   3.708  13.446  0.2952 -0.2893  0.2232
12732TIP3    H159687   5.855   3.670  13.364  1.8464 -1.8234  0.2922
12732TIP3    H259688   5.972   3.743  13.425  0.1783  0.4368  0.9108
12733TIP3   OH259689   6.741   1.124  13.984  0.1469 -0.0290  0.2958
12733TIP3    H159690   6.759   1.208  14.026  0.4002  1.0829 -1.9471
12733TIP3    H259691   6.828   1.091  13.959 -0.0826 -0.2039 -0.2621
12734TIP3   OH259692   2.714   1.455  11.218 -0.2821 -0.2376 -0.3326
12734TIP3    H159693   2.662   1.379  11.192 -0.7706  0.3143 -1.0051
12734TIP3    H259694   2.711   1.514  11.143  0.2466  0.3691  0.1043
12735TIP3   OH259695   2.686   6.752   0.148 -0.5025  0.3399 -0.2455
12735TIP3    H159696   2.742   6.687   0.191 -1.2916  1.7046  3.1955
12735TIP3    H259697   2.745   6.826   0.131 -0.4840  0.3671 -0.0692
12736TIP3   OH259698   2.192   5.467   2.932  0.4671 -0.1977  0.0453
12736TIP3    H159699   2.276   5.468   2.979  0.1216 -0.3528  0.6814
12736TIP3    H259700   2.154   5.553   2.949  0.9097  0.2135 -1.0143
12737TIP3   OH259701   1.711   6.550   5.663 -0.3434 -0.6321 -0.1163
12737TIP3    H159702   1.633   6.503   5.634 -0.6564 -0.0891 -0.1465
12737TIP3    H259703   1.689   6.642   5.655  0.3630 -0.4713 -0.2925
12738TIP3   OH259704   2.578   5.679   1.690  0.1872  0.4404  0.5187
12738TIP3    H159705   2.574   5.687   1.785  0.5311 -0.8453  0.6665
12738TIP3    H259706   2.536   5.758   1.657 -2.1750 -0.2052  1.7539
12739TIP3   OH259707   2.213   5.074   1.012 -0.2752 -0.0123  0.2503
12739TIP3    H159708   2.271   5.134   0.964 -0.3710  0.8157  1.1419
12739TIP3    H259709   2.162   5.031   0.944 -1.1236  1.8670 -0.3896
12740TIP3   OH259710   6.746   3.885  16.459  0.3335 -0.6579  0.0330
12740TIP3    H159711   6.772   3.799  16.426 -1.0294 -0.6473 -1.1705
12740TIP3    H259712   6.655   3.874  16.487  0.5800  0.0585  1.1748
12741TIP3   OH259713   3.301   0.732   0.651 -0.1013  0.1808  0.3961
12741TIP3    H159714   3.327   0.774   0.570  2.6505  0.6612  1.4364
12741TIP3    H259715   3.277   0.804   0.709  1.0392  0.1030  0.9918
12742TIP3   OH259716   4.182   2.175   3.434 -0.0965 -1.1057 -0.4977
12742TIP3    H159717   4.193   2.270   3.437 -2.4093 -0.7999  1.7164
12742TIP3    H259718   4.256   2.144   3.382  1.6039  1.7463  0.0015
12743TIP3   OH259719   4.083   6.828  14.144 -0.6361  0.3627 -0.5462
12743TIP3    H159720   4.137   6.749  14.142 -1.1429 -0.2113  2.6786
12743TIP3    H259721   4.140   6.895  14.182 -1.5725  0.1936  1.2865
12744TIP3   OH259722   1.722   6.312   2.478  0.6980  0.3785  0.3046
12744TIP3    H159723   1.720   6.287   2.570  1.4741 -1.4793 -0.1479
12744TIP3    H259724   1.749   6.233   2.431  1.4466  1.5749 -1.4215
12745TIP3   OH259725   4.301   1.791   0.309 -0.9521 -0.1462 -0.5818
12745TIP3    H159726   4.353   1.856   0.263  0.7741  1.0796  2.7836
12745TIP3    H259727   4.348   1.709   0.297  1.5824  0.8071  1.7529
12746TIP3   OH259728   5.604   3.151  13.980  0.0650  0.0657 -0.3953
12746TIP3    H159729   5.540   3.159  13.909  0.0934 -1.9619 -0.7007
12746TIP3    H259730   5.575   3.075  14.030 -0.2763  1.7696  2.1638
12747TIP3   OH259731   2.036   2.303   4.906  0.2085 -0.5330 -0.6430
12747TIP3    H159732   2.047   2.213   4.873  2.2625  0.1632 -2.0563
12747TIP3    H259733   2.072   2.301   4.994 -1.2235 -1.4070 -0.0321
12748TIP3   OH259734   5.116   1.805  13.783 -0.3523 -0.5918  0.0108
12748TIP3    H159735   5.065   1.885  13.800 -1.3642 -1.0549 -0.7476
12748TIP3    H259736   5.120   1.761  13.867  1.2543  0.8205  0.7244
12749TIP3   OH259737   2.895   3.610   4.079 -0.4392  0.0954  0.1246
12749TIP3    H159738   2.828   3.542   4.073 -0.3473  0.1259 -2.4064
12749TIP3    H259739   2.911   3.635   3.988  1.6694  1.4123  0.7980
12750TIP3   OH259740   0.055   0.978  16.793  0.3464  0.5265  0.0871
12750TIP3    H159741   0.071   0.886  16.771  1.0158  1.2180 -2.6257
12750TIP3    H259742  -0.026   0.999  16.748 -0.8362  0.8383  2.2412
12751TIP3   OH259743   6.299   5.707   6.023  0.5337 -0.3526  0.4144
12751TIP3    H159744   6.394   5.699   6.034  0.5535 -0.3385  0.2600
12751TIP3    H259745   6.272   5.622   5.990  0.4483 -0.4581  0.7642
12752TIP3   OH259746   0.075   2.101  16.242  0.1692 -0.1628  0.4907
12752TIP3    H159747   0.115   2.187  16.249 -0.6841  0.2748  0.1332
12752TIP3    H259748   0.081   2.064  16.330  2.2547 -0.5371  0.2319
12753TIP3   OH259749   4.348   2.810   4.709 -0.7626 -0.2658 -0.3043
12753TIP3    H159750   4.324   2.832   4.799  0.7102 -1.5313  0.4405
12753TIP3    H259751   4.280   2.749   4.680 -1.3102  0.2425 -0.1026
12754TIP3   OH259752   3.923   0.133  13.913  0.4722  0.1099  0.5775
12754TIP3    H159753   4.011   0.167  13.932  0.6879 -0.2625  0.2554
12754TIP3    H259754   3.936   0.039  13.905 -0.0050  0.0259  0.7816
12755TIP3   OH259755   4.660   2.257   1.726  0.2895  0.3248 -0.0246
12755TIP3    H159756   4.565   2.266   1.730  0.3992  1.0523  1.5064
12755TIP3    H259757   4.678   2.238   1.634 -1.3641 -0.2849 -0.2570
12756TIP3   OH259758   4.752   6.823  15.091  0.0629 -0.0578 -0.4389
12756TIP3    H159759   4.800   6.769  15.028  0.5681 -0.1560  0.0291
12756TIP3    H259760   4.817   6.849  15.155 -0.4060  0.2313 -0.0752
12757TIP3   OH259761   3.140   2.159  14.423 -0.2353  0.3253 -0.3305
12757TIP3    H159762   3.148   2.093  14.354 -0.3413  1.7118 -1.7417
12757TIP3    H259763   3.078   2.223  14.387 -0.9086  0.6978  1.4082
12758TIP3   OH259764   5.349   5.473  16.680 -0.5575 -0.0202  0.3447
12758TIP3    H159765   5.425   5.504  16.631 -0.6457 -0.5076 -0.1096
12758TIP3    H259766   5.315   5.400  16.628 -3.0000  1.8996 -0.8999
12759TIP3   OH259767   5.305   4.246   0.677 -0.2552  0.0931 -0.0767
12759TIP3    H159768   5.211   4.255   0.697 -0.3738 -0.8211 -0.2109
12759TIP3    H259769   5.343   4.211   0.757 -0.2581 -0.8242 -0.4635
12760TIP3   OH259770   3.490   2.455  15.926  0.6065 -0.4167  0.1147
12760TIP3    H159771   3.571   2.502  15.943  0.6692 -0.3180 -0.4372
12760TIP3    H259772   3.429   2.485  15.993  0.7098  0.2892 -0.0984
12761TIP3   OH259773   2.348   5.907   3.633 -0.5368 -0.1462  0.8971
12761TIP3    H159774   2.411   5.836   3.618  0.8592  1.0627  0.7798
12761TIP3    H259775   2.282   5.868   3.690 -0.6545 -1.9753 -0.3771
12762TIP3   OH259776   4.250   4.450  16.409  0.4471  0.7240  0.2423
12762TIP3    H159777   4.229   4.453  16.502 -0.1391 -1.0925  0.2192
12762TIP3    H259778   4.296   4.532  16.391 -1.5158  2.1836  1.5957
12763TIP3   OH259779   5.104   5.097  11.317  1.0315  0.2115 -0.4661
12763TIP3    H159780   5.155   5.164  11.360 -0.4068  0.7741  0.4513
12763TIP3    H259781   5.025   5.142  11.287 -1.2909 -1.4604  2.5910
12764TIP3   OH259782   4.551   3.365   2.759 -0.5548 -0.3296  0.3771
12764TIP3    H159783   4.469   3.337   2.799 -0.0534  0.9697  2.4634
12764TIP3    H259784   4.591   3.423   2.824  1.0685  0.6772 -1.4198
12765TIP3   OH259785   2.730   0.468  11.205 -0.0435  0.0472 -0.9685
12765TIP3    H159786   2.704   0.431  11.121 -1.0811 -0.6259 -0.3827
12765TIP3    H259787   2.688   0.411  11.270  1.9773 -0.3502  0.0437
12766TIP3   OH259788   4.369   0.149   1.847 -0.4738  0.0290 -0.0293
12766TIP3    H159789   4.310   0.113   1.914 -2.2318 -0.0856 -1.5869
12766TIP3    H259790   4.415   0.072   1.813 -0.9161 -0.1524 -0.2202
12767TIP3   OH259791   2.684   0.789  13.618 -0.3235  0.1736  0.4991
12767TIP3    H159792   2.774   0.810  13.642 -0.8784  2.4154  0.8439
12767TIP3    H259793   2.654   0.732  13.689  1.1706 -1.7181 -0.2998
12768TIP3   OH259794   6.636   3.739   1.848 -0.0301  0.4823  0.3765
12768TIP3    H159795   6.627   3.821   1.896  0.1652  1.5737 -1.3524
12768TIP3    H259796   6.549   3.700   1.850 -0.1007  0.6578  1.2981
12769TIP3   OH259797   4.915   0.346  12.777  0.0342  0.1240  0.4553
12769TIP3    H159798   4.907   0.343  12.872 -0.2367 -1.1695  0.4126
12769TIP3    H259799   4.854   0.279  12.745 -0.3721  0.9896 -0.6683
12770TIP3   OH259800   2.792   1.817  15.772 -0.2519 -0.4289 -0.0522
12770TIP3    H159801   2.864   1.873  15.800 -1.0627  0.2163  0.8149
12770TIP3    H259802   2.796   1.742  15.831 -1.3194  0.4332  1.1728
12771TIP3   OH259803   1.732   4.101   3.088 -0.1320  0.4135 -0.3572
12771TIP3    H159804   1.707   4.193   3.084  0.2533  0.5281 -0.2094
12771TIP3    H259805   1.667   4.056   3.035 -1.5385  0.5105  1.2028
12772TIP3   OH259806   3.775   5.923   0.057  0.2341 -0.2807 -0.6374
12772TIP3    H159807   3.701   5.863   0.058 -0.6046  0.7016 -1.2651
12772TIP3    H259808   3.827   5.899   0.133  0.1643 -2.0731 -1.1204
12773TIP3   OH259809   1.253   0.012   5.725  0.0725 -0.2921 -0.4212
12773TIP3    H159810   1.238   0.055   5.809 -0.9230  1.6284 -1.5246
12773TIP3    H259811   1.188  -0.059   5.723 -0.4138  0.1284  0.1147
12774TIP3   OH259812   5.270   1.995  14.765  0.1211  0.1078  0.0964
12774TIP3    H159813   5.335   2.014  14.697 -0.3053 -3.6775 -1.6600
12774TIP3    H259814   5.314   1.931  14.822 -0.7747  0.4739  1.2252
12775TIP3   OH259815   5.642   3.066  13.333  0.4768  0.6767  0.0163
12775TIP3    H159816   5.633   3.158  13.306 -0.0515  0.1390 -1.8350
12775TIP3    H259817   5.690   3.069  13.415 -0.2564  2.6609  0.4241
12776TIP3   OH259818   5.945   4.977  16.973 -0.3020 -0.7794 -0.0554
12776TIP3    H159819   6.016   4.943  16.919  0.1995 -0.4823  0.4096
12776TIP3    H259820   5.919   5.058  16.930  1.4395  0.5267  1.1833
12777TIP3   OH259821   2.605   4.625  15.351  0.3517 -0.0246  0.3389
12777TIP3    H159822   2.671   4.556  15.352  0.0182 -0.3694  2.1132
12777TIP3    H259823   2.530   4.588  15.397 -0.5490  0.8806 -0.3336
12778TIP3   OH259824   5.591   3.689   4.449  0.0445  0.0960  0.2589
12778TIP3    H159825   5.563   3.599   4.431  0.4451  0.1816 -0.8470
12778TIP3    H259826   5.563   3.704   4.540 -0.6520 -0.8947  0.2345
12779TIP3   OH259827   2.008   0.166  13.099  0.6991 -1.0101 -0.3743
12779TIP3    H159828   1.945   0.109  13.143 -1.2448  2.1658  1.2495
12779TIP3    H259829   2.053   0.212  13.169  0.4569  1.1959 -1.5616
12780TIP3   OH259830   2.861   5.799  12.589 -0.3392  0.2687  0.6318
12780TIP3    H159831   2.950   5.787  12.623  0.2520 -0.9563 -1.1851
12780TIP3    H259832   2.813   5.841  12.661  1.1524 -0.9482  2.4361
12781TIP3   OH259833   4.637   6.635   2.974 -0.3468 -0.5836  0.3776
12781TIP3    H159834   4.684   6.718   2.967 -3.4169  1.1693 -1.5425
12781TIP3    H259835   4.602   6.620   2.887 -2.9495 -1.9434  1.5659
12782TIP3   OH259836   5.474   3.188  10.355 -0.4838  0.7220 -0.2062
12782TIP3    H159837   5.389   3.185  10.311  0.1904 -0.4129 -1.5109
12782TIP3    H259838   5.503   3.279  10.347 -0.9764  0.8192 -0.9302
12783TIP3   OH259839   4.965   0.443   3.736 -0.1160 -0.4398 -0.7260
12783TIP3    H159840   5.041   0.384   3.732  0.6176  0.1602  1.9598
12783TIP3    H259841   4.998   0.527   3.704  0.5927 -0.0436  0.9176
12784TIP3   OH259842   2.591   2.577  14.914  0.4133 -0.3107  0.3098
12784TIP3    H159843   2.555   2.664  14.897  0.7479 -0.1848  0.2291
12784TIP3    H259844   2.516   2.524  14.940  0.2140  0.0108  0.3892
12785TIP3   OH259845   2.402   6.563   2.241  0.2135  0.1800  1.1903
12785TIP3    H159846   2.364   6.517   2.166  0.7853  0.6885  0.5752
12785TIP3    H259847   2.495   6.569   2.220  0.4226  0.0874  2.0755
12786TIP3   OH259848   5.584   0.363   1.487 -0.1706  0.1680 -0.4015
12786TIP3    H159849   5.609   0.454   1.478  1.1059 -0.1485 -0.2739
12786TIP3    H259850   5.488   0.364   1.493 -0.1658  1.4818 -0.4170
12787TIP3   OH259851   3.342   5.159   4.466 -0.0380 -0.2282  0.7165
12787TIP3    H159852   3.400   5.174   4.391 -2.4734  1.7613 -0.9460
12787TIP3    H259853   3.301   5.075   4.447 -0.3485  0.0769  0.0036
12788TIP3   OH259854   0.368   1.491   5.356  0.0997 -0.4905 -0.1610
12788TIP3    H159855   0.277   1.504   5.382  0.3422  1.3462 -0.1431
12788TIP3    H259856   0.417   1.553   5.408  0.9357  1.2056 -2.7719
12789TIP3   OH259857   3.925   6.452  12.123 -0.0387  0.3441  0.1039
12789TIP3    H159858   3.917   6.360  12.148  0.8002  0.0412 -0.6815
12789TIP3    H259859   3.982   6.451  12.046  1.1377  1.6443  0.9160
12790TIP3   OH259860   6.702   1.805  13.056  0.7317  0.1441  0.0462
12790TIP3    H159861   6.668   1.842  12.975 -0.5286 -1.5008 -0.2262
12790TIP3    H259862   6.772   1.745  13.028 -0.4093 -1.2259  0.0421
12791TIP3   OH259863   5.668   0.394  11.031  0.6368  0.0344  0.1942
12791TIP3    H159864   5.711   0.434  11.107 -0.2333 -0.9393  1.2248
12791TIP3    H259865   5.732   0.404  10.960  1.3022  1.3169  0.9410
12792TIP3   OH259866   2.294   2.386  15.678 -0.0594 -0.2985 -0.3894
12792TIP3    H159867   2.241   2.423  15.608  0.0899 -3.2915 -2.3035
12792TIP3    H259868   2.383   2.385  15.643  0.4999  0.5087  0.9365
12793TIP3   OH259869   0.420   0.327  13.603 -0.5941  0.2876  0.4905
12793TIP3    H159870   0.450   0.257  13.545 -1.5400 -0.5219  0.9537
12793TIP3    H259871   0.495   0.344  13.660 -0.5560 -0.7777  0.7714
12794TIP3   OH259872   3.133   2.190   1.987  0.4156 -0.1464 -0.1061
12794TIP3    H159873   3.173   2.263   1.939 -1.1704 -0.0813 -1.3971
12794TIP3    H259874   3.057   2.230   2.031  0.2214 -0.7897  0.1510
12795TIP3   OH259875   6.001   3.472  12.164  0.1694 -0.1531 -0.0716
12795TIP3    H159876   6.085   3.448  12.204  1.3230  2.2105 -0.9133
12795TIP3    H259877   6.001   3.568  12.164 -0.9371 -0.0428 -3.2599
12796TIP3   OH259878   2.560   2.602   1.111 -0.3902  0.0129  0.1985
12796TIP3    H159879   2.591   2.584   1.200 -0.3486  0.4485  0.2742
12796TIP3    H259880   2.587   2.525   1.061  0.2659  0.1020  0.3996
12797TIP3   OH259881   2.669   1.961   1.901 -0.9239 -0.2214 -0.1297
12797TIP3    H159882   2.624   2.045   1.902 -1.0676 -0.2581 -1.7720
12797TIP3    H259883   2.600   1.897   1.887 -0.6111 -0.4660 -0.5653
12798TIP3   OH259884   4.735   3.700   5.233  0.2938 -0.0019  0.2392
12798TIP3    H159885   4.666   3.764   5.247  0.8084  0.8141 -0.8238
12798TIP3    H259886   4.797   3.715   5.305  0.2885  0.5322  0.1339
12799TIP3   OH259887   6.320   1.526  16.540 -0.5119  0.0243  0.3104
12799TIP3    H159888   6.404   1.557  16.506  1.1353 -2.4026  1.8376
12799TIP3    H259889   6.314   1.435  16.510 -2.2725 -0.0991  0.8768
12800TIP3   OH259890   2.360   0.105  13.071 -0.1674 -0.3505 -0.0021
12800TIP3    H159891   2.371   0.200  13.077 -1.3508 -0.1652 -0.5095
12800TIP3    H259892   2.434   0.069  13.121 -0.6405  0.8480  1.6533
12801TIP3   OH259893   4.224   2.621   5.015  0.0878  0.0309 -0.2170
12801TIP3    H159894   4.166   2.613   5.090  0.1853 -1.1099 -0.2449
12801TIP3    H259895   4.283   2.546   5.022  2.3616  1.7745  0.4588
12802TIP3   OH259896   4.160   1.943  10.641  1.0646 -0.8758  0.6342
12802TIP3    H159897   4.245   1.913  10.608  0.7794 -1.6029  0.5401
12802TIP3    H259898   4.120   1.864  10.678 -0.7925 -1.2181 -1.8680
12803TIP3   OH259899   0.008   2.475   2.246 -0.2189 -0.5344 -0.5612
12803TIP3    H159900   0.048   2.440   2.166  0.8800 -0.1311 -0.2037
12803TIP3    H259901   0.077   2.471   2.312 -0.1326  1.9015 -0.3860
12804TIP3   OH259902   0.987   6.826   1.332 -0.0631  0.1033  0.0831
12804TIP3    H159903   1.019   6.750   1.283  0.1736  0.8188 -0.9129
12804TIP3    H259904   1.042   6.828   1.410  1.8148  0.8036 -1.1808
12805TIP3   OH259905   6.352   2.434  16.091  0.2931 -0.0206  0.6607
12805TIP3    H159906   6.397   2.508  16.130  2.0718 -0.8866  0.3364
12805TIP3    H259907   6.282   2.414  16.153 -0.6811  2.3021  0.4233
12806TIP3   OH259908   6.322   4.034   5.606  0.5423 -0.1050  0.1268
12806TIP3    H159909   6.340   3.998   5.692  0.1283  0.5544  0.4974
12806TIP3    H259910   6.325   3.959   5.547 -2.7346 -1.2226  1.1862
12807TIP3   OH259911   6.809   1.478  14.355  0.0720  0.3260  0.1668
12807TIP3    H159912   6.831   1.459  14.446  0.3895  0.1398  0.0525
12807TIP3    H259913   6.847   1.564  14.339  0.8151 -0.0312 -0.0557
12808TIP3   OH259914   6.781   3.331   3.007 -0.0992 -0.0229 -1.1649
12808TIP3    H159915   6.870   3.296   2.994 -0.7733 -2.5272  0.3124
12808TIP3    H259916   6.755   3.299   3.093 -2.4727  0.6275 -1.5743
12809TIP3   OH259917   3.910   1.407  14.042  0.3791  0.2610 -0.2056
12809TIP3    H159918   3.978   1.472  14.027  0.8398 -0.2030 -0.1335
12809TIP3    H259919   3.951   1.323  14.024  0.0397 -0.0816  0.5373
12810TIP3   OH259920   6.335   1.402  15.345 -0.2225 -0.5688 -0.1381
12810TIP3    H159921   6.344   1.335  15.413  1.5607 -1.8154 -1.4848
12810TIP3    H259922   6.329   1.352  15.263 -0.5186  0.9040 -1.0461
12811TIP3   OH259923   0.961   5.110  13.064  0.0426  0.3050 -0.5187
12811TIP3    H159924   0.883   5.127  13.012  0.2508 -2.0631 -1.6883
12811TIP3    H259925   1.015   5.052  13.011  1.8042  0.4387  0.9910
12812TIP3   OH259926   0.173   3.523   3.447 -0.4025 -0.0055 -0.0589
12812TIP3    H159927   0.121   3.603   3.438  0.4410  0.3463 -2.4183
12812TIP3    H259928   0.107   3.453   3.452 -1.1349  0.6831  0.1679
12813TIP3   OH259929   6.277   2.426   3.692  0.2982 -0.1436 -0.0414
12813TIP3    H159930   6.255   2.389   3.778  1.3053 -0.5302  0.0651
12813TIP3    H259931   6.363   2.467   3.705 -0.1095  0.8975 -0.5507
12814TIP3   OH259932   3.651   2.924  12.201  0.3126  0.4903 -0.2259
12814TIP3    H159933   3.714   2.880  12.257  1.1689  0.4565 -1.1854
12814TIP3    H259934   3.704   2.969  12.135 -0.5172  2.8187  0.5722
12815TIP3   OH259935   0.767   0.209   3.386  0.5556  0.0505  0.1089
12815TIP3    H159936   0.792   0.129   3.432 -0.5668 -0.1012  0.4829
12815TIP3    H259937   0.845   0.233   3.336  1.2641 -0.6726  0.8342
12816TIP3   OH259938   6.543   6.608  13.734  0.6695 -0.0750  0.1635
12816TIP3    H159939   6.513   6.532  13.784 -1.4815 -0.4398 -1.5111
12816TIP3    H259940   6.632   6.586  13.707  0.1160 -2.0079 -0.2216
12817TIP3   OH259941   0.300   2.914   1.047  0.0484  0.5711  0.1912
12817TIP3    H159942   0.345   2.961   1.117  1.4315  1.8530 -1.4606
12817TIP3    H259943   0.325   2.961   0.967 -3.1241  0.4837 -0.9875
12818TIP3   OH259944   3.981   4.422   4.801 -0.0618 -0.6043 -0.2602
12818TIP3    H159945   4.057   4.477   4.817 -0.3555 -0.6272  1.4761
12818TIP3    H259946   3.953   4.443   4.712  0.6843  0.9852 -0.1415
12819TIP3   OH259947   1.008   1.407   5.649  0.3769 -0.5673 -0.1107
12819TIP3    H159948   0.938   1.343   5.637 -1.2974  0.9237  1.1316
12819TIP3    H259949   0.970   1.490   5.621  1.5017  0.3639  0.9954
12820TIP3   OH259950   4.649   0.610   0.264  0.1179  0.0841 -0.1532
12820TIP3    H159951   4.741   0.612   0.238 -0.0071 -0.5710 -0.6722
12820TIP3    H259952   4.604   0.567   0.191 -0.2245 -1.9456  1.1821
12821TIP3   OH259953   1.385   5.859   5.501  0.3828  0.0032  0.2675
12821TIP3    H159954   1.304   5.858   5.552  0.2900 -0.8725  0.1170
12821TIP3    H259955   1.359   5.830   5.414  0.3785  2.2952 -0.5678
12822TIP3   OH259956   4.070   1.186   0.859 -0.0862  0.0068 -0.1836
12822TIP3    H159957   3.994   1.219   0.906  0.7337  1.9474 -0.1473
12822TIP3    H259958   4.117   1.264   0.831  0.8147 -1.1106 -2.0191
12823TIP3   OH259959   0.491   5.085  12.708  0.7636  0.4958 -0.3400
12823TIP3    H159960   0.466   5.085  12.800  2.1399  0.7147  0.0514
12823TIP3    H259961   0.408   5.074  12.661 -0.2733  2.6420  0.8269
12824TIP3   OH259962   5.802   2.588  14.667 -0.1860 -0.6920  0.2084
12824TIP3    H159963   5.821   2.497  14.691  1.8795 -0.4053 -0.1152
12824TIP3    H259964   5.743   2.619  14.736 -3.4269 -3.0500 -1.2058
12825TIP3   OH259965   1.073   1.952  15.152  0.2142 -0.1339  0.3745
12825TIP3    H159966   1.085   1.971  15.059  0.7552  1.3382  0.7256
12825TIP3    H259967   0.981   1.924  15.159 -0.0511  0.4801 -0.4900
12826TIP3   OH259968   2.452   0.365   1.278 -0.0883 -0.0062  0.5026
12826TIP3    H159969   2.445   0.403   1.366 -1.3876 -0.6187  0.7000
12826TIP3    H259970   2.374   0.309   1.271  1.6022 -2.4493  0.1399
12827TIP3   OH259971   1.478   0.112   1.808 -0.3115  0.1810 -0.1634
12827TIP3    H159972   1.506   0.076   1.725 -0.4147  0.1607 -0.1900
12827TIP3    H259973   1.421   0.185   1.785 -1.3548 -0.5972 -0.1244
12828TIP3   OH259974   3.683   5.649  11.688  0.6785  0.3118 -0.0689
12828TIP3    H159975   3.702   5.711  11.759  0.1892  0.5369 -0.1248
12828TIP3    H259976   3.739   5.574  11.705 -0.6539 -0.3740  1.5460
12829TIP3   OH259977   2.588   0.492   2.888  0.1299  0.5859  0.8064
12829TIP3    H159978   2.604   0.533   2.804  0.2604  2.7832  1.8482
12829TIP3    H259979   2.508   0.534   2.921 -0.8563 -1.3704  1.1340
12830TIP3   OH259980   1.235   4.019   5.419 -0.1140 -0.1252 -0.0780
12830TIP3    H159981   1.243   3.986   5.330 -1.9956  0.1325 -0.3948
12830TIP3    H259982   1.179   3.955   5.463 -0.1192  0.3197  0.5819
12831TIP3   OH259983   5.193   2.463   1.692  0.4033 -0.1455 -0.0857
12831TIP3    H159984   5.155   2.532   1.638 -0.1466 -0.1609  0.2706
12831TIP3    H259985   5.196   2.500   1.780  2.5552  0.3773 -0.3360
12832TIP3   OH259986   1.120   2.105   2.433 -0.1640  0.2637  0.3859
12832TIP3    H159987   1.203   2.149   2.412  0.1050 -1.0873 -1.8112
12832TIP3    H259988   1.052   2.169   2.414  0.2921  0.3694 -1.0422
12833TIP3   OH259989   1.678   5.668   2.275 -0.1240 -0.2259  0.4805
12833TIP3    H159990   1.585   5.644   2.275 -0.2849  0.3762  0.3476
12833TIP3    H259991   1.684   5.741   2.336  0.3928 -0.7245  1.0284
12834TIP3   OH259992   5.936   4.592   3.984 -0.5726  0.6647 -0.3116
12834TIP3    H159993   6.009   4.542   3.949 -0.7487 -0.5723  1.0275
12834TIP3    H259994   5.969   4.682   3.991  0.5387  0.2719 -0.4551
12835TIP3   OH259995   3.974   5.214  14.100 -0.1024 -0.3674 -0.1629
12835TIP3    H159996   4.023   5.131  14.095  0.6298  0.0590 -0.2743
12835TIP3    H259997   3.980   5.250  14.011  0.4991  0.3129  0.1536
12836TIP3   OH259998   2.168   6.380  11.562  0.3313  0.0145  0.3642
12836TIP3    H159999   2.173   6.365  11.468 -0.5390 -0.7787  0.4319
12836TIP3    H260000   2.249   6.427  11.583  0.3514  0.5354 -0.8281
12837TIP3   OH260001   2.144   2.843  15.774 -0.0484  0.5971  0.3348
12837TIP3    H160002   2.185   2.858  15.860  1.2290  1.6569 -0.4277
12837TIP3    H260003   2.213   2.801  15.722 -0.0031  2.1286 -0.8766
12838TIP3   OH260004   1.511   0.547  13.301  0.0186  0.4637 -0.3314
12838TIP3    H160005   1.567   0.471  13.289 -0.1900  0.1040  0.7895
12838TIP3    H260006   1.553   0.597  13.372  0.0646  1.3065 -0.9335
12839TIP3   OH260007   2.221   1.144  12.125 -0.3266  0.2235 -0.4159
12839TIP3    H160008   2.196   1.213  12.063 -0.0823  0.4321 -0.2861
12839TIP3    H260009   2.309   1.168  12.153 -0.9233  0.9015  1.0475
12840TIP3   OH260010   6.572   6.335   1.840  0.5768  0.3879 -0.2159
12840TIP3    H160011   6.595   6.381   1.760 -1.1679  0.7895 -0.5400
12840TIP3    H260012   6.552   6.245   1.812  0.1538  0.4786 -0.2184
12841TIP3   OH260013   3.699   1.814   4.187 -0.4825  0.8671 -0.4806
12841TIP3    H160014   3.611   1.842   4.162 -1.4164  2.8491  4.0068
12841TIP3    H260015   3.684   1.741   4.248  1.2194 -0.6085 -1.7368
12842TIP3   OH260016   4.712   4.671  15.632  0.2527  0.4016 -0.5139
12842TIP3    H160017   4.724   4.608  15.703  0.6137 -1.0429 -1.7968
12842TIP3    H260018   4.681   4.750  15.675  2.2498  0.1929  1.4800
12843TIP3   OH260019   1.075   3.747  14.155 -0.9127  0.0817  0.0693
12843TIP3    H160020   1.057   3.826  14.103  1.2440  0.5474 -0.0704
12843TIP3    H260021   1.170   3.739  14.154 -1.0397 -2.1412  0.7031
12844TIP3   OH260022   4.331   3.283  11.095 -0.1135  0.6390  0.1843
12844TIP3    H160023   4.275   3.360  11.096 -0.5714  0.3171  1.7692
12844TIP3    H260024   4.407   3.308  11.147  0.6754  0.6727 -0.9617
12845TIP3   OH260025   6.479   5.237  14.399  0.5627 -0.3988  0.2006
12845TIP3    H160026   6.557   5.212  14.449  1.2548  0.0307 -0.6329
12845TIP3    H260027   6.488   5.190  14.316 -0.1914 -0.5256  0.1839
12846TIP3   OH260028   3.083   4.344  14.222  0.4918 -0.1034  0.0348
12846TIP3    H160029   3.012   4.374  14.279 -0.0966 -1.2260 -0.0784
12846TIP3    H260030   3.145   4.302  14.281  0.2311 -0.6301 -0.0636
12847TIP3   OH260031   1.867   2.289  16.752 -0.5297  0.0726 -0.6132
12847TIP3    H160032   1.888   2.207  16.707  0.8585 -1.0557  1.9057
12847TIP3    H260033   1.858   2.265  16.844 -0.4213  2.6998  0.1777
12848TIP3   OH260034   2.699   2.345  13.653  0.1584  0.0149 -0.0671
12848TIP3    H160035   2.613   2.304  13.656  0.2206 -0.1217 -0.1706
12848TIP3    H260036   2.688   2.426  13.702 -0.0579  0.0516 -0.1738
12849TIP3   OH260037   5.152   4.158  13.414  0.2797  0.0772  0.4954
12849TIP3    H160038   5.207   4.234  13.435 -0.1335  1.1676 -1.9627
12849TIP3    H260039   5.192   4.122  13.334 -0.6618 -1.1218  0.5474
12850TIP3   OH260040   0.445   4.041   0.772  0.0388  0.0544 -0.4769
12850TIP3    H160041   0.437   4.054   0.866 -0.0945 -0.4171 -0.4204
12850TIP3    H260042   0.356   4.048   0.738  0.0067 -0.3583 -0.4869
12851TIP3   OH260043   4.203   3.317  11.368  0.0816  0.5664  0.1047
12851TIP3    H160044   4.129   3.362  11.409  1.8748  2.5224  1.4345
12851TIP3    H260045   4.246   3.385  11.316  1.2203 -0.3982 -0.2465
12852TIP3   OH260046   2.778   1.326   5.279  0.0401 -0.2722 -0.6564
12852TIP3    H160047   2.819   1.334   5.193 -0.1308 -0.9852 -0.8056
12852TIP3    H260048   2.723   1.248   5.273 -0.9070  0.3343 -0.2816
12853TIP3   OH260049   3.495   0.670   5.915  0.3018 -0.2095  0.0457
12853TIP3    H160050   3.511   0.762   5.936 -1.8480  0.6685 -1.7100
12853TIP3    H260051   3.582   0.630   5.914  1.3297  1.8814  0.5419
12854TIP3   OH260052   1.968   0.264   3.408 -0.6025  0.4342 -0.2386
12854TIP3    H160053   2.013   0.296   3.330 -1.0930  2.3785  0.2134
12854TIP3    H260054   1.897   0.209   3.373 -0.0089  0.1839 -1.0919
12855TIP3   OH260055   4.666   4.236  12.836  0.1448  0.7120  0.3992
12855TIP3    H160056   4.604   4.172  12.800 -1.2798  1.3644  1.5618
12855TIP3    H260057   4.702   4.281  12.760  1.0430 -1.3114 -0.4386
12856TIP3   OH260058   0.349   0.944   0.045 -0.2022  0.2290  0.7132
12856TIP3    H160059   0.386   1.022   0.086 -0.8398  1.9252 -1.7384
12856TIP3    H260060   0.324   0.972  -0.043 -0.3129 -2.8081 -0.3437
12857TIP3   OH260061   3.101   5.666   6.215 -0.5701 -0.1187 -0.2190
12857TIP3    H160062   3.139   5.669   6.127  0.5339  1.2088  0.2689
12857TIP3    H260063   3.008   5.652   6.200 -0.3168 -0.4829 -1.5791
12858TIP3   OH260064   1.893   4.494  16.445  0.1443  0.0422 -0.1067
12858TIP3    H160065   1.875   4.534  16.360 -0.7340  1.9908  0.9350
12858TIP3    H260066   1.806   4.471  16.479  0.4120  0.2395  0.7134
12859TIP3   OH260067   3.535   3.899  13.353 -0.2687 -0.4306  0.4512
12859TIP3    H160068   3.554   3.919  13.445 -0.8657 -0.9739  0.7054
12859TIP3    H260069   3.457   3.844  13.357 -0.5614 -0.0896 -0.4147
12860TIP3   OH260070   2.087   1.809   1.132  0.6087 -0.0766  0.3303
12860TIP3    H160071   2.123   1.732   1.088  1.0009 -0.4889  1.3457
12860TIP3    H260072   1.993   1.794   1.134  0.7238 -0.7726  0.9496
12861TIP3   OH260073   0.742   1.508   3.630 -0.3891  0.5273  0.0864
12861TIP3    H160074   0.765   1.433   3.685 -2.5799 -0.5440 -0.3586
12861TIP3    H260075   0.705   1.572   3.690 -0.5216  0.3609  0.1827
12862TIP3   OH260076   6.066   5.437   0.162 -0.4369  0.4986  0.5457
12862TIP3    H160077   5.995   5.501   0.171 -0.1788  0.7141  1.1751
12862TIP3    H260078   6.027   5.363   0.116 -1.0533  0.6399  0.8287
12863TIP3   OH260079   3.176   5.774  16.140 -0.0257  0.1199 -0.1649
12863TIP3    H160080   3.139   5.847  16.090 -1.3757  0.6410  1.4804
12863TIP3    H260081   3.106   5.751  16.202  0.8708 -1.7212  0.2080
12864TIP3   OH260082   4.748   3.966   3.733  0.0121  0.3499 -0.4819
12864TIP3    H160083   4.771   4.013   3.813  0.1819  0.1509 -0.4132
12864TIP3    H260084   4.701   3.888   3.763 -1.1763  0.9760 -0.6391
12865TIP3   OH260085   6.046   3.607  14.154 -0.7262 -0.4587  0.1152
12865TIP3    H160086   6.013   3.615  14.243 -0.8753  0.6541 -0.0154
12865TIP3    H260087   6.110   3.679  14.147  0.0402 -1.1730 -0.3459
12866TIP3   OH260088   6.402   6.342   3.249 -0.0255 -0.6036 -0.6360
12866TIP3    H160089   6.357   6.384   3.175 -1.8659 -1.7759 -0.2639
12866TIP3    H260090   6.332   6.324   3.312  1.3388 -0.5738  0.9618
12867TIP3   OH260091   4.271   4.225  14.104  0.4147 -0.0133  0.2036
12867TIP3    H160092   4.329   4.149  14.117  1.2000  0.5662  0.1365
12867TIP3    H260093   4.304   4.266  14.024  0.1817  0.5698  0.4072
12868TIP3   OH260094   3.708   0.335   0.028 -0.1218 -0.2147 -0.3343
12868TIP3    H160095   3.728   0.405  -0.034  1.3794 -0.2311  0.0863
12868TIP3    H260096   3.785   0.330   0.084 -0.1774 -2.2102 -0.3564
12869TIP3   OH260097   1.204   1.164   3.226 -0.5159  0.1112  0.4537
12869TIP3    H160098   1.147   1.094   3.194  1.7664 -1.1758 -1.0695
12869TIP3    H260099   1.210   1.226   3.153  1.3959 -0.6862 -0.1126
12870TIP3   OH260100   1.426   2.358   3.689 -0.2498 -0.7682 -0.2347
12870TIP3    H160101   1.468   2.291   3.636  2.1515  0.0241  0.5138
12870TIP3    H260102   1.414   2.317   3.775  0.3975 -0.5266 -0.0265
12871TIP3   OH260103   4.424   4.200  15.031 -0.0968 -0.1187  0.3526
12871TIP3    H160104   4.332   4.210  15.054  0.3713  0.0710  2.3954
12871TIP3    H260105   4.450   4.117  15.071  0.6010 -0.2026 -0.2565
12872TIP3   OH260106   6.635   4.199  12.184 -0.5235  0.1912  0.0344
12872TIP3    H160107   6.555   4.156  12.214  1.8910 -3.4420  1.9756
12872TIP3    H260108   6.653   4.160  12.098 -0.2686  0.1060  0.1236
12873TIP3   OH260109   1.180   2.525   5.059 -0.3591 -0.3263  0.2093
12873TIP3    H160110   1.188   2.440   5.016  0.2155 -0.1658  0.0023
12873TIP3    H260111   1.104   2.566   5.018 -0.0324 -0.3241 -0.3886
12874TIP3   OH260112   3.823   1.930   3.928 -0.5023 -0.0629  0.4152
12874TIP3    H160113   3.774   1.924   3.846  0.0824 -0.2436  0.0752
12874TIP3    H260114   3.813   1.844   3.968  1.1953 -0.7722 -0.6170
12875TIP3   OH260115   6.142   0.142   0.743 -0.1922  0.3517 -0.6499
12875TIP3    H160116   6.185   0.082   0.681 -1.4761 -1.2376 -0.0540
12875TIP3    H260117   6.086   0.197   0.688 -1.9820 -1.6171 -0.8840
12876TIP3   OH260118   2.294   4.870  11.421 -0.5016 -0.5690 -0.7113
12876TIP3    H160119   2.315   4.791  11.471 -0.6739  0.2802  0.7774
12876TIP3    H260120   2.240   4.923  11.481  0.7493  1.2796 -1.1267
12877TIP3   OH260121   0.435   3.591  16.188  0.1432 -0.3872 -0.0187
12877TIP3    H160122   0.414   3.595  16.095  1.4465  0.5687 -0.2946
12877TIP3    H260123   0.401   3.674  16.224  4.0703  1.7471 -0.6817
12878TIP3   OH260124   0.050   0.291  13.335  0.0712  0.6520  0.1564
12878TIP3    H160125   0.077   0.315  13.246 -1.2145 -1.8565 -1.0150
12878TIP3    H260126   0.116   0.228  13.363 -0.3503  0.3003  0.3612
12879TIP3   OH260127   6.523   0.017   1.626 -0.0691  0.0747 -0.0400
12879TIP3    H160128   6.580   0.008   1.703 -0.5098 -0.5050  0.2284
12879TIP3    H260129   6.436  -0.008   1.657  0.0169 -1.6893 -1.0912
12880TIP3   OH260130   5.597   0.989   4.937  0.1923  0.1327 -0.2590
12880TIP3    H160131   5.643   1.057   4.888  0.2813  0.7678  0.6926
12880TIP3    H260132   5.509   0.988   4.899 -0.6640  2.6431  1.4166
12881TIP3   OH260133   3.406   5.525  11.905  0.0926 -0.2110  0.1902
12881TIP3    H160134   3.366   5.558  11.824 -1.1096 -0.0615  0.8216
12881TIP3    H260135   3.419   5.603  11.959  1.4722 -0.2301 -0.0859
12882TIP3   OH260136   5.439   5.620  16.344  0.3660 -0.5987 -0.3592
12882TIP3    H160137   5.477   5.575  16.419 -1.1416 -0.3345  0.5913
12882TIP3    H260138   5.449   5.559  16.271  0.7129 -1.3756  0.3305
12883TIP3   OH260139   1.871   0.481   3.810 -0.1861 -0.4262  0.0207
12883TIP3    H160140   1.797   0.421   3.819 -0.6872 -0.2247 -2.0806
12883TIP3    H260141   1.949   0.424   3.814 -0.6270 -1.1769 -1.3383
12884TIP3   OH260142   4.848   0.907   3.106 -0.2903  0.1356  0.4563
12884TIP3    H160143   4.802   0.972   3.054  0.8863  0.3279 -0.3867
12884TIP3    H260144   4.779   0.848   3.137 -0.8855 -2.0036 -4.0784
12885TIP3   OH260145   5.707   4.060  16.977  0.0180  0.0812  0.2767
12885TIP3    H160146   5.795   4.063  16.939  0.9502 -0.8558  2.1901
12885TIP3    H260147   5.670   3.977  16.948  0.7130 -0.6154  1.2869
12886TIP3   OH260148   6.777   0.102  12.509  0.3937 -0.1430 -0.3444
12886TIP3    H160149   6.738   0.031  12.459 -0.8980  0.0459  0.3310
12886TIP3    H260150   6.813   0.161  12.443  0.0311 -0.6194 -0.9787
12887TIP3   OH260151   5.125   3.498  14.879  0.0149  0.1254 -0.1440
12887TIP3    H160152   5.136   3.409  14.844 -0.0791 -0.2811  0.8297
12887TIP3    H260153   5.067   3.541  14.816  1.3463  0.0382 -1.5134
12888TIP3   OH260154   5.787   4.291  15.142  0.4819  0.2926  0.2466
12888TIP3    H160155   5.795   4.223  15.075 -1.8548 -1.9007  1.9710
12888TIP3    H260156   5.877   4.310  15.168  1.3801  0.3940 -2.6395
12889TIP3   OH260157   1.848   6.146  12.375 -0.1375 -0.1446 -0.8978
12889TIP3    H160158   1.862   6.066  12.325 -0.1433 -0.3669 -0.5438
12889TIP3    H260159   1.930   6.160  12.422  0.0020  0.2723 -1.2631
12890TIP3   OH260160   5.190   6.845   5.209 -0.2948  0.4935  0.6611
12890TIP3    H160161   5.157   6.894   5.134  1.1009  0.3047 -0.1116
12890TIP3    H260162   5.129   6.865   5.279 -1.8251  0.4213 -0.5930
12891TIP3   OH260163   2.958   1.716  13.558  0.1656 -0.4712 -0.0400
12891TIP3    H160164   2.896   1.644  13.557 -0.8399  0.3812 -0.5012
12891TIP3    H260165   2.999   1.714  13.472 -1.0560  0.5040 -0.6617
12892TIP3   OH260166   2.927   5.673   2.115  0.1898 -0.0066 -0.4992
12892TIP3    H160167   2.837   5.693   2.138  0.3195  0.2193 -0.1713
12892TIP3    H260168   2.923   5.588   2.073 -0.4246  0.8565 -2.2550
12893TIP3   OH260169   3.564   4.011   5.797  0.0901 -0.2112  0.1503
12893TIP3    H160170   3.585   3.983   5.886 -3.4937 -1.3489  0.8264
12893TIP3    H260171   3.544   4.104   5.805 -0.8887 -0.4526  0.7422
12894TIP3   OH260172   4.694   6.284  14.077 -0.2256  0.1563 -0.1675
12894TIP3    H160173   4.613   6.302  14.124  0.2785  0.1773  0.7123
12894TIP3    H260174   4.759   6.267  14.145 -0.0951 -2.6477 -0.8538
12895TIP3   OH260175   0.857   3.323   4.736 -0.7887  0.3220 -0.2058
12895TIP3    H160176   0.814   3.395   4.782 -1.6026 -1.1506  1.4510
12895TIP3    H260177   0.944   3.357   4.715 -0.2452  1.0432  2.7335
12896TIP3   OH260178   3.813   3.010  12.553 -0.3417 -0.1615 -0.1689
12896TIP3    H160179   3.846   2.947  12.618 -0.3546 -0.1457 -0.1475
12896TIP3    H260180   3.832   2.969  12.469  2.3181  1.0824 -0.2859
12897TIP3   OH260181   6.397   2.142  11.264  0.3399 -0.4422 -0.3272
12897TIP3    H160182   6.348   2.202  11.321  1.3732 -0.7117  0.9123
12897TIP3    H260183   6.351   2.144  11.181 -0.4595  1.0065  0.1185
12898TIP3   OH260184   6.568   3.269  13.353  0.3492  0.0349 -0.3836
12898TIP3    H160185   6.503   3.259  13.422  1.8038  1.5385  1.3266
12898TIP3    H260186   6.600   3.359  13.363  0.5528  0.3489 -3.1173
12899TIP3   OH260187   4.670   1.590  11.880  0.1709  0.3475  0.2936
12899TIP3    H160188   4.751   1.576  11.930 -0.9176  0.6730  2.2357
12899TIP3    H260189   4.606   1.532  11.922 -0.7303  0.4323 -0.9154
12900TIP3   OH260190   5.102   3.084   1.070  0.1073 -0.7811 -0.2968
12900TIP3    H160191   5.102   3.074   1.166 -0.4731 -0.6680 -0.2823
12900TIP3    H260192   5.148   3.167   1.055 -2.0466  0.5359  0.0507
12901TIP3   OH260193   6.447   2.664   1.065  0.5531  0.3059  0.3529
12901TIP3    H160194   6.464   2.594   1.128 -1.9004 -1.0350 -0.3650
12901TIP3    H260195   6.410   2.620   0.989  0.3637  2.2359 -0.7427
12902TIP3   OH260196   0.704   6.123  13.664  0.0638 -0.1677 -0.0062
12902TIP3    H160197   0.788   6.081  13.684  0.6264  0.8469 -0.1849
12902TIP3    H260198   0.651   6.053  13.626  0.6691 -0.9290  0.5151
12903TIP3   OH260199   0.781   3.952   5.360  0.3089 -0.3758 -0.2919
12903TIP3    H160200   0.746   4.009   5.291  2.4352 -0.8355 -1.8609
12903TIP3    H260201   0.776   3.864   5.324  1.5424 -0.6206  0.0746
12904TIP3   OH260202   5.644   5.334  11.562 -0.0973 -0.7751 -0.4461
12904TIP3    H160203   5.678   5.379  11.640  2.0832 -0.6879 -1.3771
12904TIP3    H260204   5.636   5.242  11.590  0.6299 -0.7404 -0.0852
12905TIP3   OH260205   6.675   5.631   1.656  0.8345 -0.2509  0.1094
12905TIP3    H160206   6.691   5.719   1.689  0.7572  1.4843 -3.8453
12905TIP3    H260207   6.580   5.621   1.661  0.6196  0.8082 -1.2506
12906TIP3   OH260208   5.046   0.757  12.055  0.3979  0.0932 -0.4895
12906TIP3    H160209   5.139   0.761  12.077  0.7737 -1.9107 -1.5007
12906TIP3    H260210   5.028   0.842  12.014  1.6314  0.7301  0.2304
12907TIP3   OH260211   0.223   3.741   2.048  0.0105 -0.8122 -0.1056
12907TIP3    H160212   0.154   3.806   2.029  0.1421 -0.8024 -0.5772
12907TIP3    H260213   0.270   3.733   1.965  0.9877 -0.3463  0.3905
12908TIP3   OH260214   0.020   2.365  15.520  0.0595 -0.0836  0.3706
12908TIP3    H160215  -0.012   2.434  15.578  0.7647 -0.4721  1.2573
12908TIP3    H260216   0.097   2.331  15.565  0.8397 -0.1589 -0.9932
12909TIP3   OH260217   6.358   3.591   4.047 -0.1095 -0.3914 -0.0764
12909TIP3    H160218   6.449   3.620   4.053  0.6031 -2.2546 -1.1562
12909TIP3    H260219   6.342   3.545   4.129 -0.3797  0.6151  0.4617
12910TIP3   OH260220   4.861   3.314   0.525  0.2007 -0.3193  0.1719
12910TIP3    H160221   4.901   3.371   0.589  0.6061  1.2661 -1.4075
12910TIP3    H260222   4.795   3.369   0.482  1.4349 -0.5767 -2.2337
12911TIP3   OH260223   5.670   3.591  17.052 -0.1613  0.6600 -0.1213
12911TIP3    H160224   5.583   3.552  17.045 -0.1697  0.4043  1.2387
12911TIP3    H260225   5.665   3.669  16.996 -1.2451  0.6366 -0.0876
12912TIP3   OH260226   5.399   2.719  14.791  0.0151 -0.1455  0.4970
12912TIP3    H160227   5.434   2.670  14.717 -0.6924 -1.0193  0.7271
12912TIP3    H260228   5.444   2.684  14.867 -0.1379 -0.0975  0.6105
12913TIP3   OH260229   3.136   3.490   3.083 -0.2247 -0.2788 -0.6015
12913TIP3    H160230   3.102   3.571   3.122 -0.8155 -0.1319 -1.3899
12913TIP3    H260231   3.115   3.422   3.148  0.8417  0.2725  0.3533
12914TIP3   OH260232   5.209   6.478   5.506  0.2563  0.0486 -0.2740
12914TIP3    H160233   5.231   6.523   5.587 -0.3287 -0.6555  0.2883
12914TIP3    H260234   5.293   6.444   5.474  0.5625  0.7406 -0.2360
12915TIP3   OH260235   2.005   4.567  11.395 -0.6000  0.1879 -0.1291
12915TIP3    H160236   2.005   4.625  11.319 -0.8868  0.6935  0.2620
12915TIP3    H260237   2.081   4.594  11.446 -0.1785 -0.4085 -0.4230
12916TIP3   OH260238   0.894   5.784   2.748 -0.4644 -0.4164  0.3076
12916TIP3    H160239   0.911   5.698   2.709  1.5991 -0.3219  0.8856
12916TIP3    H260240   0.823   5.820   2.696  1.8615 -0.4496 -3.2702
12917TIP3   OH260241   3.215   1.538   4.960 -0.5425 -0.3733 -0.1877
12917TIP3    H160242   3.199   1.600   4.889 -1.2223 -0.5743 -0.2187
12917TIP3    H260243   3.188   1.585   5.039 -0.4774 -0.4085 -0.1447
12918TIP3   OH260244   3.737   4.678  17.012  0.1124 -0.3943 -0.7861
12918TIP3    H160245   3.648   4.648  17.027  0.3530 -1.1837 -0.9178
12918TIP3    H260246   3.786   4.599  16.990  0.8570  0.0237 -0.6617
12919TIP3   OH260247   5.043   6.671   3.568  0.0789  0.4841  0.1328
12919TIP3    H160248   5.072   6.589   3.528  0.3658  0.9887 -0.7188
12919TIP3    H260249   5.122   6.723   3.577 -0.1620  0.8259  0.2925
12920TIP3   OH260250   3.876   2.272  13.825  0.5067 -0.1261  0.3691
12920TIP3    H160251   3.945   2.318  13.872 -0.5628  0.6617  1.2243
12920TIP3    H260252   3.819   2.236  13.894  0.1899 -0.9735 -0.3074
12921TIP3   OH260253   3.315   4.740  13.337 -0.4226 -0.2581 -0.8081
12921TIP3    H160254   3.353   4.827  13.323  1.6316 -0.8455  0.5176
12921TIP3    H260255   3.280   4.744  13.426  2.6687 -1.6415  0.6216
12922TIP3   OH260256   0.612   0.859  13.481 -0.0071  0.7200  0.5150
12922TIP3    H160257   0.576   0.771  13.491  0.0415  0.4940 -1.0842
12922TIP3    H260258   0.688   0.848  13.424 -0.3471  1.8648 -0.1979
12923TIP3   OH260259   4.521   6.495  14.261  0.0108 -0.0091 -0.3608
12923TIP3    H160260   4.476   6.413  14.283 -1.1596  0.2432 -1.6831
12923TIP3    H260261   4.477   6.561  14.314 -0.1714  0.0071 -0.5300
12924TIP3   OH260262   1.838   0.825  11.020 -0.0961  0.1259 -0.0799
12924TIP3    H160263   1.743   0.812  11.018  0.0246 -1.0919  0.6427
12924TIP3    H260264   1.872   0.761  10.957  0.2054  1.3087 -1.1613
12925TIP3   OH260265   2.404   4.479   5.838 -0.1824 -0.2041  0.5267
12925TIP3    H160266   2.463   4.521   5.900 -0.1717 -0.3422  0.6115
12925TIP3    H260267   2.331   4.447   5.891  0.6452 -1.8344  0.7339
12926TIP3   OH260268   6.699   1.761  15.303  0.6476  0.3926 -0.0257
12926TIP3    H160269   6.698   1.672  15.267  0.0120  0.1501  0.5588
12926TIP3    H260270   6.608   1.776  15.330  0.6173  1.4485 -0.6686
12927TIP3   OH260271   5.478   5.033  13.944  0.0431 -0.2498 -0.2288
12927TIP3    H160272   5.560   4.986  13.929 -1.8848 -4.0477  0.0672
12927TIP3    H260273   5.454   5.011  14.034 -1.5731  0.3147 -0.4938
12928TIP3   OH260274   2.823   2.050   2.783  0.2754 -0.2712  0.1743
12928TIP3    H160275   2.763   2.125   2.787  0.7092  0.0288  2.5326
12928TIP3    H260276   2.831   2.031   2.690  0.0330  2.5324 -0.5139
12929TIP3   OH260277   6.100   3.524   1.329 -0.6865  0.0701 -0.0851
12929TIP3    H160278   6.068   3.516   1.239  0.6544 -1.5652 -0.4682
12929TIP3    H260279   6.189   3.558   1.320 -0.7926  0.5765  0.6800
12930TIP3   OH260280   0.405   0.559  11.775 -0.0557 -0.4002  0.3704
12930TIP3    H160281   0.468   0.610  11.725  0.6417  0.0050  1.6114
12930TIP3    H260282   0.329   0.551  11.717  0.3564  0.8475 -0.3803
12931TIP3   OH260283   5.918   1.326   3.621 -0.8034 -0.0345  0.0514
12931TIP3    H160284   5.988   1.315   3.685 -1.1619 -1.4537  0.2353
12931TIP3    H260285   5.855   1.385   3.663 -1.2661 -1.3092  1.2458
12932TIP3   OH260286   5.575   6.238  14.634  0.3285  0.2144 -0.2713
12932TIP3    H160287   5.568   6.276  14.721  1.1659  0.7001 -0.4093
12932TIP3    H260288   5.662   6.264  14.603  1.0714 -2.0273 -0.2570
12933TIP3   OH260289   1.927   5.185   2.412 -0.1906  0.6247  0.3105
12933TIP3    H160290   1.875   5.262   2.387 -1.4839  0.6727  2.8268
12933TIP3    H260291   1.997   5.220   2.466 -0.4372  0.0876  0.9807
12934TIP3   OH260292   0.868   2.123  14.019  0.1514 -0.2379 -0.1902
12934TIP3    H160293   0.824   2.202  14.050 -2.0993 -1.5531  0.1938
12934TIP3    H260294   0.950   2.120  14.069 -0.3724  1.0925  0.8155
12935TIP3   OH260295   5.186   1.093  11.391  0.4627  0.1445  0.0225
12935TIP3    H160296   5.155   1.011  11.353 -0.1369 -0.2577  1.2998
12935TIP3    H260297   5.198   1.152  11.317 -2.4264 -0.0076 -0.6787
12936TIP3   OH260298   6.466   6.845  10.611 -0.3290  0.0069 -0.2307
12936TIP3    H160299   6.446   6.912  10.676  2.1660  0.2282  0.4227
12936TIP3    H260300   6.497   6.893  10.534 -0.1530 -0.3369 -0.3801
12937TIP3   OH260301   4.396   0.027  11.745 -0.2076 -0.0975 -0.0936
12937TIP3    H160302   4.354   0.096  11.693 -1.3291 -0.5074  0.2299
12937TIP3    H260303   4.323  -0.029  11.774  0.4621 -0.2857  1.3232
12938TIP3   OH260304   1.930   3.747   1.524 -0.4862 -0.4508  0.1009
12938TIP3    H160305   1.933   3.693   1.445 -1.0600  1.0314 -0.9744
12938TIP3    H260306   1.876   3.822   1.500 -1.5748 -0.4504  2.2389
12939TIP3   OH260307   1.869   5.145  15.431  0.3149 -0.2864  0.3576
12939TIP3    H160308   1.809   5.096  15.375  0.2929  0.2557 -0.0949
12939TIP3    H260309   1.821   5.155  15.514  0.1292 -0.6099  0.2913
12940TIP3   OH260310   1.675   5.897  13.479 -0.4356  0.6972  0.3402
12940TIP3    H160311   1.715   5.863  13.559  1.9895 -1.0779 -1.4741
12940TIP3    H260312   1.628   5.822  13.442  2.3388 -0.0287 -2.1131
12941TIP3   OH260313   3.392   2.142  16.497  0.3256  0.0164  0.6247
12941TIP3    H160314   3.333   2.217  16.505  0.9336  0.6594 -0.6427
12941TIP3    H260315   3.336   2.070  16.470  0.0321  0.5242 -0.1579
12942TIP3   OH260316   4.482   4.063   4.087  0.4754 -0.4694 -0.6556
12942TIP3    H160317   4.433   4.039   4.009 -0.2864 -2.0539  0.2794
12942TIP3    H260318   4.541   3.989   4.102  1.3911  0.3014 -0.3225
12943TIP3   OH260319   5.418   1.630   3.354  0.2387 -0.1785  0.2495
12943TIP3    H160320   5.423   1.586   3.269  1.3566  1.7326 -0.7237
12943TIP3    H260321   5.342   1.590   3.396 -0.2130 -1.3407 -1.5349
12944TIP3   OH260322   1.365   3.465  15.355  0.6155  0.0589  0.5615
12944TIP3    H160323   1.296   3.400  15.345  1.6863 -1.2498  1.4225
12944TIP3    H260324   1.393   3.483  15.266 -1.8424  1.8221  0.0247
12945TIP3   OH260325   3.018   5.218   5.279 -0.0843 -0.6074 -0.1764
12945TIP3    H160326   3.081   5.147   5.286  1.5112  0.6446 -1.1212
12945TIP3    H260327   3.007   5.249   5.369  1.2416 -0.3672 -0.0826
12946TIP3   OH260328   2.875   1.141   3.885 -0.3196  0.1389  0.7880
12946TIP3    H160329   2.884   1.063   3.940 -1.7193 -0.3338  0.3681
12946TIP3    H260330   2.869   1.107   3.796 -0.8211  0.7356  0.5902
12947TIP3   OH260331   2.361   3.842   2.908 -0.1318  0.1417  1.3598
12947TIP3    H160332   2.334   3.795   2.829 -1.6034  0.9094  1.3645
12947TIP3    H260333   2.296   3.817   2.974 -0.1580  1.1289  1.7273
12948TIP3   OH260334   6.200   5.108   3.102 -0.0268  0.2889 -0.1727
12948TIP3    H160335   6.223   5.133   3.013  1.7961  1.4994  0.5749
12948TIP3    H260336   6.216   5.014   3.106  1.1044  0.4379 -0.7940
12949TIP3   OH260337   6.083   6.267   1.182 -0.7947  0.2330 -0.2998
12949TIP3    H160338   6.129   6.342   1.144 -0.3321 -0.1738 -0.5440
12949TIP3    H260339   6.054   6.216   1.106 -0.5769 -0.1523 -0.1252
12950TIP3   OH260340   1.039   5.034  11.389 -0.7988 -0.6497  0.6015
12950TIP3    H160341   1.006   5.124  11.396  0.5364  0.1874 -2.2318
12950TIP3    H260342   0.990   4.996  11.316 -0.1041 -1.6224  0.6230
12951TIP3   OH260343   1.003   5.719   0.245  0.0037 -0.7643 -0.0467
12951TIP3    H160344   0.979   5.626   0.245  1.6094 -1.2353  1.1989
12951TIP3    H260345   1.097   5.720   0.263 -0.0111  1.1135  0.1975
12952TIP3   OH260346   2.689   6.716  16.245 -0.0432 -0.0996 -0.7000
12952TIP3    H160347   2.756   6.698  16.311  0.1485  1.0437 -0.5629
12952TIP3    H260348   2.702   6.648  16.179 -0.4215 -1.4541  0.5470
12953TIP3   OH260349   1.432   2.570   4.529  0.3755  0.0133  0.0376
12953TIP3    H160350   1.402   2.522   4.606 -1.0919  2.2153  0.9653
12953TIP3    H260351   1.449   2.503   4.464 -0.7146 -1.7884  1.4974
12954TIP3   OH260352   4.014   1.913   4.207  0.3231 -0.3274 -0.9018
12954TIP3    H160353   3.934   1.873   4.173 -0.5322 -0.1031  0.7666
12954TIP3    H260354   4.044   1.970   4.136 -1.8816  0.7998 -1.0074
12955TIP3   OH260355   0.698   1.542   5.328 -0.5271  0.6106  0.4264
12955TIP3    H160356   0.695   1.471   5.392  0.4041  0.8921  0.8027
12955TIP3    H260357   0.648   1.510   5.254  0.7292 -0.8767  0.1645
12956TIP3   OH260358   0.394   3.433   1.941  0.0928 -0.3458 -0.0382
12956TIP3    H160359   0.413   3.339   1.948  0.7298 -0.2088  0.1138
12956TIP3    H260360   0.473   3.470   1.901 -0.2686  0.0839 -0.3562
12957TIP3   OH260361   5.781   5.453  14.090  0.0991 -0.1126 -0.5986
12957TIP3    H160362   5.785   5.430  14.183 -0.2069  2.3894  0.1328
12957TIP3    H260363   5.704   5.407  14.057 -1.1608  0.6946  1.0146
12958TIP3   OH260364   3.846   6.068   3.039  0.4723  0.2499 -0.0479
12958TIP3    H160365   3.791   6.131   2.992 -1.6017 -1.2833  0.1923
12958TIP3    H260366   3.822   6.078   3.131  1.7529  0.5958  0.2745
12959TIP3   OH260367   6.131   4.104   5.334  0.3847  0.0687 -0.1684
12959TIP3    H160368   6.040   4.130   5.319  0.0450 -0.5208  0.7468
12959TIP3    H260369   6.156   4.150   5.415  0.8385  0.0841 -0.3151
12960TIP3   OH260370   0.947   0.930  10.638 -0.3380 -0.0090  0.8284
12960TIP3    H160371   0.860   0.970  10.632  0.2286  1.1486 -0.1224
12960TIP3    H260372   1.006   1.004  10.650  0.7688 -0.4934 -1.1347
12961TIP3   OH260373   2.044   2.208   0.209  0.6366 -0.1000  0.5352
12961TIP3    H160374   2.043   2.141   0.140  4.6905 -0.1653  0.2822
12961TIP3    H260375   2.048   2.157   0.290 -1.1050 -0.0373  0.6968
12962TIP3   OH260376   5.387   3.068  12.026 -0.3756 -0.7486  0.6970
12962TIP3    H160377   5.441   3.147  12.030 -1.2789 -0.0106 -0.8145
12962TIP3    H260378   5.442   2.999  12.064  0.9574  0.3187  0.7763
12963TIP3   OH260379   4.105   2.865  16.149 -0.2490 -0.4203  0.1630
12963TIP3    H160380   4.193   2.832  16.169  0.2731 -0.8503 -2.4340
12963TIP3    H260381   4.046   2.794  16.174  0.6032 -2.1724 -2.3469
12964TIP3   OH260382   0.178   4.189  15.744 -0.4882 -0.6185  0.3645
12964TIP3    H160383   0.231   4.109  15.737  0.3397 -0.1392  0.9634
12964TIP3    H260384   0.202   4.241  15.668 -1.7029 -1.3162 -0.5179
12965TIP3   OH260385   6.460   0.590  13.964  0.0272 -0.0572  0.2539
12965TIP3    H160386   6.502   0.675  13.952  0.3986  0.0127  1.8882
12965TIP3    H260387   6.531   0.526  13.956  0.0370 -0.0951  0.6084
12966TIP3   OH260388   5.125   0.165   5.661 -0.5584 -0.4774  0.3063
12966TIP3    H160389   5.174   0.152   5.742  0.7789  1.0580 -0.2133
12966TIP3    H260390   5.165   0.104   5.599 -1.3654 -1.4136  0.6688
12967TIP3   OH260391   6.166   2.043   4.683 -0.0608  0.6662 -0.1756
12967TIP3    H160392   6.118   2.060   4.602 -1.3585  0.7940  0.5882
12967TIP3    H260393   6.246   1.999   4.655  0.2962  2.1458 -1.6554
12968TIP3   OH260394   1.616   4.347   5.241 -0.3270  0.0266 -0.5738
12968TIP3    H160395   1.549   4.355   5.174 -0.7614  1.5812  0.0019
12968TIP3    H260396   1.662   4.432   5.239  1.3400 -0.8272 -0.6493
12969TIP3   OH260397   1.299   2.117   0.984  0.7341  0.5386  0.5952
12969TIP3    H160398   1.279   2.200   1.026  0.0860  0.8737 -0.3384
12969TIP3    H260399   1.391   2.124   0.959  1.0226  0.4782  1.5848
12970TIP3   OH260400   0.666   4.984   5.270 -0.1750 -0.0340 -0.1411
12970TIP3    H160401   0.639   4.983   5.362 -0.1058 -0.9410 -0.1238
12970TIP3    H260402   0.686   4.893   5.250  0.4214  0.2499 -0.8828
12971TIP3   OH260403   6.228   2.627  11.761  0.4774  0.3713 -0.4053
12971TIP3    H160404   6.203   2.680  11.837  0.1358 -0.7023  0.2659
12971TIP3    H260405   6.318   2.654  11.741  0.3047  1.2030 -0.1020
12972TIP3   OH260406   4.273   5.771   1.879 -0.0418 -0.2863 -0.0556
12972TIP3    H160407   4.350   5.823   1.905  1.6469 -2.3554 -0.6112
12972TIP3    H260408   4.275   5.695   1.937 -2.2502  0.0414  0.5184
12973TIP3   OH260409   6.210   4.251   5.131 -0.9668  0.3466 -0.6635
12973TIP3    H160410   6.190   4.189   5.201  0.0302 -0.3740 -0.9997
12973TIP3    H260411   6.266   4.317   5.173 -0.3693 -0.0849 -0.7745
12974TIP3   OH260412   5.999   3.481   3.251 -0.5583  0.2050 -0.1628
12974TIP3    H160413   6.062   3.480   3.178 -1.7395  0.8185 -1.2210
12974TIP3    H260414   6.015   3.565   3.294 -1.4368  0.9132 -1.1682
12975TIP3   OH260415   1.808   6.087  13.317  0.5382 -0.2067 -0.1227
12975TIP3    H160416   1.821   6.008  13.370 -0.0079  1.1823  2.2123
12975TIP3    H260417   1.715   6.107  13.326  0.7015  0.8000 -0.5422
12976TIP3   OH260418   5.482   0.766  16.556 -0.3350 -0.4292  0.1196
12976TIP3    H160419   5.431   0.756  16.476  0.4589 -0.7220 -0.3627
12976TIP3    H260420   5.546   0.695  16.552  0.5313  0.3267  0.3791
12977TIP3   OH260421   6.540   1.712  14.476 -0.1519  0.4296  0.2536
12977TIP3    H160422   6.455   1.736  14.515  0.7709  1.5763  1.7053
12977TIP3    H260423   6.563   1.630  14.519 -1.4068 -1.0261 -1.6659
12978TIP3   OH260424   1.171   2.154   3.092 -0.1732 -0.0856 -0.4598
12978TIP3    H160425   1.090   2.117   3.057  1.0888 -0.4043 -3.3164
12978TIP3    H260426   1.217   2.080   3.131 -1.3116  0.1494  1.4368
12979TIP3   OH260427   1.132   2.251  11.459 -0.1397 -0.1411  0.1991
12979TIP3    H160428   1.128   2.184  11.390 -0.1197 -1.9273  1.8597
12979TIP3    H260429   1.224   2.251  11.486 -0.5981 -1.2972  1.9081
12980TIP3   OH260430   0.579   5.275  12.087 -0.0348 -0.1120 -0.2073
12980TIP3    H160431   0.498   5.326  12.099  1.2464  1.7139  1.1407
12980TIP3    H260432   0.604   5.291  11.996 -0.3843  0.5443 -0.1932
12981TIP3   OH260433   0.826   6.053   4.689 -0.4935  0.1669  0.6415
12981TIP3    H160434   0.847   6.008   4.607 -2.0252 -2.0024  1.3507
12981TIP3    H260435   0.889   6.018   4.752 -1.9564 -1.4234  1.2937
12982TIP3   OH260436   5.654   0.694  12.631 -0.5399 -0.3121  0.4076
12982TIP3    H160437   5.740   0.652  12.631 -0.4701 -0.1809  1.1743
12982TIP3    H260438   5.596   0.630  12.589 -0.0519 -0.3482 -0.2216
12983TIP3   OH260439   6.367   1.314  15.950 -0.4027 -0.5009 -0.1691
12983TIP3    H160440   6.293   1.361  15.910  0.8729  1.0489 -0.8174
12983TIP3    H260441   6.380   1.357  16.034  0.6429  0.2362 -0.6792
12984TIP3   OH260442   5.177   2.073  15.894  0.4723  0.4232 -0.3128
12984TIP3    H160443   5.088   2.069  15.929 -0.4059  3.1892 -1.9176
12984TIP3    H260444   5.214   2.152  15.934  1.4980  0.4160 -1.2040
12985TIP3   OH260445   0.225   6.161   4.835 -0.5430 -0.7214  0.1829
12985TIP3    H160446   0.276   6.081   4.848  1.9032  0.8663  0.9632
12985TIP3    H260447   0.248   6.216   4.910  0.0086  1.7698 -1.7048
12986TIP3   OH260448   1.180   5.373   1.895 -0.3141  0.0131  0.1998
12986TIP3    H160449   1.242   5.329   1.838  1.9465  2.0843  0.9088
12986TIP3    H260450   1.183   5.323   1.977  0.1850 -0.0914  0.1210
12987TIP3   OH260451   4.498   5.072   4.427  0.1509 -0.3189 -0.4165
12987TIP3    H160452   4.536   4.989   4.401 -0.2685 -0.4245 -0.6993
12987TIP3    H260453   4.415   5.076   4.380  0.4118  0.5033 -0.8131
12988TIP3   OH260454   6.127   6.772  11.160 -0.4873 -0.6759 -0.3314
12988TIP3    H160455   6.121   6.748  11.068 -2.7932 -0.9156 -0.1621
12988TIP3    H260456   6.040   6.803  11.183  0.4331  0.8620  1.4040
12989TIP3   OH260457   6.124   3.835   5.235 -0.8061 -0.1837 -0.0896
12989TIP3    H160458   6.172   3.902   5.283 -1.0196 -1.2167  1.6419
12989TIP3    H260459   6.035   3.840   5.269 -0.5637 -2.0784  0.9220
12990TIP3   OH260460   5.147   4.734  15.424 -0.6288 -0.5968 -0.0545
12990TIP3    H160461   5.107   4.649  15.412 -0.8917 -0.7213  1.5276
12990TIP3    H260462   5.078   4.789  15.462  0.1025 -0.2685  0.8563
12991TIP3   OH260463   0.920   3.767  13.046 -0.4523  0.1783  0.1873
12991TIP3    H160464   0.852   3.790  12.982  0.0009 -1.1412 -0.8066
12991TIP3    H260465   0.886   3.799  13.129 -1.5506  0.9791 -0.5383
12992TIP3   OH260466   0.880   2.732   1.971  0.0067  0.1332 -0.4193
12992TIP3    H160467   0.839   2.720   2.056 -1.1899 -0.8193 -1.0960
12992TIP3    H260468   0.932   2.652   1.959 -0.1213  0.0944 -0.7289
12993TIP3   OH260469   0.753   5.599   6.426 -0.3417  0.1902  0.1056
12993TIP3    H160470   0.769   5.563   6.513 -0.2812 -0.2006 -0.0648
12993TIP3    H260471   0.723   5.688   6.442 -2.0853 -0.4497  0.6078
12994TIP3   OH260472   5.867   3.515  16.198 -0.1724  0.1285 -0.1900
12994TIP3    H160473   5.916   3.464  16.263 -0.3235 -0.4616 -0.5280
12994TIP3    H260474   5.916   3.596  16.190  0.3622 -0.1702 -0.0131
12995TIP3   OH260475   2.727   4.920   4.394  0.3132  0.0860  0.0341
12995TIP3    H160476   2.654   4.859   4.393 -1.0848  1.6778 -0.7601
12995TIP3    H260477   2.705   4.982   4.464  2.7022 -1.3491  2.2590
12996TIP3   OH260478   3.173   6.141  16.205 -0.3630 -0.2406  0.0850
12996TIP3    H160479   3.110   6.106  16.142 -0.5396  0.4154 -0.1109
12996TIP3    H260480   3.197   6.227  16.170 -0.8982  0.3824  1.2138
12997TIP3   OH260481   5.348   5.368   2.900 -0.0225  0.0338 -0.2283
12997TIP3    H160482   5.352   5.411   2.985  0.8669 -0.5075  0.0147
12997TIP3    H260483   5.297   5.428   2.845  1.2002  1.4263  0.0967
12998TIP3   OH260484   2.591   4.355  12.200  0.6325  0.5046  0.2751
12998TIP3    H160485   2.643   4.365  12.120  2.7284  1.3464  1.6311
12998TIP3    H260486   2.650   4.386  12.270 -1.2059  0.0637  2.1070
12999TIP3   OH260487   2.906   5.772  11.925  0.3297  0.0230 -0.4091
12999TIP3    H160488   2.998   5.796  11.915  0.1256  1.0378  0.0137
12999TIP3    H260489   2.903   5.679  11.904  1.3033  0.1677 -1.2565
13000TIP3   OH260490   5.011   1.876   0.955  0.4555  0.2501  0.1138
13000TIP3    H160491   5.086   1.897   0.900 -0.8177  2.3989 -0.9134
13000TIP3    H260492   4.992   1.957   1.002  1.0593 -1.2864  3.3192
13001TIP3   OH260493   5.750   6.266  10.569 -0.1648 -0.0526 -0.0051
13001TIP3    H160494   5.766   6.281  10.663 -0.2375 -0.0622  0.0092
13001TIP3    H260495   5.836   6.246  10.533  0.1963  1.8861 -0.3131
13002TIP3   OH260496   4.958   5.277   6.195 -0.7642 -0.3495  0.1446
13002TIP3    H160497   4.865   5.260   6.210 -0.5586 -1.5295  0.2063
13002TIP3    H260498   5.002   5.227   6.264 -0.1123  1.1193  0.8325
13003TIP3   OH260499   5.837   1.704   1.049  0.4130  1.0333  0.5982
13003TIP3    H160500   5.851   1.769   1.118 -0.6709  1.9777 -0.0254
13003TIP3    H260501   5.813   1.756   0.972  0.8405 -0.0403 -0.2919
13004TIP3   OH260502   0.657   0.491  11.249  0.4731  0.3988  0.3999
13004TIP3    H160503   0.683   0.491  11.341 -2.5099 -1.3223  1.3813
13004TIP3    H260504   0.622   0.403  11.234 -0.4921  1.1020 -1.9659
13005TIP3   OH260505   4.685   0.687  16.043 -0.5842  0.3316 -0.4834
13005TIP3    H160506   4.664   0.774  16.010 -2.6316  0.1421  0.2125
13005TIP3    H260507   4.636   0.679  16.125  1.5276 -0.5678  0.8011
13006TIP3   OH260508   3.543   0.975  15.317 -0.3543  0.0517 -0.2195
13006TIP3    H160509   3.608   1.018  15.261 -0.3614  0.0338 -0.2419
13006TIP3    H260510   3.463   1.028  15.307 -0.1309  0.5238  0.3990
13007TIP3   OH260511   2.469   0.563   4.752  0.0106  0.2654  0.7452
13007TIP3    H160512   2.501   0.484   4.707  2.2221 -0.1132  2.7833
13007TIP3    H260513   2.395   0.533   4.804 -1.2259  0.2741 -0.9304
13008TIP3   OH260514   0.902   3.138   6.114  0.3247 -0.1464 -0.0712
13008TIP3    H160515   0.940   3.059   6.076  0.0992 -0.5640  0.5521
13008TIP3    H260516   0.953   3.152   6.194  1.8382  1.6120 -1.2718
13009TIP3   OH260517   4.531   0.476   0.982 -0.3767  0.2183 -0.3323
13009TIP3    H160518   4.503   0.476   0.891 -0.3275 -0.4775 -0.3581
13009TIP3    H260519   4.467   0.419   1.027 -2.2199  2.8849  0.6765
13010TIP3   OH260520   4.922   3.167  11.333 -0.2460 -0.3629  0.0157
13010TIP3    H160521   4.950   3.079  11.309  1.5951  0.4454 -0.9578
13010TIP3    H260522   4.839   3.154  11.380 -1.3809 -2.4176 -2.3342
13011TIP3   OH260523   4.972   4.103   1.582 -0.2159  0.0207  0.0805
13011TIP3    H160524   4.993   4.165   1.511  0.1926 -0.5353 -0.2891
13011TIP3    H260525   4.877   4.114   1.595 -0.2167  0.4474 -0.2421
13012TIP3   OH260526   4.323   4.461   4.246 -0.5043  0.2575  0.2571
13012TIP3    H160527   4.348   4.369   4.237 -0.8046  0.1691  0.3092
13012TIP3    H260528   4.406   4.508   4.255 -0.3684 -0.0752  0.8057
13013TIP3   OH260529   2.802   2.595   4.829  0.0425 -0.8291 -0.0159
13013TIP3    H160530   2.776   2.560   4.744 -0.9293  0.6170 -0.3705
13013TIP3    H260531   2.728   2.650   4.856  0.4864 -0.9489  1.5981
13014TIP3   OH260532   3.569   1.135   4.006  0.6514 -0.2062 -0.2681
13014TIP3    H160533   3.638   1.167   3.947  0.0485 -0.4818 -1.1489
13014TIP3    H260534   3.496   1.115   3.948 -1.0120  2.1639  0.8530
13015TIP3   OH260535   5.534   2.635   5.023 -0.0572  1.0502 -0.8930
13015TIP3    H160536   5.477   2.573   4.977 -1.3264  0.3173  1.5017
13015TIP3    H260537   5.605   2.580   5.057 -1.3397  0.7166  1.4892
13016TIP3   OH260538   5.837   2.406  16.201 -0.7544  0.3041 -0.0656
13016TIP3    H160539   5.846   2.429  16.294 -1.0744 -1.4044  0.4258
13016TIP3    H260540   5.894   2.468  16.155  1.9190 -0.7863  1.5508
13017TIP3   OH260541   0.138   3.269  12.404  0.4135 -0.4206  0.8471
13017TIP3    H160542   0.128   3.294  12.496  0.5046  0.2123  0.6942
13017TIP3    H260543   0.231   3.283  12.386  0.4076 -0.6013  0.6742
13018TIP3   OH260544   3.288   1.391   2.989 -0.6712 -0.4168 -0.0092
13018TIP3    H160545   3.197   1.386   3.018 -0.6569  1.1031  0.3392
13018TIP3    H260546   3.315   1.299   2.979 -3.1536 -0.9943 -3.1509
13019TIP3   OH260547   0.375   6.446  14.192  0.0278 -0.7294 -0.2408
13019TIP3    H160548   0.322   6.384  14.240  2.0350 -2.6665 -0.3490
13019TIP3    H260549   0.386   6.407  14.105  0.2185  0.4654 -0.7856
13020TIP3   OH260550   5.519   4.857  16.555  0.2342  0.0366 -0.1549
13020TIP3    H160551   5.459   4.786  16.578  0.4857  0.3558  1.5848
13020TIP3    H260552   5.590   4.851  16.619  0.6593  1.3601 -0.4687
13021TIP3   OH260553   5.515   4.026   5.534 -0.1291 -0.3407  0.0928
13021TIP3    H160554   5.438   4.029   5.591 -0.8999  2.0415 -0.9496
13021TIP3    H260555   5.481   4.036   5.446  1.2982 -0.6722 -0.5342
13022TIP3   OH260556   1.800   0.275  16.891  0.5030  0.0200  0.1792
13022TIP3    H160557   1.720   0.244  16.849  1.1341 -0.2628 -0.8635
13022TIP3    H260558   1.829   0.200  16.944  0.4587 -0.1309 -0.0075
13023TIP3   OH260559   3.930   2.620   5.408  0.0867  0.1167  0.1928
13023TIP3    H160560   4.008   2.570   5.431  0.7120  0.3333 -1.3471
13023TIP3    H260561   3.881   2.627   5.490  1.4086 -0.4854  1.0699
13024TIP3   OH260562   3.488   5.757  17.126 -0.4371 -0.7194  0.4524
13024TIP3    H160563   3.468   5.758  17.219 -1.3219 -1.5091  0.2860
13024TIP3    H260564   3.526   5.671  17.110 -0.3934 -0.6301  0.0660
13025TIP3   OH260565   4.708   5.578   6.833  0.8049 -0.0717  0.3117
13025TIP3    H160566   4.719   5.571   6.928 -0.7984  0.1298  0.5416
13025TIP3    H260567   4.644   5.511   6.812 -0.2514  1.0997 -0.3342
13026TIP3   OH260568   3.401   3.492   5.121 -0.2050  0.0914  0.1693
13026TIP3    H160569   3.429   3.493   5.029  0.8756  3.7843  0.4133
13026TIP3    H260570   3.322   3.437   5.120  1.8169 -3.2200 -2.1546
13027TIP3   OH260571   4.919   6.341   4.750  0.1582  0.4528  0.0486
13027TIP3    H160572   5.002   6.313   4.787 -0.0242  1.7774  1.5777
13027TIP3    H260573   4.861   6.352   4.825 -2.3811 -3.0892 -1.0867
13028TIP3   OH260574   4.183   3.372   3.712 -0.2217 -0.1541  0.0696
13028TIP3    H160575   4.120   3.408   3.650  0.3395  2.9854  1.1487
13028TIP3    H260576   4.264   3.419   3.695  0.9531 -1.7639  0.9052
13029TIP3   OH260577   6.046   4.837   3.995 -0.3864  0.2879 -0.1410
13029TIP3    H160578   6.061   4.860   3.903  0.6309  2.1598  0.4423
13029TIP3    H260579   6.128   4.858   4.039 -1.0871  0.0765  1.3231
13030TIP3   OH260580   1.447   2.254   2.014  0.2674 -0.1134  0.2525
13030TIP3    H160581   1.450   2.291   1.926 -1.6111 -1.7876 -0.6151
13030TIP3    H260582   1.433   2.329   2.072 -0.9555  0.8154 -1.1746
13031TIP3   OH260583   3.036   3.865  15.489 -0.3064  0.1157  0.0719
13031TIP3    H160584   3.112   3.824  15.532  0.1407 -0.2486 -1.0365
13031TIP3    H260585   2.989   3.792  15.450  0.3118  0.5813 -1.6377
13032TIP3   OH260586   1.313   1.727  12.904 -0.3038  0.3845 -0.3157
13032TIP3    H160587   1.283   1.691  12.821  0.2841  1.0562 -0.8262
13032TIP3    H260588   1.241   1.784  12.933 -0.6196 -0.0579 -0.2301
13033TIP3   OH260589   5.269   3.643   4.220 -0.1854  0.1911  0.1867
13033TIP3    H160590   5.351   3.692   4.216  0.2243 -0.4744  0.3018
13033TIP3    H260591   5.272   3.585   4.143  0.1351 -0.8695  0.9725
13034TIP3   OH260592   4.792   5.462   4.648  0.4572  0.1466  0.2091
13034TIP3    H160593   4.868   5.406   4.631  0.5804  0.4362 -0.2185
13034TIP3    H260594   4.717   5.408   4.627  0.5894  0.2822 -0.6302
13035TIP3   OH260595   0.792   4.520  16.608 -0.5177  0.3925 -0.4620
13035TIP3    H160596   0.754   4.446  16.562 -1.9312 -0.7601  2.3321
13035TIP3    H260597   0.717   4.576  16.630 -0.0553  0.4399  1.1358
13036TIP3   OH260598   2.539   0.462   6.249 -0.0560 -0.9498  0.0785
13036TIP3    H160599   2.587   0.389   6.212  0.8649 -0.1230 -0.4125
13036TIP3    H260600   2.456   0.424   6.279  0.6044 -2.2667  0.2976
13037TIP3   OH260601   6.274   5.753  16.840 -0.4115  0.1370 -0.2294
13037TIP3    H160602   6.249   5.734  16.749 -0.9999 -1.3588  0.2179
13037TIP3    H260603   6.231   5.685  16.891  1.1937  0.0093  1.0259
13038TIP3   OH260604   4.185   1.055   5.065  0.0497  0.3541  0.0670
13038TIP3    H160605   4.243   1.104   5.006 -0.5763  0.9458 -0.0713
13038TIP3    H260606   4.152   1.121   5.126  0.2651 -0.1553  0.7481
13039TIP3   OH260607   0.445   3.971   4.805  0.4355 -0.0962 -0.3017
13039TIP3    H160608   0.431   4.065   4.793  0.5163  0.2330  1.7291
13039TIP3    H260609   0.359   3.937   4.830  0.2593 -0.7138 -1.6777
13040TIP3   OH260610   5.902   3.325  14.730 -0.2373 -0.9116 -0.2899
13040TIP3    H160611   5.991   3.327  14.695 -0.6412 -0.1805 -1.3283
13040TIP3    H260612   5.857   3.259  14.677 -0.7198 -0.1516 -0.8565
13041TIP3   OH260613   0.816   4.984   1.620  1.0533  0.5615  0.3202
13041TIP3    H160614   0.737   5.025   1.587 -1.3700 -1.3084  3.2188
13041TIP3    H260615   0.817   4.897   1.579  1.7278  0.6541  0.1343
13042TIP3   OH260616   0.281   3.815   1.232 -0.4690  0.4989 -0.0225
13042TIP3    H160617   0.283   3.880   1.302  0.4485 -0.8449  1.2635
13042TIP3    H260618   0.363   3.766   1.243 -0.5878 -0.1378 -1.6812
13043TIP3   OH260619   1.063   5.226   0.419 -0.1462  0.0439  0.2091
13043TIP3    H160620   1.087   5.318   0.428  1.1743  0.3056 -3.8757
13043TIP3    H260621   1.075   5.189   0.507  2.3723  3.0972  1.3369
13044TIP3   OH260622   3.813   1.202  13.342 -0.1209  0.2245 -0.4576
13044TIP3    H160623   3.840   1.134  13.404 -0.7846  0.7709  0.4578
13044TIP3    H260624   3.895   1.240  13.311  0.2269 -0.2005 -0.0780
13045TIP3   OH260625   2.218   2.575  11.850 -0.2888  0.0889  0.3780
13045TIP3    H160626   2.269   2.544  11.925 -0.3473  0.8582  0.7463
13045TIP3    H260627   2.181   2.658  11.879 -0.2172  0.4556 -0.5531
13046TIP3   OH260628   4.799   4.955  14.635  0.0185  0.1883  0.5115
13046TIP3    H160629   4.785   5.049  14.650 -1.0088 -0.1573  1.9478
13046TIP3    H260630   4.720   4.926  14.588  0.7185  0.1855 -0.6930
13047TIP3   OH260631   2.204   0.731  15.275 -0.4927  0.0943 -0.6078
13047TIP3    H160632   2.155   0.808  15.304  1.4816  0.9505  0.6821
13047TIP3    H260633   2.248   0.758  15.194  0.9771  0.7203  0.3553
13048TIP3   OH260634   6.219   6.033   3.957 -0.0946 -0.3148  0.0651
13048TIP3    H160635   6.155   6.007   4.024 -1.5366  0.0991 -1.0853
13048TIP3    H260636   6.165   6.069   3.887  1.4974  0.8156 -0.6153
13049TIP3   OH260637   0.191   3.241   0.382 -0.2575  0.4824 -0.7255
13049TIP3    H160638   0.177   3.335   0.374  0.5836  0.5178 -2.1481
13049TIP3    H260639   0.182   3.223   0.475 -0.7366  1.9121 -0.4714
13050TIP3   OH260640   6.255   1.917  11.051  0.4542 -0.0433  0.5104
13050TIP3    H160641   6.192   1.851  11.020  0.6509  0.0213 -0.0455
13050TIP3    H260642   6.207   1.999  11.051  0.4997 -0.0131  0.1908
13051TIP3   OH260643   0.558   4.546  15.122  0.0828 -0.6851 -0.0899
13051TIP3    H160644   0.561   4.463  15.169 -3.1828 -0.0824  1.4994
13051TIP3    H260645   0.647   4.580  15.128  0.6832 -2.3673  2.4505
13052TIP3   OH260646   4.877   2.957   0.953  0.3716  0.5970  0.1538
13052TIP3    H160647   4.962   3.000   0.953  0.5784  0.2043 -0.3740
13052TIP3    H260648   4.829   2.998   0.881  0.2057  0.6383  0.2865
13053TIP3   OH260649   0.372   6.697   3.987  0.1244  1.0949 -0.0737
13053TIP3    H160650   0.415   6.782   3.998  0.0793  1.1500 -0.2996
13053TIP3    H260651   0.387   6.651   4.069  0.0421  1.3694  0.0976
13054TIP3   OH260652   4.480   5.610  11.645 -0.2313  0.8531 -0.5166
13054TIP3    H160653   4.500   5.618  11.552  0.0705  0.6357 -0.4740
13054TIP3    H260654   4.556   5.566  11.683 -0.5324  0.5524 -0.2410
13055TIP3   OH260655   5.005   1.846  14.616  0.6866  0.3439  0.0997
13055TIP3    H160656   5.078   1.884  14.567  0.7729  0.2321  0.1409
13055TIP3    H260657   4.986   1.764  14.572 -0.3906  1.0573 -0.8283
13056TIP3   OH260658   6.720   0.462  16.460  0.8841  0.0016  0.2750
13056TIP3    H160659   6.694   0.552  16.481 -1.5991 -0.5826  0.0801
13056TIP3    H260660   6.809   0.470  16.426  0.5980  2.4355 -0.1122
13057TIP3   OH260661   1.467   1.025  12.216 -0.4769 -0.8698  0.1165
13057TIP3    H160662   1.490   1.104  12.264  0.3536 -1.3318  0.5055
13057TIP3    H260663   1.379   1.002  12.246 -1.4913  0.8949 -1.3396
13058TIP3   OH260664   4.396   2.239   0.966 -0.2225  0.2057 -0.4331
13058TIP3    H160665   4.438   2.199   0.890  0.2485  0.7814 -0.4832
13058TIP3    H260666   4.302   2.226   0.951 -0.1391  0.4208 -1.1710
13059TIP3   OH260667   2.089   4.292  11.468  0.0517 -0.3303  0.1570
13059TIP3    H160668   2.017   4.229  11.474 -1.2276  0.9658 -0.9796
13059TIP3    H260669   2.046   4.377  11.463  1.6672  0.4632 -0.8025
13060TIP3   OH260670   2.553   1.615   4.594 -0.4842  0.0650  0.3574
13060TIP3    H160671   2.472   1.627   4.644 -0.2290 -0.3553  0.8784
13060TIP3    H260672   2.620   1.602   4.660 -0.1203 -0.3743 -0.0907
13061TIP3   OH260673   4.305   3.729   4.455 -0.8333  0.1211 -0.1692
13061TIP3    H160674   4.378   3.787   4.476 -0.7167 -0.5756  1.5865
13061TIP3    H260675   4.344   3.659   4.402 -0.3858  0.1601  0.1078
13062TIP3   OH260676   2.627   0.089  14.623  0.6471 -0.0843 -0.1782
13062TIP3    H160677   2.596  -0.001  14.617  0.7546 -0.2163  1.0953
13062TIP3    H260678   2.679   0.092  14.703 -0.0851  1.3199  0.2814
13063TIP3   OH260679   0.961   2.009  17.068  0.2202  0.6530 -0.3586
13063TIP3    H160680   0.971   1.960  16.987 -0.6562 -1.1932  0.5850
13063TIP3    H260681   0.909   2.086  17.044 -2.1871 -1.1162 -1.1479
13064TIP3   OH260682   5.830   2.081  14.896 -0.2223 -0.2037  0.4635
13064TIP3    H160683   5.819   2.134  14.817  0.5924 -1.6094 -0.6162
13064TIP3    H260684   5.919   2.046  14.890 -0.6228 -1.4308  1.3003
13065TIP3   OH260685   5.055   6.222  12.861 -0.7307  0.8121 -0.6797
13065TIP3    H160686   5.070   6.274  12.782  0.2973 -0.0144 -1.0517
13065TIP3    H260687   5.085   6.277  12.933 -2.3813  1.8806 -0.7609
13066TIP3   OH260688   4.512   2.651  12.296  0.2987 -0.4267  0.0691
13066TIP3    H160689   4.494   2.561  12.325  1.1313 -0.9834 -1.0348
13066TIP3    H260690   4.540   2.640  12.205  1.1722  0.8899  0.1689
13067TIP3   OH260691   3.174   1.053   2.881  0.2421 -0.5125 -0.0496
13067TIP3    H160692   3.208   1.060   2.970  3.2821 -0.8092 -1.0876
13067TIP3    H260693   3.182   0.960   2.859  0.4326 -0.2881 -0.9543
13068TIP3   OH260694   2.805   4.051   6.788 -0.2461 -0.0605  0.2511
13068TIP3    H160695   2.775   4.138   6.815  1.5950  0.4753  0.7149
13068TIP3    H260696   2.888   4.067   6.742 -0.4792 -1.4778 -0.7224
13069TIP3   OH260697   3.999   4.575  11.937  0.0943  0.1081  0.0183
13069TIP3    H160698   4.063   4.505  11.926  1.7621  1.7433 -1.3795
13069TIP3    H260699   4.026   4.621  12.017  0.1888  0.3312 -0.1417
13070TIP3   OH260700   3.235   1.126   2.402 -0.6064 -0.5076  0.5551
13070TIP3    H160701   3.220   1.212   2.441  2.9060  0.5856 -0.1733
13070TIP3    H260702   3.235   1.141   2.308 -0.4105 -1.4009  0.3992
13071TIP3   OH260703   5.934   3.113  16.641 -0.0804  0.3080 -0.3320
13071TIP3    H160704   5.846   3.151  16.643 -0.3526 -0.3464  0.6164
13071TIP3    H260705   5.944   3.082  16.551 -0.4334  1.2655 -0.7152
13072TIP3   OH260706   5.181   5.753  10.698  0.5596 -0.0845 -0.0533
13072TIP3    H160707   5.166   5.838  10.738 -2.1260 -0.1049 -0.7770
13072TIP3    H260708   5.252   5.767  10.636  0.4748  1.5256  0.1839
13073TIP3   OH260709   4.162   1.270  14.410  0.3547  0.4511  0.2139
13073TIP3    H160710   4.075   1.280  14.372 -0.9741  0.5600  3.0449
13073TIP3    H260711   4.217   1.243  14.336 -1.9164  0.8795 -1.7846
13074TIP3   OH260712   4.134   6.811   1.607  0.4728  0.0701 -0.6415
13074TIP3    H160713   4.131   6.814   1.703  1.5002 -1.2628 -0.5480
13074TIP3    H260714   4.045   6.786   1.582 -0.0793  1.4131 -0.1048
13075TIP3   OH260715   2.517   2.565  14.505  0.2279  0.8419  0.1684
13075TIP3    H160716   2.466   2.542  14.427  0.6124 -0.8784  0.3865
13075TIP3    H260717   2.608   2.551  14.479  0.3124 -0.9518  1.2373
13076TIP3   OH260718   3.674   2.607   1.915  0.4178  0.1207 -0.7170
13076TIP3    H160719   3.693   2.681   1.972 -1.3712  0.7007 -0.8012
13076TIP3    H260720   3.727   2.622   1.837  0.6333  0.9244 -0.4238
13077TIP3   OH260721   2.855   2.735   0.608 -0.3964 -0.3910 -0.1914
13077TIP3    H160722   2.808   2.803   0.657  1.9902  0.5512  0.9274
13077TIP3    H260723   2.848   2.657   0.663 -1.5825 -0.6014 -0.6014
13078TIP3   OH260724   1.540   6.157   1.959 -0.2775  0.5605  0.1288
13078TIP3    H160725   1.610   6.097   1.932 -0.2302 -0.4430  2.2494
13078TIP3    H260726   1.577   6.244   1.946 -0.2277  0.2312 -2.7411
13079TIP3   OH260727   3.988   6.453  12.890  0.5327  0.1085 -0.4489
13079TIP3    H160728   3.984   6.415  12.978  3.1398 -0.6913 -0.5705
13079TIP3    H260729   3.898   6.453  12.859 -0.3085 -0.5787  1.8159
13080TIP3   OH260730   3.031   0.931   0.458 -0.4657 -0.1462  0.0195
13080TIP3    H160731   2.956   0.989   0.449  0.9270  1.6718 -0.2453
13080TIP3    H260732   3.000   0.847   0.424 -1.9991  0.8737 -1.2086
13081TIP3   OH260733   1.351   6.236  14.567 -0.0079  0.1070 -0.2104
13081TIP3    H160734   1.344   6.141  14.579  0.7092 -0.0317 -0.8298
13081TIP3    H260735   1.278   6.271  14.617  0.5185 -0.6830  1.1930
13082TIP3   OH260736   0.387   3.623   3.314 -0.4507  0.4806 -0.4153
13082TIP3    H160737   0.450   3.623   3.386 -1.7613 -0.2209  0.7662
13082TIP3    H260738   0.305   3.593   3.353 -0.9885 -0.7729 -2.3865
13083TIP3   OH260739   3.319   0.652   2.550 -0.1405  0.8203 -0.0343
13083TIP3    H160740   3.263   0.576   2.564  0.4962  0.2216 -0.6420
13083TIP3    H260741   3.363   0.634   2.467 -0.5152  2.1953 -0.5558
13084TIP3   OH260742   3.175   4.755  15.320  0.1542 -0.8495  0.0056
13084TIP3    H160743   3.201   4.724  15.233 -2.6750 -0.3804 -1.1240
13084TIP3    H260744   3.086   4.723  15.331  0.4214 -0.8335  2.7556
13085TIP3   OH260745   2.672   3.472   0.263 -0.5250 -0.3384  0.6123
13085TIP3    H160746   2.745   3.419   0.230  1.0450  0.7926  2.0553
13085TIP3    H260747   2.714   3.534   0.323 -2.6741  0.5485  1.2706
13086TIP3   OH260748   3.455   2.568  11.340 -0.3879 -0.0791  0.3998
13086TIP3    H160749   3.464   2.493  11.398 -2.2058 -1.3099 -0.8257
13086TIP3    H260750   3.541   2.609  11.341  0.3932 -1.6376  1.8151
13087TIP3   OH260751   4.134   1.518   0.979  0.3413 -0.6300  0.2995
13087TIP3    H160752   4.153   1.484   0.892  2.0165  1.3368 -0.1925
13087TIP3    H260753   4.221   1.532   1.019 -0.3297  0.3967  1.4894
13088TIP3   OH260754   4.306   6.370  16.759  0.1975  0.3770 -0.7394
13088TIP3    H160755   4.211   6.376  16.769  0.1013  1.6451 -2.2044
13088TIP3    H260756   4.319   6.346  16.668  1.3039  0.8021 -0.7010
13089TIP3   OH260757   0.719   3.447   5.455 -0.0398  0.1995  0.1825
13089TIP3    H160758   0.756   3.402   5.532 -0.2634  1.3445  0.9809
13089TIP3    H260759   0.625   3.444   5.468 -0.0854  0.2547 -0.1301
13090TIP3   OH260760   6.137   0.625  15.261 -0.9125  0.1811 -0.2660
13090TIP3    H160761   6.191   0.700  15.283  0.6564 -1.0662  0.2871
13090TIP3    H260762   6.145   0.565  15.335 -0.7590 -1.2666 -1.3878
13091TIP3   OH260763   3.882   3.438  15.145 -0.7470 -0.0127  0.2974
13091TIP3    H160764   3.878   3.420  15.239 -1.1513 -0.2729  0.2320
13091TIP3    H260765   3.855   3.530  15.137  0.8134  0.5018  0.5797
13092TIP3   OH260766   0.158   0.774   4.885 -0.2559  0.2729 -0.7109
13092TIP3    H160767   0.100   0.850   4.886 -0.4917  0.1052 -1.2314
13092TIP3    H260768   0.205   0.781   4.802  2.0960  1.6026  0.6355
13093TIP3   OH260769   3.446   4.722   5.157 -0.1801 -0.3832  0.6905
13093TIP3    H160770   3.416   4.641   5.116  1.0446 -0.9507  0.8595
13093TIP3    H260771   3.541   4.717   5.154 -0.0706  0.6119  1.5672
13094TIP3   OH260772   4.293   2.091   3.772 -0.0889  0.2108  0.0411
13094TIP3    H160773   4.235   2.051   3.838 -0.2375  1.1328  0.4875
13094TIP3    H260774   4.253   2.069   3.688 -2.9125  3.3545  0.3521
13095TIP3   OH260775   2.098   0.343   3.164 -0.1072 -0.4194  0.3566
13095TIP3    H160776   2.040   0.402   3.116  0.3732 -0.6930 -0.5970
13095TIP3    H260777   2.150   0.301   3.096 -0.0601 -1.5369  1.0578
13096TIP3   OH260778   5.534   2.050  15.664 -0.3743 -0.2781 -0.4605
13096TIP3    H160779   5.493   1.985  15.608  0.7272 -1.0191 -0.4548
13096TIP3    H260780   5.586   1.998  15.726 -0.7323  0.5586  0.5742
13097TIP3   OH260781   0.032   4.952  17.123 -0.2188 -0.1978 -0.6954
13097TIP3    H160782   0.124   4.926  17.116 -0.6984 -2.3377  0.2253
13097TIP3    H260783   0.024   4.987  17.212 -0.0965  1.0514 -1.1481
13098TIP3   OH260784   4.146   2.722  11.388 -0.1213 -0.4349 -0.1568
13098TIP3    H160785   4.149   2.657  11.317 -0.7508  0.2834 -0.8612
13098TIP3    H260786   4.072   2.779  11.365 -0.8227 -0.6291  1.4790
13099TIP3   OH260787   6.254   2.899  12.450 -0.1132 -0.2694  0.1807
13099TIP3    H160788   6.338   2.865  12.482  0.1592  1.1815  1.0761
13099TIP3    H260789   6.273   2.929  12.361 -0.3438 -2.2871 -0.6170
13100TIP3   OH260790   3.857   1.999   3.565 -0.3891 -0.3725 -0.3439
13100TIP3    H160791   3.820   2.014   3.478 -0.0917 -2.4095 -0.8562
13100TIP3    H260792   3.939   1.952   3.550 -0.1787 -0.5111  1.0337
13101TIP3   OH260793   1.213   4.935   3.886 -0.0528 -0.3249  0.1583
13101TIP3    H160794   1.193   4.954   3.794 -0.5287  0.4631  0.4186
13101TIP3    H260795   1.289   4.877   3.882  0.5649  0.5048 -0.7124
13102TIP3   OH260796   1.186   3.157   1.795 -0.1216 -0.5673  0.0729
13102TIP3    H160797   1.268   3.126   1.833  0.4041 -0.8221 -1.2208
13102TIP3    H260798   1.202   3.157   1.701 -1.4363 -0.1097 -0.1663
13103TIP3   OH260799   0.391   1.274   1.994 -0.2488  0.2541  0.6298
13103TIP3    H160800   0.448   1.253   2.069 -0.8788 -0.3758  0.9432
13103TIP3    H260801   0.303   1.255   2.025 -0.7403  2.1279  0.4685
13104TIP3   OH260802   0.875   6.705  10.540  0.3135  0.0971 -0.4033
13104TIP3    H160803   0.942   6.686  10.475  0.4764  0.7519 -0.4337
13104TIP3    H260804   0.793   6.706  10.491  0.5407  1.5737 -0.7994
13105TIP3   OH260805   0.299   1.416   0.663 -0.2552  0.2563  0.3807
13105TIP3    H160806   0.260   1.329   0.654  0.1918  0.1694 -0.9193
13105TIP3    H260807   0.338   1.417   0.750 -1.0527 -0.5155  0.7576
13106TIP3   OH260808   1.650   3.115  10.673  0.5224  0.5296 -0.4498
13106TIP3    H160809   1.707   3.187  10.642 -0.2698  0.3786 -2.4325
13106TIP3    H260810   1.562   3.144  10.651  0.1919 -1.0733 -1.4175
13107TIP3   OH260811   4.375   5.536  13.352  0.4064  0.2714 -0.5298
13107TIP3    H160812   4.375   5.623  13.312  0.3332 -0.2830 -1.7591
13107TIP3    H260813   4.464   5.504  13.340  0.8788  0.7570  1.2924
13108TIP3   OH260814   4.222   0.933  16.878  0.3186 -0.0275 -0.4145
13108TIP3    H160815   4.132   0.946  16.849  0.4400 -0.4298 -0.9900
13108TIP3    H260816   4.257   0.866  16.819  0.7127 -0.5369  0.3911
13109TIP3   OH260817   3.930   4.089   5.128 -0.0895 -0.0797 -0.7255
13109TIP3    H160818   3.963   4.176   5.103 -0.4536 -0.0405 -1.0926
13109TIP3    H260819   4.008   4.035   5.136  0.5736  1.1970  3.4334
13110TIP3   OH260820   4.056   4.036  13.862 -0.5431 -0.3476 -0.1785
13110TIP3    H160821   4.098   3.974  13.803  0.8608 -0.2153  0.6572
13110TIP3    H260822   4.091   4.121  13.837 -1.1375 -0.0953 -0.1750
13111TIP3   OH260823   3.433   0.013   4.709  0.4082  0.4663 -0.7370
13111TIP3    H160824   3.338   0.029   4.709  0.3965  0.6032  1.0306
13111TIP3    H260825   3.449  -0.035   4.627 -1.2455  0.0846 -0.8798
13112TIP3   OH260826   5.928   1.507  15.425 -0.5067  0.0385  0.2163
13112TIP3    H160827   5.846   1.488  15.378 -0.6463  1.3442 -0.1101
13112TIP3    H260828   5.907   1.493  15.517 -0.1498 -2.8599 -0.0678
13113TIP3   OH260829   0.781   0.624   0.791  0.0114 -0.5939  0.2113
13113TIP3    H160830   0.733   0.642   0.872 -1.6747 -0.6715 -0.7035
13113TIP3    H260831   0.732   0.552   0.750  1.8735 -1.7762 -0.0465
13114TIP3   OH260832   2.808   3.935  14.730  0.3199 -0.1348  0.2854
13114TIP3    H160833   2.887   3.981  14.703  0.0401  0.0012 -0.3216
13114TIP3    H260834   2.839   3.858  14.776  0.8054 -0.1552 -0.0767
13115TIP3   OH260835   4.090   5.767   4.578  0.1612 -0.5956  0.2097
13115TIP3    H160836   4.087   5.861   4.563  4.0500 -0.4867 -1.2209
13115TIP3    H260837   4.149   5.756   4.652  0.5632 -1.8744 -0.2570
13116TIP3   OH260838   5.166   1.190  11.728  0.0410 -0.7649  0.2474
13116TIP3    H160839   5.236   1.251  11.750 -1.4983  1.1179  0.1765
13116TIP3    H260840   5.138   1.215  11.640 -1.3669 -0.8209  0.6556
13117TIP3   OH260841   6.370   0.052  16.061 -0.2172  0.3224  0.3299
13117TIP3    H160842   6.450   0.094  16.092 -0.2544  1.5566 -1.1211
13117TIP3    H260843   6.356  -0.021  16.121  1.3581  0.7715  1.2958
13118TIP3   OH260844   2.534   3.671  12.675 -0.4802 -0.7598  0.4746
13118TIP3    H160845   2.613   3.711  12.638 -1.6818 -0.7944 -2.4619
13118TIP3    H260846   2.564   3.622  12.751  2.3330 -0.8788 -0.6103
13119TIP3   OH260847   1.980   2.188   1.069 -0.2999  0.1557 -0.0823
13119TIP3    H160848   1.913   2.180   1.137 -1.4675  0.5661 -1.1602
13119TIP3    H260849   1.936   2.230   0.996  1.0380  0.0758 -0.9722
13120TIP3   OH260850   1.566   5.880   5.913  0.1605  0.2950  0.6584
13120TIP3    H160851   1.483   5.928   5.907 -0.3896 -0.5677  1.1864
13120TIP3    H260852   1.632   5.948   5.925 -0.4663  0.9961  0.2424
13121TIP3   OH260853   5.366   5.681   1.349 -0.1828  0.7420 -0.1996
13121TIP3    H160854   5.453   5.679   1.308 -0.2339  0.3827 -0.2900
13121TIP3    H260855   5.378   5.735   1.427  0.4576 -0.4246  0.5390
13122TIP3   OH260856   0.804   2.253  11.298 -0.2667  0.1855 -0.2280
13122TIP3    H160857   0.848   2.171  11.320 -2.6052 -0.7498  1.3427
13122TIP3    H260858   0.768   2.238  11.211 -0.4811 -0.3592 -0.0468
13123TIP3   OH260859   1.050   0.466  15.589  0.0958 -0.3106  0.4472
13123TIP3    H160860   1.105   0.414  15.531 -0.3184 -1.0071  0.6686
13123TIP3    H260861   1.107   0.491  15.661  0.2093 -0.7573  0.5140
13124TIP3   OH260862   1.293   1.651  13.900 -0.6594 -0.1738 -0.7221
13124TIP3    H160863   1.340   1.642  13.817 -1.4629 -1.9655 -1.0332
13124TIP3    H260864   1.203   1.669  13.876 -0.8835 -0.6205 -0.2586
13125TIP3   OH260865   4.252   0.290   3.881  0.0482 -0.2747  0.4335
13125TIP3    H160866   4.213   0.261   3.799  2.8338 -0.8974 -0.8043
13125TIP3    H260867   4.263   0.210   3.932  1.8878 -0.5347 -0.2962
13126TIP3   OH260868   1.801   4.149  14.610 -0.4862 -0.2995  0.4556
13126TIP3    H160869   1.804   4.093  14.687 -0.8061 -1.0861 -0.0859
13126TIP3    H260870   1.845   4.098  14.542 -0.1551  0.4042  0.1300
13127TIP3   OH260871   1.155   4.525   1.648  0.1337  0.0463  0.0935
13127TIP3    H160872   1.202   4.563   1.722  1.0858  1.8327 -1.3443
13127TIP3    H260873   1.203   4.446   1.626  1.6832  1.0957 -0.4539
13128TIP3   OH260874   2.403   5.177   0.255 -0.3412 -0.6988 -0.0884
13128TIP3    H160875   2.379   5.217   0.172 -0.3215 -2.0494 -0.7669
13128TIP3    H260876   2.497   5.195   0.264 -0.4423 -0.1441 -0.1192
13129TIP3   OH260877   5.008   0.850  11.768  0.2003  0.1820  0.0306
13129TIP3    H160878   4.943   0.879  11.703  0.3370  0.9387  0.2257
13129TIP3    H260879   5.092   0.880  11.734  0.2293  0.9586  0.7624
13130TIP3   OH260880   5.666   4.837  11.554  0.7510 -0.5382  0.0004
13130TIP3    H160881   5.695   4.870  11.469  1.1652  1.5057  0.8698
13130TIP3    H260882   5.747   4.827  11.604  0.4507 -0.8770  0.4244
13131TIP3   OH260883   5.305   4.531  13.061 -0.5424  0.3162 -0.5280
13131TIP3    H160884   5.305   4.520  13.156  0.7703  2.4304 -0.2273
13131TIP3    H260885   5.392   4.564  13.040 -1.0108  0.4975 -2.3970
13132TIP3   OH260886   2.946   5.654  10.632  0.2211 -0.2940 -0.3445
13132TIP3    H160887   2.876   5.717  10.648 -0.0065 -0.8840  1.1377
13132TIP3    H260888   2.968   5.665  10.539 -0.5208  1.2200 -0.3669
13133TIP3   OH260889   3.234   0.268  15.672 -0.4416  0.6728 -0.0157
13133TIP3    H160890   3.233   0.173  15.686  0.1053  0.5386 -0.8327
13133TIP3    H260891   3.268   0.304  15.754  0.2902  0.0858 -0.0492
13134TIP3   OH260892   5.879   5.673  13.541 -0.1528 -0.1957 -0.5295
13134TIP3    H160893   5.971   5.688  13.564 -0.6837 -0.2991  1.8534
13134TIP3    H260894   5.838   5.759  13.553 -0.9057 -0.7831  1.4141
13135TIP3   OH260895   4.718   1.957  11.206  0.3000 -0.0670  0.6087
13135TIP3    H160896   4.677   1.962  11.292 -1.5196 -2.4388  0.0278
13135TIP3    H260897   4.711   1.864  11.182  0.8952  0.4736 -2.0130
13136TIP3   OH260898   3.345   3.395   2.532  0.2150 -0.4113  0.4388
13136TIP3    H160899   3.356   3.489   2.548  0.1599 -0.4586  0.7733
13136TIP3    H260900   3.418   3.371   2.475  0.7918 -0.3600  1.1426
13137TIP3   OH260901   4.563   2.557  14.768 -0.1137 -0.5224 -0.2863
13137TIP3    H160902   4.654   2.541  14.792  0.0504 -0.6710 -0.9970
13137TIP3    H260903   4.552   2.651  14.774 -0.6717 -0.6632  2.4629
13138TIP3   OH260904   1.668   2.601   4.329  0.3062 -0.0476 -0.9544
13138TIP3    H160905   1.596   2.664   4.336  0.6789  0.2434  0.6241
13138TIP3    H260906   1.635   2.523   4.374  0.6718 -0.1998 -0.9549
13139TIP3   OH260907   3.247   5.214   5.611 -0.2665 -0.0815 -0.1652
13139TIP3    H160908   3.173   5.273   5.610  0.6028  1.0379 -0.3683
13139TIP3    H260909   3.279   5.213   5.520  1.1812  1.0635  0.2944
13140TIP3   OH260910   3.002   3.731   6.521 -0.1307 -0.1436 -0.2900
13140TIP3    H160911   2.987   3.637   6.530 -1.2223 -0.1846 -1.9743
13140TIP3    H260912   3.097   3.741   6.526  0.0456 -1.4368 -0.7584
13141TIP3   OH260913   3.532   1.339   4.178  0.2634  0.1560 -0.8699
13141TIP3    H160914   3.507   1.268   4.119 -1.0614  1.1488 -1.5721
13141TIP3    H260915   3.526   1.302   4.265 -0.1363 -0.6764 -1.2428
13142TIP3   OH260916   4.606   2.807   4.597 -0.1710 -0.3391 -0.4109
13142TIP3    H160917   4.655   2.758   4.663  0.6882  3.6590  2.2950
13142TIP3    H260918   4.531   2.842   4.645 -0.1035  1.8565 -1.7714
13143TIP3   OH260919   0.981   0.107   5.090  0.3878 -0.0086 -0.3625
13143TIP3    H160920   0.968   0.069   5.177 -0.3721 -1.5346 -1.1105
13143TIP3    H260921   0.969   0.034   5.030  1.9516  0.7870 -1.7251
13144TIP3   OH260922   4.302   2.237  16.218  0.3514  0.4262  0.2480
13144TIP3    H160923   4.356   2.273  16.148  0.7748  3.5861  1.9685
13144TIP3    H260924   4.357   2.245  16.297 -1.2562  0.2155  1.4420
13145TIP3   OH260925   2.472   3.970  13.413 -0.3525  0.2784  0.1478
13145TIP3    H160926   2.402   3.907  13.431  1.4102 -1.8755  0.0382
13145TIP3    H260927   2.496   3.954  13.322 -0.0518  1.3244  0.0353
13146TIP3   OH260928   2.181   5.590   5.803  0.0655  0.3873  0.1562
13146TIP3    H160929   2.196   5.580   5.897 -2.7349 -0.0574  0.6526
13146TIP3    H260930   2.136   5.675   5.795 -0.1919  0.1823 -0.7135
13147TIP3   OH260931   5.979   1.952  14.163 -0.2699 -0.0061  0.3574
13147TIP3    H160932   6.044   1.910  14.220 -0.0789  0.0006  0.1444
13147TIP3    H260933   5.979   2.044  14.190 -0.6514 -0.1250  0.7883
13148TIP3   OH260934   2.460   5.315   5.313  0.7749 -0.1171 -0.7276
13148TIP3    H160935   2.373   5.286   5.341  0.9774  0.2130  0.2890
13148TIP3    H260936   2.471   5.277   5.226 -0.0733 -0.7964 -0.5546
13149TIP3   OH260937   3.802   2.526   4.837 -0.2686 -0.1218 -0.2957
13149TIP3    H160938   3.870   2.482   4.888 -2.5062 -1.7215  1.5030
13149TIP3    H260939   3.790   2.469   4.761 -1.3477 -1.3109  0.7160
13150TIP3   OH260940   1.363   6.686   3.976  0.2768 -0.4298  0.2251
13150TIP3    H160941   1.322   6.715   4.057 -1.2320 -1.3203 -0.1790
13150TIP3    H260942   1.427   6.620   4.004 -0.8926 -1.4134  0.6446
13151TIP3   OH260943   5.158   3.508   1.779 -0.3637 -0.4932  0.3038
13151TIP3    H160944   5.117   3.446   1.718 -0.4059  0.8786 -1.1127
13151TIP3    H260945   5.250   3.511   1.752 -0.2757 -0.2483  0.6282
13152TIP3   OH260946   5.380   0.928   1.515  0.0419 -0.0148  0.1389
13152TIP3    H160947   5.349   0.837   1.515 -0.7257  0.2340 -0.6968
13152TIP3    H260948   5.466   0.924   1.471  0.2648 -0.4101  0.6058
13153TIP3   OH260949   1.546   4.438  16.158 -0.2036 -0.4750 -0.0891
13153TIP3    H160950   1.591   4.425  16.074 -2.3201 -0.2964 -1.3143
13153TIP3    H260951   1.453   4.438  16.135 -0.7974  1.5250  1.9821
13154TIP3   OH260952   3.086   6.174  10.656  0.6868 -0.0175  0.0007
13154TIP3    H160953   3.033   6.108  10.612  0.9460 -1.1958  1.3960
13154TIP3    H260954   3.176   6.148  10.639  0.7916  0.0988  0.3684
13155TIP3   OH260955   4.343   3.414  14.650  0.2956 -0.5784 -1.0192
13155TIP3    H160956   4.297   3.342  14.694 -0.1262  0.7177  0.7732
13155TIP3    H260957   4.274   3.469  14.615  0.5331  0.0812 -0.4746
13156TIP3   OH260958   6.285   0.170  13.817 -0.2401  0.2927 -0.0911
13156TIP3    H160959   6.310   0.096  13.872  0.0245  0.7898  0.4725
13156TIP3    H260960   6.252   0.131  13.737  0.1376 -0.4272  0.0998
13157TIP3   OH260961   5.303   5.698   5.948  0.2133 -0.4318  0.0338
13157TIP3    H160962   5.231   5.679   5.887 -0.6180  1.1993  0.4409
13157TIP3    H260963   5.377   5.648   5.913 -0.5560 -0.5055 -1.6234
13158TIP3   OH260964   5.551   1.437  14.686 -0.0273 -0.0186  0.3245
13158TIP3    H160965   5.636   1.398  14.705 -0.3929 -1.5153 -0.9065
13158TIP3    H260966   5.496   1.414  14.762  0.5038  0.5608  0.9038
13159TIP3   OH260967   0.958   0.765   2.902  0.6016  0.8375 -0.0112
13159TIP3    H160968   0.952   0.787   2.809  2.5956 -2.0669 -0.9639
13159TIP3    H260969   0.881   0.710   2.918  1.3841 -0.4558 -0.5716
13160TIP3   OH260970   2.331   4.660   2.375 -0.1206 -0.2147 -0.4581
13160TIP3    H160971   2.411   4.669   2.323  0.3658 -1.0771  0.1272
13160TIP3    H260972   2.346   4.583   2.429 -1.5790 -0.7241 -0.7317
13161TIP3   OH260973   4.012   4.646   1.932  0.1627  0.1446 -0.7672
13161TIP3    H160974   4.000   4.570   1.988  0.1851 -0.0636 -1.0452
13161TIP3    H260975   4.096   4.631   1.888 -1.1125 -1.0638 -2.9715
13162TIP3   OH260976   3.052   3.144   3.512 -0.9719  0.1966  0.0309
13162TIP3    H160977   3.021   3.149   3.603 -0.1292 -1.3114  0.4308
13162TIP3    H260978   3.079   3.053   3.501 -1.1203  0.3412 -1.7694
13163TIP3   OH260979   4.284   4.490   3.967  0.1773 -0.7817  0.1207
13163TIP3    H160980   4.266   4.443   4.048  0.0736 -0.2762  0.3907
13163TIP3    H260981   4.379   4.504   3.968  0.2853 -1.4391 -0.2134
13164TIP3   OH260982   1.765   1.825   2.728 -0.5202  0.0179  0.2384
13164TIP3    H160983   1.710   1.869   2.793  0.5546  1.2637  0.3436
13164TIP3    H260984   1.774   1.735   2.761  0.4459  0.7579  2.1178
13165TIP3   OH260985   0.958   0.114   3.619 -0.1033 -0.3078  0.0207
13165TIP3    H160986   0.958   0.052   3.692 -0.9052 -1.4951 -0.9542
13165TIP3    H260987   0.949   0.060   3.541 -0.4342  1.0094 -0.8926
13166TIP3   OH260988   4.567   0.273   1.985  0.2091  0.3508  0.2489
13166TIP3    H160989   4.623   0.334   1.936  1.8438  0.1840  1.8521
13166TIP3    H260990   4.499   0.249   1.922  0.8045  2.0643 -1.1503
13167TIP3   OH260991   2.682   0.162   4.070  0.2607 -0.5298  0.0040
13167TIP3    H160992   2.680   0.168   4.165  2.0579  0.2058  0.0213
13167TIP3    H260993   2.752   0.221   4.043 -1.2331  0.5150 -1.9014
13168TIP3   OH260994   0.841   4.606   5.605  0.1175  0.0974 -0.7548
13168TIP3    H160995   0.782   4.568   5.540  0.5996 -1.0205 -0.5673
13168TIP3    H260996   0.815   4.565   5.688 -0.8975  1.9556 -0.1018
13169TIP3   OH260997   3.425   0.877   2.839  0.0318 -0.3975  0.1800
13169TIP3    H160998   3.340   0.841   2.813  0.2524 -0.3506 -0.6042
13169TIP3    H260999   3.404   0.940   2.908 -0.3952 -1.7225  1.3034
13170TIP3   OH261000   4.677   1.121   0.477  0.7069  0.1448 -0.5131
13170TIP3    H161001   4.759   1.097   0.433  0.7458  0.2381 -0.4925
13170TIP3    H261002   4.646   1.039   0.516 -0.0034 -0.2296 -1.8025
13171TIP3   OH261003   0.258   5.520  12.344 -0.1855 -0.2020  0.2458
13171TIP3    H161004   0.296   5.520  12.255 -1.2981 -2.1856 -0.2859
13171TIP3    H261005   0.328   5.484  12.399  0.0100 -0.3107 -0.0664
13172TIP3   OH261006   5.045   3.888  11.744  0.3380  0.0644 -0.1558
13172TIP3    H161007   4.995   3.812  11.715 -1.4659  0.9925  0.3754
13172TIP3    H261008   5.104   3.854  11.811 -0.9585 -0.7513  0.6009
13173TIP3   OH261009   4.054   0.326  12.521  0.0735 -0.1192 -0.1416
13173TIP3    H161010   4.009   0.401  12.483  0.2053 -0.3414 -0.7506
13173TIP3    H261011   4.078   0.354  12.610 -0.4008  0.3409 -0.1562
13174TIP3   OH261012   5.588   1.126  12.133 -0.9112 -0.3496  0.6109
13174TIP3    H161013   5.639   1.073  12.072  1.0058 -0.7197  2.4182
13174TIP3    H261014   5.497   1.110  12.108 -0.2281  0.1617 -2.5997
13175TIP3   OH261015   3.618   4.585   2.458  0.2057  0.0270 -0.1535
13175TIP3    H161016   3.529   4.575   2.492  0.5352  0.1286  0.7788
13175TIP3    H261017   3.668   4.514   2.501  0.5722 -0.0288 -0.6634
13176TIP3   OH261018   5.688   4.336   5.855 -0.1116  0.7581 -0.0031
13176TIP3    H161019   5.761   4.395   5.873  1.1020 -0.8224  0.4570
13176TIP3    H261020   5.621   4.361   5.919  0.4576  1.4904  0.3239
13177TIP3   OH261021   1.707   0.529  15.511  0.7912  0.0084  0.1250
13177TIP3    H161022   1.803   0.528  15.519  0.8210  1.5679  0.3618
13177TIP3    H261023   1.691   0.520  15.417  1.0998 -1.6632  0.2089
13178TIP3   OH261024   4.569   3.395   1.669 -0.1655 -0.3680 -0.1153
13178TIP3    H161025   4.527   3.364   1.749 -1.0960 -0.4159 -0.6065
13178TIP3    H261026   4.656   3.355   1.671 -1.0288 -2.3717 -0.3178
13179TIP3   OH261027   1.564   5.321   3.200 -0.0114  0.1598  0.1603
13179TIP3    H161028   1.629   5.358   3.260  0.8904 -0.5705 -0.3418
13179TIP3    H261029   1.537   5.395   3.146  1.1789  0.2854 -0.3029
13180TIP3   OH261030   3.874   4.879  15.628  0.1242  0.8549  0.6930
13180TIP3    H161031   3.891   4.812  15.694  0.8268  0.5283  0.1927
13180TIP3    H261032   3.961   4.916  15.609  0.1407  0.0264 -1.0058
13181TIP3   OH261033   6.765   4.508   0.620  0.0336  0.4361 -0.3161
13181TIP3    H161034   6.798   4.500   0.709  1.1543  0.9309 -0.6664
13181TIP3    H261035   6.841   4.537   0.569 -0.1790 -1.3239 -1.7139
13182TIP3   OH261036   6.341   5.345  14.812 -0.3033 -0.4133 -0.0737
13182TIP3    H161037   6.318   5.355  14.904 -0.1692  0.2820 -0.1079
13182TIP3    H261038   6.404   5.273  14.810  1.6502  1.1715  0.7245
13183TIP3   OH261039   2.261   5.334   3.403  0.4776  0.5395 -0.1369
13183TIP3    H161040   2.337   5.336   3.345  1.2645  1.4675  0.8807
13183TIP3    H261041   2.218   5.419   3.389  0.3730  0.5495  0.2291
13184TIP3   OH261042   4.441   4.585  14.468  0.1318  0.0829 -0.2556
13184TIP3    H161043   4.353   4.607  14.499 -1.3129 -2.0554 -2.4389
13184TIP3    H261044   4.470   4.663  14.421 -1.2915  0.2960 -0.8374
13185TIP3   OH261045   1.402   0.470   1.139  0.1644 -0.0975  0.2840
13185TIP3    H161046   1.371   0.396   1.191  0.4294 -0.0024  0.5755
13185TIP3    H261047   1.322   0.518   1.117 -0.1439 -1.0550 -0.8273
13186TIP3   OH261048   2.529   2.635  11.487  0.3626  0.4869 -0.4771
13186TIP3    H161049   2.501   2.623  11.578 -2.0792 -0.2094 -1.2359
13186TIP3    H261050   2.447   2.638  11.437  1.6436  0.4949 -2.7156
13187TIP3   OH261051   5.150   3.612  13.848 -0.3523  0.1689  0.7833
13187TIP3    H161052   5.098   3.628  13.927  0.4045  0.8860  1.1575
13187TIP3    H261053   5.125   3.683  13.789 -0.0462  0.3272  0.8416
13188TIP3   OH261054   1.151   6.623   2.954 -0.0768  0.6383  0.2397
13188TIP3    H161055   1.233   6.574   2.963 -1.0800 -1.0511  0.5842
13188TIP3    H261056   1.142   6.639   2.860  0.0012 -0.3560  0.0530
13189TIP3   OH261057   6.297   5.799   4.204  0.4357 -0.4345 -0.4153
13189TIP3    H161058   6.376   5.852   4.213  0.4900 -0.7250  1.1211
13189TIP3    H261059   6.228   5.862   4.186  0.2935  0.3880  2.5534
13190TIP3   OH261060   0.330   1.693  10.764 -0.5604  0.9263 -0.3726
13190TIP3    H161061   0.382   1.712  10.843 -2.2753  3.6435  0.2416
13190TIP3    H261062   0.248   1.656  10.798  0.0156 -1.2299 -1.1842
13191TIP3   OH261063   6.614   1.507  14.002  0.1825 -0.5572 -0.2447
13191TIP3    H161064   6.588   1.431  14.056  0.2295 -0.5327 -0.1874
13191TIP3    H261065   6.588   1.583  14.054  0.9698 -0.5271  0.1177
13192TIP3   OH261066   3.960   1.373  10.230 -0.9687 -0.3715  0.0611
13192TIP3    H161067   4.039   1.420  10.203 -2.2295  1.2385 -1.0228
13192TIP3    H261068   3.891   1.409  10.174 -2.4330 -1.8998  0.8151
13193TIP3   OH261069   6.159   5.689  13.565 -0.0240 -0.4248  0.1610
13193TIP3    H161070   6.170   5.685  13.470 -0.3812  0.5107  0.0739
13193TIP3    H261071   6.248   5.698  13.599 -0.0152  1.3557 -0.2193
13194TIP3   OH261072   6.342   4.361  16.500  0.2444 -0.1368  0.7917
13194TIP3    H161073   6.417   4.307  16.471 -0.8466 -0.0918 -2.5196
13194TIP3    H261074   6.268   4.301  16.497 -0.2825  0.4622  1.5713
13195TIP3   OH261075   4.489   5.914  16.231  0.4553  0.3844  0.4156
13195TIP3    H161076   4.396   5.900  16.211  0.7014  1.6018 -1.9422
13195TIP3    H261077   4.527   5.826  16.232 -0.5690 -0.0730  0.6479
13196TIP3   OH261078   4.872   5.288  16.768 -0.9767 -0.4320 -0.3540
13196TIP3    H161079   4.798   5.235  16.797 -1.0563  0.9507  2.1950
13196TIP3    H261080   4.931   5.291  16.844  0.3038  0.9101 -1.3436
13197TIP3   OH261081   1.106   4.285  11.374 -0.0555  0.3220 -0.2219
13197TIP3    H161082   1.067   4.372  11.378  1.0214  0.8916 -1.2593
13197TIP3    H261083   1.182   4.290  11.433 -0.2600 -0.0660  0.0785
13198TIP3   OH261084   1.008   6.499  10.723  0.0485  0.0412 -0.0561
13198TIP3    H161085   0.939   6.490  10.658  0.5582  0.1140 -0.6220
13198TIP3    H261086   1.082   6.536  10.675  1.6294 -3.0808 -0.2870
13199TIP3   OH261087   6.363   5.358  16.206 -0.1344  0.1871  0.4934
13199TIP3    H161088   6.391   5.449  16.193 -0.2672  0.3514  1.3100
13199TIP3    H261089   6.415   5.308  16.143  0.2329  0.7840  0.3124
13200TIP3   OH261090   4.845   6.340   1.745  0.0151  0.7159  0.3857
13200TIP3    H161091   4.904   6.394   1.693 -1.8145  0.9206 -1.6391
13200TIP3    H261092   4.885   6.253   1.742  1.8576  1.4518  1.8487
13201TIP3   OH261093   5.903   6.226   1.432  0.0484  0.0804 -0.0430
13201TIP3    H161094   5.940   6.189   1.352 -0.0776  0.3254 -0.2164
13201TIP3    H261095   5.973   6.280   1.468 -0.1371  0.5411 -0.3692
13202TIP3   OH261096   0.692   6.152  11.195 -0.0561 -0.2481  0.1355
13202TIP3    H161097   0.702   6.227  11.136 -2.4276 -0.1240 -0.2234
13202TIP3    H261098   0.733   6.180  11.277  0.4235  0.8403 -0.4485
13203TIP3   OH261099   4.459   2.380   0.594  0.1148 -0.1247  0.5229
13203TIP3    H161100   4.507   2.449   0.641 -0.8656 -0.1217  1.5593
13203TIP3    H261101   4.504   2.299   0.618  0.5651  0.0395  0.2304
13204TIP3   OH261102   2.648   6.782  12.815 -0.5012 -0.1758 -0.3213
13204TIP3    H161103   2.558   6.774  12.783 -1.8100  0.2461  2.9147
13204TIP3    H261104   2.688   6.848  12.759 -2.7357  0.8298 -0.8142
13205TIP3   OH261105   6.667   4.401  11.117  0.7223 -0.0130 -0.3338
13205TIP3    H161106   6.667   4.307  11.096  0.2850 -0.1090  0.0646
13205TIP3    H261107   6.612   4.407  11.195 -1.5560  0.9330 -1.9023
13206TIP3   OH261108   4.784   2.180  13.032 -0.0566 -0.0508 -0.6342
13206TIP3    H161109   4.862   2.213  13.075 -0.6824 -1.4255  1.7525
13206TIP3    H261110   4.809   2.173  12.940  2.7143 -0.6311  0.0545
13207TIP3   OH261111   1.218   4.622   2.925  0.1164 -0.0351  0.9430
13207TIP3    H161112   1.154   4.694   2.925 -1.6848 -1.4852 -1.7166
13207TIP3    H261113   1.298   4.662   2.893 -0.2537  1.2301  1.5285
13208TIP3   OH261114   5.732   5.378  15.659  0.1023 -0.3580  0.4736
13208TIP3    H161115   5.704   5.323  15.732 -0.4808 -0.5959  0.0783
13208TIP3    H261116   5.800   5.327  15.615  0.3523 -0.2760  0.7615
13209TIP3   OH261117   1.476   6.081   2.481  0.0219  0.0693 -0.4594
13209TIP3    H161118   1.408   6.108   2.419 -1.4598  1.0529  1.4641
13209TIP3    H261119   1.466   6.143   2.554  2.4226 -0.3369  0.2828
13210TIP3   OH261120   6.631   2.118  13.640 -0.3670 -0.1669  0.2776
13210TIP3    H161121   6.653   2.050  13.704 -0.5485  0.5662  1.1447
13210TIP3    H261122   6.613   2.196  13.694  2.1076  1.2331 -0.7353
13211TIP3   OH261123   1.741   4.556  14.713 -0.8595 -0.5844  0.3242
13211TIP3    H161124   1.753   4.469  14.750 -0.7249  0.1219  2.0457
13211TIP3    H261125   1.793   4.614  14.769 -2.1532  0.7967  0.1685
13212TIP3   OH261126   6.588   0.978  12.224 -0.7264  0.1134  0.6505
13212TIP3    H161127   6.549   1.011  12.144 -2.1577 -3.5081 -0.3441
13212TIP3    H261128   6.533   1.012  12.295 -1.2812  0.8969 -0.1498
13213TIP3   OH261129   4.307   6.623   4.013  0.1287  0.0369 -0.0500
13213TIP3    H161130   4.347   6.597   4.095  0.1676  2.0043  0.5981
13213TIP3    H261131   4.215   6.637   4.034 -0.2041 -0.9794 -0.7286
13214TIP3   OH261132   4.923   5.612   5.619 -0.6173  0.3241  0.0565
13214TIP3    H161133   4.904   5.660   5.700 -1.5139 -0.8102  0.5550
13214TIP3    H261134   5.000   5.560   5.639 -0.7766  0.1236  0.1521
13215TIP3   OH261135   4.329   2.596  11.573  0.1088  0.0008 -0.0428
13215TIP3    H161136   4.297   2.636  11.491  1.3392 -0.5878 -0.8262
13215TIP3    H261137   4.305   2.660  11.640  0.8596  1.4657 -1.1054
13216TIP3   OH261138   5.537   3.687  13.189 -0.1175 -0.9100 -0.3004
13216TIP3    H161139   5.534   3.760  13.129 -0.2880 -1.8990 -1.5352
13216TIP3    H261140   5.624   3.649  13.178  0.5738  0.0064  1.5004
13217TIP3   OH261141   2.770   0.145  15.996  0.1913  0.8425  0.2715
13217TIP3    H161142   2.734   0.216  16.050  0.2354  1.2229 -0.1983
13217TIP3    H261143   2.835   0.187  15.940 -0.9581  0.7572 -1.1994
13218TIP3   OH261144   0.385   2.926  12.567 -0.2821  0.5122  0.6685
13218TIP3    H161145   0.348   2.957  12.484 -1.6762 -0.1622  1.0074
13218TIP3    H261146   0.322   2.861  12.598  1.6255 -1.3693  0.8428
13219TIP3   OH261147   0.124   6.796  13.913 -0.9744 -0.0107 -0.4027
13219TIP3    H161148   0.091   6.756  13.993 -0.5407  0.3484 -0.0391
13219TIP3    H261149   0.083   6.883  13.911 -1.4543 -0.2467 -0.8819
13220TIP3   OH261150   0.602   1.583   1.472 -0.3023 -0.3532 -0.2294
13220TIP3    H161151   0.520   1.610   1.429  0.4718 -0.2056 -1.6584
13220TIP3    H261152   0.670   1.605   1.409  0.8540 -0.5027  0.9347
13221TIP3   OH261153   2.077   0.238   3.655  0.0509 -0.1316  0.1429
13221TIP3    H161154   2.053   0.237   3.563 -0.7980  1.4980  0.2954
13221TIP3    H261155   2.003   0.197   3.700 -0.4334  0.8178  0.2380
13222TIP3   OH261156   1.453   1.731  16.143  0.0217 -0.5513 -0.0852
13222TIP3    H161157   1.472   1.670  16.214  0.2759 -0.4647 -0.0773
13222TIP3    H261158   1.499   1.811  16.168 -0.1273 -0.4260 -0.2062
13223TIP3   OH261159   6.080   3.371  10.919 -0.9245  0.2451  0.9106
13223TIP3    H161160   6.157   3.318  10.898 -2.7711 -1.4910 -2.2567
13223TIP3    H261161   6.103   3.459  10.889  0.4727  0.1950  1.7663
13224TIP3   OH261162   5.931   0.583  14.405 -0.1585 -0.6030 -0.3155
13224TIP3    H161163   6.018   0.622  14.414 -1.1671  1.5065  1.4982
13224TIP3    H261164   5.903   0.607  14.317 -0.1705  1.7254  0.2588
13225TIP3   OH261165   6.763   0.680   5.791  0.2754  0.0242  0.1026
13225TIP3    H161166   6.758   0.601   5.845  0.6714 -0.4683 -0.5532
13225TIP3    H261167   6.688   0.733   5.817 -1.4966 -1.7125 -1.2165
13226TIP3   OH261168   3.136   2.637  13.884  0.1815 -0.3335 -0.6329
13226TIP3    H161169   3.090   2.717  13.859  1.8636  0.5809 -0.9248
13226TIP3    H261170   3.216   2.638  13.831  0.5269 -1.8904 -0.1729
13227TIP3   OH261171   3.354   4.308   5.581 -0.3121 -0.2337  0.1634
13227TIP3    H161172   3.329   4.400   5.580  0.9525  0.1292 -0.6870
13227TIP3    H261173   3.421   4.303   5.649 -0.0958 -0.4396 -0.0644
13228TIP3   OH261174   4.992   6.648  15.441 -0.1557 -0.6181 -1.4173
13228TIP3    H161175   4.995   6.569  15.386 -0.2967 -1.7036  0.0547
13228TIP3    H261176   5.067   6.638  15.499 -0.4916  0.0717 -0.8622
13229TIP3   OH261177   1.792   1.224  12.039 -0.2714 -0.4279  0.6164
13229TIP3    H161178   1.817   1.135  12.063  0.4826 -0.0147  1.4343
13229TIP3    H261179   1.787   1.271  12.122 -3.0052 -0.2500  0.4323
13230TIP3   OH261180   5.860   4.636   4.257 -0.1097 -0.1110  0.0064
13230TIP3    H161181   5.861   4.655   4.163 -0.0728 -0.4333 -0.0586
13230TIP3    H261182   5.930   4.573   4.270  0.4740  0.6050  0.4015
13231TIP3   OH261183   3.976   4.618  12.741 -0.0044  0.3827 -0.2541
13231TIP3    H161184   3.925   4.697  12.725 -1.2257 -0.1063  1.0278
13231TIP3    H261185   3.933   4.551  12.686  0.4275  0.3870 -0.5991
13232TIP3   OH261186   6.052   5.951   4.183 -0.2620 -0.4499  0.5463
13232TIP3    H161187   5.988   5.901   4.133  0.7644 -1.2053 -0.0798
13232TIP3    H261188   6.042   5.921   4.273  0.2681 -1.7376  0.1935
13233TIP3   OH261189   6.368   0.221   2.284 -0.4366  0.0612  0.1766
13233TIP3    H161190   6.411   0.247   2.202 -1.3222 -2.1663 -1.0700
13233TIP3    H261191   6.299   0.286   2.296  1.0801  1.7029  0.3932
13234TIP3   OH261192   6.550   2.551   1.969  0.0918 -0.4017 -0.1278
13234TIP3    H161193   6.472   2.590   1.929 -1.0494 -2.2274  0.1981
13234TIP3    H261194   6.587   2.496   1.900  0.1354 -0.8249  0.2308
13235TIP3   OH261195   3.587   0.504  16.801  0.2631  0.4795  0.0604
13235TIP3    H161196   3.659   0.485  16.862  1.0653 -0.3326 -1.0903
13235TIP3    H261197   3.611   0.588  16.762  0.1483  0.6179  0.2834
13236TIP3   OH261198   6.706   0.486   6.002 -0.6310 -0.0698  0.7576
13236TIP3    H161199   6.781   0.492   6.061 -0.0257 -1.6681  0.1935
13236TIP3    H261200   6.630   0.492   6.059 -0.0771  0.4158  1.4641
13237TIP3   OH261201   3.984   4.720  14.478  0.2764  0.1546  0.1660
13237TIP3    H161202   3.990   4.794  14.418 -0.1575 -0.1586 -0.2712
13237TIP3    H261203   3.890   4.708  14.492  0.3551 -0.1060  0.4882
13238TIP3   OH261204   6.172   3.424   5.300 -0.2500  0.3754 -0.4488
13238TIP3    H161205   6.140   3.492   5.241  0.5444  1.9408  0.8373
13238TIP3    H261206   6.267   3.435   5.301 -0.1069 -0.7248 -0.1591
13239TIP3   OH261207   0.203   3.040   2.131  0.5308  0.5247 -0.4560
13239TIP3    H161208   0.284   3.083   2.105  0.7308 -0.0021 -0.7138
13239TIP3    H261209   0.138   3.069   2.068  0.8034 -0.0203 -0.9946
13240TIP3   OH261210   6.049   4.337   4.716 -0.1453  0.4205 -0.0986
13240TIP3    H161211   6.119   4.402   4.729  1.8234 -1.1661 -1.9442
13240TIP3    H261212   6.091   4.253   4.735 -0.9707 -0.7503 -2.9812
13241TIP3   OH261213   2.407   5.556   3.099 -0.1186  0.5070 -0.1603
13241TIP3    H161214   2.345   5.627   3.085  0.6253  1.3403  0.6560
13241TIP3    H261215   2.455   5.581   3.178  1.8418  0.3175 -1.2392
13242TIP3   OH261216   4.299   1.136   0.648  0.0465 -0.5456  0.6518
13242TIP3    H161217   4.319   1.056   0.599  0.1905  1.4155 -2.8421
13242TIP3    H261218   4.203   1.138   0.652  0.0365 -0.7728  0.5328
13243TIP3   OH261219   3.650   5.832   3.267  0.2128  0.0452 -0.1090
13243TIP3    H161220   3.588   5.804   3.334 -0.3026 -0.1990 -0.6812
13243TIP3    H261221   3.598   5.885   3.206  0.6074  0.0096 -0.4802
13244TIP3   OH261222   1.520   1.302  12.954 -0.2895 -0.1392  0.0274
13244TIP3    H161223   1.491   1.377  12.902  1.6676  0.2887 -0.5321
13244TIP3    H261224   1.585   1.338  13.014  0.7078 -1.3832 -0.2667
13245TIP3   OH261225   5.052   0.455   4.590 -0.1254  0.3280 -0.4565
13245TIP3    H161226   5.089   0.394   4.653 -1.0387  0.7603  0.5369
13245TIP3    H261227   5.009   0.522   4.643 -0.7995  0.7936 -1.5304
13246TIP3   OH261228   1.674   1.299   0.635  0.5263  0.8905  1.0540
13246TIP3    H161229   1.592   1.295   0.585  0.9353  2.2501  0.2123
13246TIP3    H261230   1.651   1.347   0.715 -0.3159 -1.9759  2.6722
13247TIP3   OH261231   0.596   5.769   1.375  0.4811  0.2421  0.3379
13247TIP3    H161232   0.571   5.689   1.421 -3.1108  1.4225  0.7585
13247TIP3    H261233   0.605   5.742   1.283  0.7596 -0.8653  0.6739
13248TIP3   OH261234   2.447   1.277  16.815  0.0775  0.5699  0.0635
13248TIP3    H161235   2.364   1.258  16.858  0.0241  0.3868 -0.1206
13248TIP3    H261236   2.513   1.231  16.869 -0.0777 -0.3726 -0.5317
13249TIP3   OH261237   3.458   0.513  12.465 -1.0469  0.0189 -0.5814
13249TIP3    H161238   3.376   0.492  12.510 -0.5212  0.5103  0.6721
13249TIP3    H261239   3.431   0.569  12.392 -1.9475 -0.9063 -0.9809
13250TIP3   OH261240   3.086   0.902   1.676  0.2460  0.7017  0.2077
13250TIP3    H161241   3.105   0.853   1.756  0.7592  0.4937 -0.0380
13250TIP3    H261242   3.044   0.838   1.619 -0.4071  0.9305  0.4182
13251TIP3   OH261243   0.593   5.714  16.551  0.3508  0.1102 -0.4509
13251TIP3    H161244   0.502   5.743  16.554  0.1111 -0.5989 -0.7293
13251TIP3    H261245   0.628   5.738  16.637 -0.4361 -0.7067  0.1087
13252TIP3   OH261246   4.396   2.773   0.591 -0.1416  0.2372 -0.1622
13252TIP3    H161247   4.479   2.729   0.613  0.1993  0.1342 -1.5115
13252TIP3    H261248   4.365   2.726   0.513 -0.9588  0.9108 -0.2534
13253TIP3   OH261249   2.875   4.505   1.794 -0.4949 -0.4027 -1.0971
13253TIP3    H161250   2.868   4.430   1.854 -1.3081 -0.1537 -0.8619
13253TIP3    H261251   2.943   4.560   1.833 -0.6006 -0.5318 -0.7174
13254TIP3   OH261252   6.789   6.223  12.936 -0.4973  0.2061 -0.2463
13254TIP3    H161253   6.763   6.186  13.020  0.3719  1.2947  0.5406
13254TIP3    H261254   6.738   6.303  12.929 -0.3208  0.2881 -0.5914
13255TIP3   OH261255   1.554   6.713   3.499  0.4360  0.1230 -0.4621
13255TIP3    H161256   1.631   6.770   3.503  1.9418 -1.8303  1.9259
13255TIP3    H261257   1.501   6.740   3.574 -0.5544  0.5259 -1.2816
13256TIP3   OH261258   4.202   2.511   6.319  0.4722  0.4030 -0.5050
13256TIP3    H161259   4.171   2.512   6.229 -0.2184 -1.8480 -0.3526
13256TIP3    H261260   4.289   2.551   6.315  1.1608 -1.1120 -2.4927
13257TIP3   OH261261   1.948   1.708  17.046 -0.6058  0.8969  0.0410
13257TIP3    H161262   1.940   1.724  17.141 -3.6777  0.4810 -0.0406
13257TIP3    H261263   1.934   1.794  17.006 -0.9008  0.8038 -0.0579
13258TIP3   OH261264   4.828   2.673   4.419  0.5163  0.2759  0.3780
13258TIP3    H161265   4.736   2.699   4.430  0.2044 -0.3400 -0.6291
13258TIP3    H261266   4.824   2.595   4.364  1.5018 -1.3430  2.4798
13259TIP3   OH261267   3.132   4.559   2.655  0.5179 -0.1736  0.1744
13259TIP3    H161268   3.038   4.551   2.670  0.5791  0.1652  0.7827
13259TIP3    H261269   3.144   4.651   2.631  0.7782 -0.0206  0.8460
13260TIP3   OH261270   1.928   3.699   0.517 -0.3328  0.7959  0.3267
13260TIP3    H161271   1.860   3.736   0.460  1.0958  0.8550 -1.4651
13260TIP3    H261272   1.974   3.775   0.552 -0.1124  0.7507  0.1387
13261TIP3   OH261273   1.438   4.444   2.235  0.0910 -0.4464  0.0437
13261TIP3    H161274   1.488   4.458   2.315 -0.8783  0.4809  0.5198
13261TIP3    H261275   1.360   4.396   2.264 -1.8087  2.4888  0.3022
13262TIP3   OH261276   6.415   0.708   2.763 -0.0299  0.2513  0.1784
13262TIP3    H161277   6.458   0.667   2.688  1.7029  1.3324  0.5440
13262TIP3    H261278   6.374   0.786   2.727  0.3040  0.4610  0.2542
13263TIP3   OH261279   6.654   0.314   0.022  0.0364  0.5710 -0.1908
13263TIP3    H161280   6.650   0.353  -0.065 -0.8650  2.0043  0.4607
13263TIP3    H261281   6.569   0.272   0.033  0.3766 -0.1459 -0.2162
13264TIP3   OH261282   5.806   1.060  14.875 -0.2686 -0.1105  0.3372
13264TIP3    H161283   5.794   1.113  14.954  1.5258  0.3829  0.3353
13264TIP3    H261284   5.761   1.108  14.806 -0.8521  0.0585  0.8246
13265TIP3   OH261285   3.968   0.632   6.038 -0.0317 -0.4519 -0.0867
13265TIP3    H161286   3.963   0.612   6.132  1.6512 -0.5083  0.0374
13265TIP3    H261287   4.060   0.618   6.016 -0.3481 -0.1974 -1.7051
13266TIP3   OH261288   5.743   2.975   6.046  0.0096 -0.1264  0.3407
13266TIP3    H161289   5.734   3.068   6.028  1.3877  0.2573  1.3946
13266TIP3    H261290   5.774   2.937   5.963 -0.9033  0.2747 -0.1915
13267TIP3   OH261291   2.292   0.110   3.254 -0.3412 -0.2307  0.0833
13267TIP3    H161292   2.350   0.047   3.211 -0.9489 -1.7403  1.3902
13267TIP3    H261293   2.222   0.125   3.191 -1.2345 -2.4349  0.4691
13268TIP3   OH261294   3.170   6.705  15.658 -0.1461 -0.5077 -0.8585
13268TIP3    H161295   3.121   6.647  15.717  0.4043 -0.0253  0.1072
13268TIP3    H261296   3.210   6.769  15.717 -0.9811  1.0411 -1.9244
13269TIP3   OH261297   6.171   4.714   0.577  0.7121  0.0383  0.2934
13269TIP3    H161298   6.263   4.695   0.596  1.0821  1.2764 -0.1600
13269TIP3    H261299   6.123   4.665   0.644  1.6266 -1.5073 -0.1332
13270TIP3   OH261300   3.504   1.148  12.358  0.3421  0.1622  0.5052
13270TIP3    H161301   3.520   1.234  12.320 -1.2741  0.2602 -0.0488
13270TIP3    H261302   3.508   1.088  12.284 -2.1030  0.2609  0.1994
13271TIP3   OH261303   0.245   4.089  14.656 -0.0652 -0.5289  0.1647
13271TIP3    H161304   0.334   4.113  14.682  0.6205 -3.0524  0.4218
13271TIP3    H261305   0.210   4.168  14.615  1.8399  0.9152  1.1331
13272TIP3   OH261306   0.231   4.199   3.591 -0.4054 -0.1444  0.1666
13272TIP3    H161307   0.287   4.276   3.602  1.6591 -1.6303  0.9590
13272TIP3    H261308   0.174   4.200   3.667  1.6730 -0.9013  1.8508
13273TIP3   OH261309   0.128   4.649   0.106  0.5561  0.3342  0.6058
13273TIP3    H161310   0.201   4.659   0.167 -0.1637  0.0283  1.5434
13273TIP3    H261311   0.052   4.679   0.155  0.0094  0.3918 -0.2639
13274TIP3   OH261312   2.947   3.268   3.294 -0.1240  0.3182  0.5922
13274TIP3    H161313   2.996   3.243   3.372 -0.5484  1.0418  1.0947
13274TIP3    H261314   2.885   3.197   3.280 -0.9214  0.7905  1.6630
13275TIP3   OH261315   3.822   2.442  15.790  0.3369  0.7832 -0.3159
13275TIP3    H161316   3.874   2.430  15.711 -0.3145  0.4156 -0.6958
13275TIP3    H261317   3.817   2.537  15.801  1.7646  0.8218  0.1931
13276TIP3   OH261318   3.649   5.256  15.720 -0.3821  0.1154 -0.2544
13276TIP3    H161319   3.737   5.219  15.708 -0.8040 -1.1344  0.3359
13276TIP3    H261320   3.655   5.344  15.683  1.5761  0.6778  1.2041
13277TIP3   OH261321   0.265   2.960   3.320  0.1116 -0.1070 -0.6352
13277TIP3    H161322   0.356   2.973   3.347  0.2591 -0.2709 -1.0433
13277TIP3    H261323   0.272   2.921   3.233 -0.3293 -1.3500 -0.1456
13278TIP3   OH261324   1.744   0.631   0.282 -0.1662 -0.0062 -0.0678
13278TIP3    H161325   1.749   0.680   0.364 -0.7214 -1.8451  1.1170
13278TIP3    H261326   1.663   0.581   0.288  0.4432 -1.1983 -1.1318
13279TIP3   OH261327   3.717   1.398   4.470 -0.0065  0.4443 -0.2296
13279TIP3    H161328   3.740   1.450   4.547  2.9276  0.1880 -0.7929
13279TIP3    H261329   3.672   1.322   4.505  0.4004  0.8067  1.1488
13280TIP3   OH261330   1.013   5.093   5.798  0.0518 -0.0761 -0.1785
13280TIP3    H161331   0.999   5.096   5.893  1.1153 -1.5632  0.0618
13280TIP3    H261332   1.058   5.176   5.779 -0.5017  0.4125  0.5319
13281TIP3   OH261333   6.590   2.082   2.178 -0.2825 -0.0080 -0.2069
13281TIP3    H161334   6.597   2.089   2.273 -1.0726 -1.0950 -0.0535
13281TIP3    H261335   6.573   2.172   2.149 -0.5486  0.2550  0.7243
13282TIP3   OH261336   6.436   5.922   0.685  0.6067 -0.0168 -0.6001
13282TIP3    H161337   6.443   5.840   0.635  0.6548 -0.2186 -0.2605
13282TIP3    H261338   6.510   5.919   0.746 -1.1084 -1.1846  1.5682
13283TIP3   OH261339   0.871   0.212   4.616  0.0949 -0.4486 -0.1034
13283TIP3    H161340   0.854   0.149   4.686  0.8081 -0.0322  0.4545
13283TIP3    H261341   0.848   0.297   4.652 -1.9227 -0.4514 -1.2242
13284TIP3   OH261342   4.467   3.800   2.596  0.4089  0.6119  0.1077
13284TIP3    H161343   4.511   3.721   2.564 -0.5386  0.2050 -0.2180
13284TIP3    H261344   4.375   3.786   2.576  0.0046  1.0813  1.5275
13285TIP3   OH261345   3.963   5.988   1.716 -0.0485 -0.0101  0.1075
13285TIP3    H161346   3.939   6.064   1.768  1.0452 -0.5317  1.4198
13285TIP3    H261347   4.047   6.011   1.677 -0.9096  0.4354 -1.6305
13286TIP3   OH261348   4.252   5.493   0.752 -0.2231 -0.3725  0.3429
13286TIP3    H161349   4.185   5.560   0.764 -0.7291 -0.2782 -2.2844
13286TIP3    H261350   4.210   5.426   0.698  1.0823 -1.4913  0.6496
13287TIP3   OH261351   4.657   0.450  15.854  0.2985 -0.0265 -0.3791
13287TIP3    H161352   4.659   0.490  15.941 -1.5021 -0.7085  0.0161
13287TIP3    H261353   4.651   0.524  15.794  2.3320  0.4925 -0.0160
13288TIP3   OH261354   1.640   6.027  10.537 -0.0744  0.2343  1.3693
13288TIP3    H161355   1.585   5.964  10.583 -0.7374 -0.1650  0.0843
13288TIP3    H261356   1.729   5.993  10.547 -0.3604 -0.5625  1.2295
13289TIP3   OH261357   3.085   6.422   2.117 -0.5367  0.4291  0.2620
13289TIP3    H161358   3.169   6.440   2.076 -0.8245  0.8762 -0.1436
13289TIP3    H261359   3.099   6.341   2.165  0.3469  0.9068  0.8465
13290TIP3   OH261360   3.106   0.192  13.294  0.2261 -0.6963 -0.1437
13290TIP3    H161361   3.086   0.282  13.268 -0.0683 -0.7098  0.0260
13290TIP3    H261362   3.038   0.170  13.358  1.4575 -0.3480  1.3445
13291TIP3   OH261363   2.748   6.001  11.900 -0.6677 -0.6863  0.8138
13291TIP3    H161364   2.824   5.944  11.914 -0.6594 -0.6388  0.9709
13291TIP3    H261365   2.786   6.089  11.894 -0.7113 -0.6592  0.9218
13292TIP3   OH261366   2.909   3.745  13.418  0.8363  0.1139  0.2973
13292TIP3    H161367   2.817   3.752  13.394  0.6445  2.4740  1.4101
13292TIP3    H261368   2.956   3.769  13.339  0.4953 -0.4969 -0.0996
13293TIP3   OH261369   3.775   2.058   2.616  0.6153 -0.2375 -0.5682
13293TIP3    H161370   3.694   2.008   2.627  0.3714  0.0195 -1.1608
13293TIP3    H261371   3.755   2.121   2.547  2.0489 -1.7315 -2.4743
13294TIP3   OH261372   4.129   4.529  14.591 -0.0747 -0.7159  0.4351
13294TIP3    H161373   4.054   4.584  14.566 -0.1088 -0.3590  1.2764
13294TIP3    H261374   4.100   4.440  14.575  0.8625 -0.5180 -3.4500
13295TIP3   OH261375   3.372   6.611   0.653  0.4008 -0.3534 -0.1554
13295TIP3    H161376   3.297   6.668   0.671  0.0096 -1.3204  1.5008
13295TIP3    H261377   3.439   6.639   0.716 -0.2276 -2.4447  1.5449
13296TIP3   OH261378   1.234   4.132   4.421 -0.0728 -0.0840  0.4236
13296TIP3    H161379   1.145   4.107   4.445 -0.5817  1.5445  0.3353
13296TIP3    H261380   1.275   4.050   4.395 -1.2021 -1.0381  1.4999
13297TIP3   OH261381   5.346   3.455   2.723  0.7550  0.5044  0.2358
13297TIP3    H161382   5.429   3.486   2.686  0.5092  0.0905 -0.6884
13297TIP3    H261383   5.282   3.471   2.654  0.5669 -1.8351 -0.2170
13298TIP3   OH261384   4.214   6.812  16.359 -0.6532  0.0463  0.3210
13298TIP3    H161385   4.283   6.784  16.418  0.2437  1.5126  0.0131
13298TIP3    H261386   4.202   6.739  16.299 -0.4843 -0.8311  1.3293
13299TIP3   OH261387   2.485   4.363  15.433  0.1028 -0.6479  0.2409
13299TIP3    H161388   2.497   4.324  15.520  1.1289 -0.5158  0.1784
13299TIP3    H261389   2.416   4.429  15.445 -1.4987 -2.2771  0.3969
13300TIP3   OH261390   0.502   6.526  15.349 -0.2497  0.5528 -0.7667
13300TIP3    H161391   0.527   6.618  15.345 -2.8774  1.3870  0.0024
13300TIP3    H261392   0.457   6.509  15.267 -0.7427  0.3081 -0.4556
13301TIP3   OH261393   0.255   1.253   4.675 -0.4988  0.0056  0.3024
13301TIP3    H161394   0.172   1.207   4.685 -0.7329  0.5756  0.9988
13301TIP3    H261395   0.318   1.184   4.653 -1.1875 -0.4007 -0.4373
13302TIP3   OH261396   5.491   3.225  17.020 -0.0063  0.4979 -0.3025
13302TIP3    H161397   5.439   3.302  17.000  0.8729  1.2008  0.0560
13302TIP3    H261398   5.432   3.168  17.069  0.2342  2.3469  2.3001
13303TIP3   OH261399   5.064   5.941   5.906  0.3889 -0.2758 -0.3467
13303TIP3    H161400   4.985   5.954   5.958  0.1780  3.3920 -1.3662
13303TIP3    H261401   5.040   5.970   5.818  2.8365  0.9586 -0.6742
13304TIP3   OH261402   3.143   3.606  13.860  0.3777  0.0598 -0.0130
13304TIP3    H161403   3.222   3.636  13.905  1.7221 -4.1364  0.9470
13304TIP3    H261404   3.077   3.599  13.929  0.8894 -1.5411  0.3511
13305TIP3   OH261405   3.151   4.073   0.879  0.2943  0.1036 -0.2698
13305TIP3    H161406   3.155   4.137   0.808  0.0782  1.3025  0.7632
13305TIP3    H261407   3.241   4.066   0.911  0.4376 -0.6234 -0.7936
13306TIP3   OH261408   4.500   4.319   2.954 -0.1714  0.1375 -0.0617
13306TIP3    H161409   4.414   4.279   2.936  0.1560 -0.8478  0.4894
13306TIP3    H261410   4.563   4.259   2.913  0.3296  0.0559  0.8068
13307TIP3   OH261411   5.412   0.646   4.446  0.0097 -0.0221 -0.1526
13307TIP3    H161412   5.499   0.664   4.409  0.4853 -0.6286  0.6285
13307TIP3    H261413   5.376   0.576   4.391  0.0097  0.2359 -0.4837
13308TIP3   OH261414   4.772   4.895   4.072  0.6267 -0.8187  0.2250
13308TIP3    H161415   4.817   4.973   4.104 -0.1938 -0.2240 -0.0567
13308TIP3    H261416   4.776   4.903   3.976 -2.8079  0.9120  0.0856
13309TIP3   OH261417   5.844   1.692   4.510 -0.2647 -0.3783  0.1001
13309TIP3    H161418   5.886   1.611   4.539  1.0819 -0.1064 -1.0093
13309TIP3    H261419   5.812   1.673   4.422 -0.2411  0.1783 -0.0358
13310TIP3   OH261420   2.004   1.268  14.392 -0.3374  0.4516 -0.8678
13310TIP3    H161421   1.970   1.357  14.398 -0.8787  0.1947  0.2117
13310TIP3    H261422   1.930   1.215  14.363 -0.6588  0.0309  0.6113
13311TIP3   OH261423   3.098   4.491   0.584 -0.0314 -0.2533 -0.6190
13311TIP3    H161424   3.039   4.533   0.521  1.1099  0.9592 -0.9240
13311TIP3    H261425   3.171   4.552   0.592  0.8644 -1.4110  0.2650
13312TIP3   OH261426   3.205   0.137   1.174 -0.2176  0.3559 -0.3694
13312TIP3    H161427   3.252   0.056   1.150  2.2352  1.5705  0.0129
13312TIP3    H261428   3.203   0.135   1.269  0.5414  1.0727 -0.3267
13313TIP3   OH261429   0.054   0.053   3.138 -0.1100  0.3384 -0.5946
13313TIP3    H161430   0.044   0.091   3.225  1.1951  1.9195 -1.0927
13313TIP3    H261431   0.148   0.056   3.121 -0.0999 -1.8051 -1.2896
13314TIP3   OH261432   1.662   2.436  12.482  0.5254  0.2047  0.6729
13314TIP3    H161433   1.720   2.475  12.548 -0.4524  1.0243  1.0917
13314TIP3    H261434   1.720   2.392  12.421  1.4802 -0.3478  1.9395
13315TIP3   OH261435   1.036   0.389  14.680  0.5668 -0.2497  0.1104
13315TIP3    H161436   1.107   0.416  14.621  2.0167 -1.4666  1.2133
13315TIP3    H261437   1.081   0.363  14.761 -1.3149  0.9570  1.6236
13316TIP3   OH261438   1.053   1.406   3.825 -0.0119 -0.0466  0.1144
13316TIP3    H161439   1.078   1.366   3.908  0.9437 -0.3320 -0.2899
13316TIP3    H261440   0.995   1.477   3.849 -0.0358 -0.3471  1.0020
13317TIP3   OH261441   1.029   1.151  16.116  0.4543  0.2969  0.0773
13317TIP3    H161442   1.113   1.106  16.126  0.2823  0.2971  1.8657
13317TIP3    H261443   1.038   1.200  16.034  3.1710  2.2787  1.3948
13318TIP3   OH261444   1.172   0.036  11.017 -0.0786 -0.0796  0.1827
13318TIP3    H161445   1.161   0.102  11.085 -2.4375 -0.9623  0.7408
13318TIP3    H261446   1.119   0.068  10.944 -0.4460 -0.8605  0.0945
13319TIP3   OH261447   4.669   1.089   4.643  0.1198  0.5599 -0.4449
13319TIP3    H161448   4.726   1.046   4.580  0.3542 -0.6314  0.5289
13319TIP3    H261449   4.706   1.065   4.728 -0.5143  1.6581  0.1615
13320TIP3   OH261450   0.342   0.575   4.869 -0.7270  0.7187 -0.0588
13320TIP3    H161451   0.303   0.609   4.949 -0.8700  1.0746 -0.2730
13320TIP3    H261452   0.270   0.573   4.806 -0.5271  0.8587 -0.2988
13321TIP3   OH261453   5.955   0.594   1.115  0.5354 -0.0206  0.1195
13321TIP3    H161454   5.945   0.525   1.181  0.8942 -0.1706  0.0166
13321TIP3    H261455   5.983   0.671   1.165 -0.6988  0.3017  0.3613
13322TIP3   OH261456   2.533   6.564   3.388 -0.1503 -0.3038 -0.3396
13322TIP3    H161457   2.485   6.639   3.353 -1.0454 -0.5384  0.3510
13322TIP3    H261458   2.585   6.599   3.459 -1.5836 -0.5288  0.8691
13323TIP3   OH261459   4.896   4.894   1.987 -0.0950 -0.1705 -0.4626
13323TIP3    H161460   4.862   4.978   1.956 -2.9012 -1.0939 -0.2233
13323TIP3    H261461   4.871   4.832   1.918 -1.3125 -1.3331  0.9636
13324TIP3   OH261462   1.789   4.725  11.546 -0.0599 -0.2952 -0.3320
13324TIP3    H161463   1.856   4.684  11.493  1.5248  0.6092  0.8866
13324TIP3    H261464   1.712   4.730  11.489  0.7761 -1.6724 -1.6399
13325TIP3   OH261465   6.267   2.216   5.509  0.2729 -0.5643  0.1625
13325TIP3    H161466   6.340   2.203   5.448 -0.0470  0.9848 -0.5967
13325TIP3    H261467   6.298   2.178   5.591  2.2375  0.6324  0.0496
13326TIP3   OH261468   3.738   3.499  11.358 -0.0385 -0.0808 -0.8000
13326TIP3    H161469   3.718   3.519  11.450 -0.1481 -0.7566 -0.6707
13326TIP3    H261470   3.676   3.553  11.308 -1.7872 -1.6071 -0.4186
13327TIP3   OH261471   0.680   3.961  13.178  0.1675  0.0440  0.4250
13327TIP3    H161472   0.589   3.937  13.161  0.7816 -3.7387  1.4470
13327TIP3    H261473   0.725   3.947  13.094  0.1623 -0.4009  0.4931
13328TIP3   OH261474   4.913   5.308   3.232  0.8959  0.8075  0.5634
13328TIP3    H161475   4.961   5.363   3.169  0.0778  0.2749 -0.5566
13328TIP3    H261476   4.953   5.222   3.222  0.7708  0.7234  0.7944
13329TIP3   OH261477   4.453   3.305   1.885  0.0548  0.0902 -0.3754
13329TIP3    H161478   4.459   3.353   1.968 -1.0165  1.6810 -1.1567
13329TIP3    H261479   4.360   3.287   1.875  0.4766 -2.7230  0.1281
13330TIP3   OH261480   4.749   5.595  16.397 -0.2352 -0.0768 -0.3372
13330TIP3    H161481   4.663   5.630  16.419 -0.1308 -0.3560  0.5668
13330TIP3    H261482   4.811   5.662  16.427 -0.1495  0.5164 -1.7628
13331TIP3   OH261483   0.970   3.061  13.404  0.1417  0.1471  0.2413
13331TIP3    H161484   1.018   3.003  13.463  0.1978  0.3938  0.4381
13331TIP3    H261485   0.974   3.017  13.319 -1.8616 -1.3754  0.8495
13332TIP3   OH261486   2.393   3.783   2.279 -0.3896 -0.0509  0.2387
13332TIP3    H161487   2.427   3.864   2.241  0.3785 -0.1235  0.7449
13332TIP3    H261488   2.471   3.733   2.303 -0.7904  0.4226  2.8587
13333TIP3   OH261489   4.225   0.976   5.412 -0.0219  0.0692 -0.5379
13333TIP3    H161490   4.130   0.965   5.416 -0.3954  2.8428  1.2565
13333TIP3    H261491   4.238   1.071   5.409  2.7173 -0.2488 -1.8505
13334TIP3   OH261492   5.958   1.500   4.855  0.0687 -0.2035  0.7160
13334TIP3    H161493   5.990   1.467   4.939  0.9003 -0.5177  0.2797
13334TIP3    H261494   5.953   1.595   4.867  0.0798 -0.2564  1.1546
13335TIP3   OH261495   2.844   0.355   4.726 -0.4707  0.6579  0.2386
13335TIP3    H161496   2.909   0.303   4.772 -1.1370 -0.1464  0.3016
13335TIP3    H261497   2.766   0.352   4.782 -0.9390  0.5900 -0.3989
13336TIP3   OH261498   0.761   3.599   2.053  0.1221 -0.3237 -0.6219
13336TIP3    H161499   0.667   3.609   2.068  0.3592  0.1198  0.6630
13336TIP3    H261500   0.803   3.648   2.124  1.3301 -1.3921 -0.5475
13337TIP3   OH261501   3.375   2.349   3.274  0.1136 -0.0887  0.1336
13337TIP3    H161502   3.464   2.329   3.303  0.4420 -0.4253 -1.0554
13337TIP3    H261503   3.387   2.400   3.194 -0.7678  0.7233  0.4982
13338TIP3   OH261504   5.222   1.843   2.598 -0.0630  0.3746  0.2652
13338TIP3    H161505   5.259   1.898   2.528 -1.2672  0.6688 -0.1763
13338TIP3    H261506   5.294   1.788   2.626  0.6088  0.6643 -0.8171
13339TIP3   OH261507   2.923   5.361  16.964 -0.2106  0.1270 -0.2135
13339TIP3    H161508   2.969   5.324  16.889 -0.7229 -0.6706 -0.1525
13339TIP3    H261509   2.917   5.288  17.026 -0.7314  0.4798  0.1553
13340TIP3   OH261510   0.610   3.491  12.208 -0.4152  0.1958 -0.2135
13340TIP3    H161511   0.654   3.501  12.124  0.3863  0.8627  0.2612
13340TIP3    H261512   0.681   3.482  12.271 -0.8504  2.6865  0.7579
13341TIP3   OH261513   0.634   5.720  14.573 -0.6093  0.4062  0.1452
13341TIP3    H161514   0.661   5.812  14.573  1.1252 -0.0620  0.9969
13341TIP3    H261515   0.706   5.675  14.530 -1.9832 -0.4534 -1.3570
13342TIP3   OH261516   6.399   6.814   3.547 -0.3535  0.2828  0.3922
13342TIP3    H161517   6.477   6.773   3.510  0.7242  0.7316  2.0602
13342TIP3    H261518   6.329   6.751   3.530 -0.0823  0.6403 -2.7156
13343TIP3   OH261519   1.689   2.402  11.662  0.3414 -0.4301 -0.8307
13343TIP3    H161520   1.647   2.483  11.634  0.4378  0.3371  1.0846
13343TIP3    H261521   1.626   2.333  11.640 -0.8252  0.4311 -0.2531
13344TIP3   OH261522   5.177   5.304   4.087 -0.5308 -0.3635 -0.2156
13344TIP3    H161523   5.270   5.320   4.068 -0.2695 -0.2149  1.0894
13344TIP3    H261524   5.130   5.365   4.029  0.2144  0.0611 -0.3899
13345TIP3   OH261525   2.396   0.560  12.119 -0.4708  0.3179 -0.1721
13345TIP3    H161526   2.385   0.655  12.130 -3.0531  0.0948 -0.2051
13345TIP3    H261527   2.306   0.526  12.117  0.4010 -2.2874  1.0229
13346TIP3   OH261528   6.104   3.813   0.385  0.2560  0.4277  0.4537
13346TIP3    H161529   6.134   3.723   0.370  1.0109  0.4634  1.6352
13346TIP3    H261530   6.149   3.840   0.465 -1.1050  1.3395  0.9485
13347TIP3   OH261531   0.261   3.784  10.996 -0.1816 -0.5486  0.0287
13347TIP3    H161532   0.232   3.874  10.982  0.6137  0.4027  3.5422
13347TIP3    H261533   0.338   3.775  10.940  0.2637  1.2915  0.2823
13348TIP3   OH261534   4.241   1.868   0.578 -0.0717 -0.0491 -0.5341
13348TIP3    H161535   4.302   1.865   0.652  0.8289 -0.0864 -1.2612
13348TIP3    H261536   4.278   1.809   0.514 -0.0480  1.0810 -1.6070
13349TIP3   OH261537   0.759   0.311   3.059  0.1698 -0.2290  0.3002
13349TIP3    H161538   0.688   0.248   3.070 -1.2134  0.7067 -2.3592
13349TIP3    H261539   0.810   0.277   2.986 -0.6183  1.6342 -1.1995
13350TIP3   OH261540   5.213   6.590  11.477  0.1056  0.1954 -0.0379
13350TIP3    H161541   5.157   6.512  11.484 -4.0004  2.8367  0.3329
13350TIP3    H261542   5.216   6.609  11.384 -1.5416  1.1665  0.0647
13351TIP3   OH261543   2.405   6.223  15.262  0.4024  0.1324  0.8006
13351TIP3    H161544   2.498   6.241  15.244  0.4682 -0.5428  0.4187
13351TIP3    H261545   2.398   6.127  15.259 -0.8935  0.1891 -2.4766
13352TIP3   OH261546   2.460   5.602   3.370  0.1336  0.0000 -0.6816
13352TIP3    H161547   2.492   5.648   3.448  0.7581  1.6103 -1.8168
13352TIP3    H261548   2.365   5.600   3.382  0.1065  1.3331 -0.4062
13353TIP3   OH261549   1.540   6.077  16.462 -0.5976  0.3950 -0.2848
13353TIP3    H161550   1.456   6.121  16.472 -0.1401  1.5453 -1.2142
13353TIP3    H261551   1.604   6.140  16.496 -0.0850 -0.3474  0.1473
13354TIP3   OH261552   6.341   1.964   2.174  0.5914 -0.8204  0.2157
13354TIP3    H161553   6.356   1.899   2.242  2.1401 -0.6407  0.0903
13354TIP3    H261554   6.429   1.986   2.142  0.0058  0.2635 -0.7424
13355TIP3   OH261555   0.547   6.174   1.395 -0.7275  0.0810  0.3673
13355TIP3    H161556   0.564   6.233   1.322 -1.2810 -2.7469 -2.2269
13355TIP3    H261557   0.633   6.147   1.425 -0.4545 -1.1041 -1.3718
13356TIP3   OH261558   0.891   2.103   4.235 -0.0406  0.7286 -0.1576
13356TIP3    H161559   0.953   2.118   4.163 -1.6777  0.3518 -1.7219
13356TIP3    H261560   0.824   2.170   4.223 -0.8917 -0.0054  0.3469
13357TIP3   OH261561   3.330   0.104  14.345 -0.2129 -0.4900 -0.0640
13357TIP3    H161562   3.400   0.041  14.327 -0.0101 -0.8398  1.7913
13357TIP3    H261563   3.266   0.055  14.397 -1.8375 -0.1501 -1.6360
13358TIP3   OH261564   2.741   2.378   0.975  0.1830  0.3007  0.0888
13358TIP3    H161565   2.730   2.319   1.050  2.6274 -1.6282 -0.9209
13358TIP3    H261566   2.802   2.445   1.006  1.6760 -0.8362 -0.2512
13359TIP3   OH261567   0.523   5.168   6.715 -0.8584  0.8026  0.2261
13359TIP3    H161568   0.447   5.123   6.678 -0.0320  1.0154 -1.8548
13359TIP3    H261569   0.487   5.249   6.751 -1.8200  0.1990  0.6882
13360TIP3   OH261570   4.114   3.799  15.020 -0.0429  0.1462 -0.1980
13360TIP3    H161571   4.065   3.882  15.019 -1.7887 -0.8073  0.9936
13360TIP3    H261572   4.076   3.748  14.948 -0.0030 -0.1761  0.0082
13361TIP3   OH261573   0.307   4.332  14.316  0.4679  0.1712 -0.2495
13361TIP3    H161574   0.232   4.331  14.376  0.1543  0.0957 -0.6371
13361TIP3    H261575   0.383   4.324  14.373  0.3219  2.4633  0.3329
13362TIP3   OH261576   5.952   1.530  11.497 -0.0736 -0.0236 -0.0012
13362TIP3    H161577   6.019   1.598  11.498 -0.4355  0.3377  0.6772
13362TIP3    H261578   5.881   1.568  11.445 -0.1612  0.0051  0.1381
13363TIP3   OH261579   5.065   1.457  10.417  0.3358  0.2675  0.2294
13363TIP3    H161580   4.974   1.463  10.448  0.2365  1.3258 -0.2339
13363TIP3    H261581   5.099   1.546  10.423  1.3973 -0.1439  0.5144
13364TIP3   OH261582   5.785   6.466   6.107  0.0596  0.4880  0.3429
13364TIP3    H161583   5.820   6.501   6.188  0.4211 -0.0381  0.4214
13364TIP3    H261584   5.715   6.526   6.082  0.5529  1.1534  0.5610
13365TIP3   OH261585   2.027   3.141  13.985 -0.6652 -0.2332 -0.1562
13365TIP3    H161586   1.960   3.074  13.967 -0.4643 -0.2404 -0.8697
13365TIP3    H261587   2.110   3.096  13.970 -0.4512 -0.4544  1.4758
13366TIP3   OH261588   2.494   3.832  17.030  0.3961  0.5709 -0.1888
13366TIP3    H161589   2.579   3.874  17.037  1.0949 -0.9670  1.4029
13366TIP3    H261590   2.512   3.739  17.045 -1.4631  0.1124 -0.5748
13367TIP3   OH261591   6.638   4.313   5.049 -0.1581 -0.4226 -0.1911
13367TIP3    H161592   6.622   4.218   5.049 -0.6277 -0.3666  0.8477
13367TIP3    H261593   6.674   4.331   5.136 -3.1773  0.7847  0.9578
13368TIP3   OH261594   5.672   0.285   3.955 -0.3567 -0.1715 -0.0115
13368TIP3    H161595   5.739   0.221   3.931 -0.6854 -0.9342  1.0300
13368TIP3    H261596   5.719   0.351   4.005 -0.4976 -1.2476  1.6412
13369TIP3   OH261597   5.284   6.205  13.799  0.5287 -0.1538  0.6174
13369TIP3    H161598   5.379   6.200  13.804  0.6996 -0.6781 -1.7922
13369TIP3    H261599   5.257   6.124  13.755 -0.9465  0.3175  0.5818
13370TIP3   OH261600   4.745   3.586   2.255  0.3999  0.1547 -0.0637
13370TIP3    H161601   4.729   3.596   2.349 -0.6163 -1.7001  0.0096
13370TIP3    H261602   4.832   3.545   2.250  0.8844  1.1552  0.0092
13371TIP3   OH261603   4.544   3.511  16.548  0.8144 -0.4230  0.1528
13371TIP3    H161604   4.470   3.488  16.492  1.0287 -0.9579  0.0908
13371TIP3    H261605   4.619   3.512  16.488  0.8505  0.1906  0.2012
13372TIP3   OH261606   3.301   6.683   2.417 -0.1045 -0.0238 -0.4675
13372TIP3    H161607   3.323   6.730   2.497  0.0310 -2.5573  1.0819
13372TIP3    H261608   3.206   6.672   2.420 -0.1789  0.3877 -0.9971
13373TIP3   OH261609   4.554   1.423   4.984 -0.3806 -0.0104 -0.1221
13373TIP3    H161610   4.466   1.452   5.009 -0.3695 -0.0002 -0.0948
13373TIP3    H261611   4.551   1.417   4.888 -0.2948  0.3706 -0.1524
13374TIP3   OH261612   5.229   6.829  14.452  0.4344  0.4615 -0.1622
13374TIP3    H161613   5.191   6.888  14.518  0.2099  0.3271 -0.1695
13374TIP3    H261614   5.178   6.846  14.373 -0.1926 -0.3398  0.0548
13375TIP3   OH261615   1.887   4.711  14.867 -0.9832 -0.7079 -0.1487
13375TIP3    H161616   1.913   4.801  14.888 -0.1663 -0.7325 -0.9918
13375TIP3    H261617   1.970   4.664  14.854 -1.4128 -1.1755 -1.3494
13376TIP3   OH261618   5.040   2.918  11.291  0.3063 -0.3210 -0.2801
13376TIP3    H161619   5.097   2.877  11.357  1.0083 -0.1291 -0.7530
13376TIP3    H261620   5.100   2.943  11.220  0.0657  2.3774  0.3749
13377TIP3   OH261621   2.365   1.398  11.100 -0.5814  0.2275 -0.3017
13377TIP3    H161622   2.355   1.458  11.174  0.0356  0.0064 -0.0378
13377TIP3    H261623   2.415   1.325  11.134 -0.6372 -0.0691 -0.8361
13378TIP3   OH261624   4.555   6.758   5.380 -0.1727 -0.4074 -0.4481
13378TIP3    H161625   4.564   6.852   5.389  0.8841  0.0300 -4.1128
13378TIP3    H261626   4.464   6.739   5.402 -1.2856  2.0377 -2.4398
13379TIP3   OH261627   0.343   6.289   5.091  0.2981  0.3233 -0.0463
13379TIP3    H161628   0.349   6.373   5.046  0.7463  1.7965  2.5606
13379TIP3    H261629   0.261   6.294   5.140  0.2897 -0.7826  0.0665
13380TIP3   OH261630   2.200   2.569   6.209  0.8373  0.1896  0.5934
13380TIP3    H161631   2.155   2.502   6.261  0.9442 -0.7185 -0.4654
13380TIP3    H261632   2.177   2.652   6.252 -1.1638 -0.3186  0.5645
13381TIP3   OH261633   0.078   5.732  12.420  0.7198 -0.2525 -0.9451
13381TIP3    H161634   0.105   5.653  12.373  2.9500 -0.3824  0.4144
13381TIP3    H261635   0.136   5.801  12.387  2.5629 -0.4073  1.6307
13382TIP3   OH261636   6.013   5.171  11.056 -0.1659 -0.1075 -0.5111
13382TIP3    H161637   5.946   5.224  11.012 -0.1999  0.7466  0.5151
13382TIP3    H261638   5.995   5.081  11.028 -0.5270  0.3376 -1.7649
13383TIP3   OH261639   4.147   6.284  11.732  0.0220  0.4444 -0.0440
13383TIP3    H161640   4.067   6.235  11.713 -0.2265  0.0308  1.8883
13383TIP3    H261641   4.160   6.274  11.826  1.4170  1.9313 -0.0286
13384TIP3   OH261642   3.040   3.398   1.009  0.4522 -0.1437  0.1446
13384TIP3    H161643   3.020   3.320   0.956  1.5060 -1.7163  1.9646
13384TIP3    H261644   3.124   3.428   0.976  0.6411 -0.5288  0.2718
13385TIP3   OH261645   1.398   4.920  16.702 -0.2319  0.1162 -0.3553
13385TIP3    H161646   1.335   4.985  16.733  1.3325  0.9728  1.2070
13385TIP3    H261647   1.481   4.969  16.696  0.8905 -1.6075  0.4221
13386TIP3   OH261648   3.712   6.258   2.888  0.1563  0.1786  0.2798
13386TIP3    H161649   3.694   6.320   2.818  0.5469 -0.3781 -0.3291
13386TIP3    H261650   3.649   6.279   2.957 -1.0882 -0.1031 -0.7553
13387TIP3   OH261651   3.691   6.788  13.081  0.4386 -1.0199 -0.3478
13387TIP3    H161652   3.626   6.809  13.148 -0.0044 -1.7386 -0.5527
13387TIP3    H261653   3.694   6.867  13.026 -1.4280 -1.5399 -1.2808
13388TIP3   OH261654   3.789   0.912  13.714  0.6797 -0.1325 -0.3674
13388TIP3    H161655   3.814   0.824  13.740  0.6530 -0.5204 -1.5891
13388TIP3    H261656   3.821   0.968  13.784 -1.1419 -1.2964  1.5013
13389TIP3   OH261657   4.673   4.861  11.615 -0.6655 -0.0537 -0.0657
13389TIP3    H161658   4.624   4.780  11.609 -1.4652  0.4917 -1.1484
13389TIP3    H261659   4.717   4.870  11.530 -1.3407  1.0893 -0.3257
13390TIP3   OH261660   4.723   2.185   4.345 -0.7622  0.0058  0.0239
13390TIP3    H161661   4.806   2.214   4.307 -0.6719  0.5752  0.6488
13390TIP3    H261662   4.713   2.094   4.315 -0.7102  0.4364 -1.3925
13391TIP3   OH261663   1.791   0.145   6.186 -0.4244 -0.1236 -0.0152
13391TIP3    H161664   1.853   0.217   6.191  0.6961 -1.1221  0.9547
13391TIP3    H261665   1.730   0.161   6.259 -0.7609  0.3472 -0.3923
13392TIP3   OH261666   4.320   4.351   5.026 -0.2550  0.3523  0.0326
13392TIP3    H161667   4.408   4.322   5.050 -0.7598 -1.7043 -0.3616
13392TIP3    H261668   4.309   4.435   5.071  0.9572 -0.5662  2.2031
13393TIP3   OH261669   1.763   3.875  13.450  0.1826  0.2623  0.3804
13393TIP3    H161670   1.756   3.939  13.379 -0.8444 -0.4108 -0.1508
13393TIP3    H261671   1.794   3.926  13.525 -0.1910  1.3031 -0.1443
13394TIP3   OH261672   0.205   4.253  14.077  0.4417  0.0910 -0.1154
13394TIP3    H161673   0.282   4.221  14.030  0.1487  1.0686 -1.3162
13394TIP3    H261674   0.240   4.293  14.156  1.0368 -0.6908  0.0323
13395TIP3   OH261675   1.987   4.050   6.549  0.1649 -0.1409  0.0319
13395TIP3    H161676   2.024   3.978   6.498 -1.2461 -2.1700  1.6855
13395TIP3    H261677   2.050   4.121   6.538  0.6042 -0.8788 -3.3524
13396TIP3   OH261678   5.458   0.785   2.270 -0.0256  0.3275  0.4899
13396TIP3    H161679   5.449   0.871   2.311 -0.2894  0.6039 -0.1404
13396TIP3    H261680   5.384   0.735   2.303 -1.0976  1.0150 -0.7687
13397TIP3   OH261681   6.129   2.803   4.810  0.4405  0.4562 -0.1108
13397TIP3    H161682   6.208   2.750   4.807 -0.0790 -0.5082  1.6020
13397TIP3    H261683   6.131   2.844   4.896 -1.3214 -0.3094  0.3571
13398TIP3   OH261684   3.331   0.942   4.514 -0.1205  0.3760 -0.1501
13398TIP3    H161685   3.265   0.906   4.456 -1.7015  0.0607  1.7223
13398TIP3    H261686   3.376   1.009   4.462 -2.5380  1.2615 -1.2219
13399TIP3   OH261687   6.782   5.547  12.279 -0.2632 -0.4802  0.0649
13399TIP3    H161688   6.780   5.639  12.304  1.1173 -0.7220  1.1799
13399TIP3    H261689   6.702   5.534  12.227 -0.0876  1.5099 -0.7664
13400TIP3   OH261690   2.724   0.586   6.396  0.3827 -0.4046  0.1836
13400TIP3    H161691   2.785   0.517   6.369  0.5676 -0.8023  1.5557
13400TIP3    H261692   2.640   0.557   6.363  0.5888 -0.9198  0.0962
13401TIP3   OH261693   0.806   2.639  14.113  0.1363 -0.1675  0.2587
13401TIP3    H161694   0.838   2.708  14.172 -0.3149 -0.0693  0.3887
13401TIP3    H261695   0.716   2.664  14.093  0.2291 -0.2919 -0.3445
13402TIP3   OH261696   6.057   5.010  14.635 -0.1284  0.3409  0.1619
13402TIP3    H161697   5.986   5.074  14.639  0.4836  1.0153  0.5988
13402TIP3    H261698   6.093   5.020  14.546 -1.6535 -1.2255 -0.6835
13403TIP3   OH261699   4.280   2.485  13.182 -0.4567 -0.8631  0.1079
13403TIP3    H161700   4.190   2.466  13.154 -0.0653 -0.8537 -1.2430
13403TIP3    H261701   4.335   2.445  13.114  0.5199  0.2455  0.2185
13404TIP3   OH261702   3.178   0.251   3.143  0.3433 -0.2634 -0.9576
13404TIP3    H161703   3.107   0.192   3.170  0.9519  0.3038  2.4028
13404TIP3    H261704   3.135   0.332   3.117 -0.3334 -0.1171  0.5130
13405TIP3   OH261705   2.755   0.811   2.188  0.0401 -0.0843 -0.2229
13405TIP3    H161706   2.814   0.790   2.116 -2.0580 -0.1366 -2.0054
13405TIP3    H261707   2.751   0.907   2.189 -1.0487 -0.1038 -1.1695
13406TIP3   OH261708   3.218   1.055  12.305 -0.1799 -0.3988  0.3242
13406TIP3    H161709   3.290   1.091  12.357  0.4774  0.5372 -1.1438
13406TIP3    H261710   3.139   1.095  12.340  0.3020  0.6095  0.2902
13407TIP3   OH261711   3.817   6.474  16.989  0.2702 -0.1011  0.2851
13407TIP3    H161712   3.865   6.424  16.923 -0.1092  0.6075 -0.5384
13407TIP3    H261713   3.725   6.455  16.972  0.1663  0.0571  0.6475
13408TIP3   OH261714   3.144   1.006   0.070 -0.6478  0.4576  0.4945
13408TIP3    H161715   3.174   1.035   0.156 -1.5266  1.0288  0.6241
13408TIP3    H261716   3.198   0.929   0.050 -0.5262  0.2399  1.6073
13409TIP3   OH261717   5.743   1.110  17.032  0.1112 -0.0258  0.7314
13409TIP3    H161718   5.835   1.124  17.011 -0.5100  1.2410 -1.4552
13409TIP3    H261719   5.703   1.082  16.949 -1.5517 -0.0941  1.5094
13410TIP3   OH261720   2.002   5.557  15.821 -0.5398  0.1936  0.8483
13410TIP3    H161721   2.003   5.584  15.913 -1.4082  0.4365  0.7906
13410TIP3    H261722   1.912   5.530  15.805 -0.1492 -0.8574  0.3521
13411TIP3   OH261723   1.080   6.215  10.252  0.1846 -0.2747  0.7929
13411TIP3    H161724   1.150   6.277  10.271  0.8047 -1.1351  1.3716
13411TIP3    H261725   1.035   6.202  10.336 -0.7067  0.2982  0.4212
13412TIP3   OH261726   4.381   4.071  13.182  0.2028 -0.1832  0.2211
13412TIP3    H161727   4.313   4.041  13.122 -0.4710  1.0645  0.3331
13412TIP3    H261728   4.354   4.038  13.268 -1.0883  1.5046  0.5223
13413TIP3   OH261729   3.240   3.914   5.371  0.2806  0.4239  0.1444
13413TIP3    H161730   3.241   3.823   5.343  1.5402  0.2744  0.6481
13413TIP3    H261731   3.280   3.913   5.458 -1.0559  1.2587  0.8135
13414TIP3   OH261732   6.099   0.639  12.856  0.3615  0.0530 -0.9407
13414TIP3    H161733   6.085   0.684  12.940  1.5739  0.0152 -0.7063
13414TIP3    H261734   6.089   0.708  12.790 -1.5130 -0.0828 -0.8750
13415TIP3   OH261735   5.826   5.281  15.229  0.1906 -0.3753 -0.5915
13415TIP3    H161736   5.846   5.257  15.138 -1.2694 -0.4193 -0.9195
13415TIP3    H261737   5.800   5.372  15.225 -3.6563 -1.3435 -0.8957
13416TIP3   OH261738   1.835   4.972   1.508  0.4049  0.0019  0.0838
13416TIP3    H161739   1.829   5.061   1.473  0.8743 -0.3385 -0.8902
13416TIP3    H261740   1.751   4.957   1.551 -0.5921  0.0844 -1.7719
13417TIP3   OH261741   4.518   3.111  15.281 -0.8634  0.3185  0.2987
13417TIP3    H161742   4.466   3.141  15.206 -2.1028 -0.8094  0.6607
13417TIP3    H261743   4.560   3.031  15.250 -2.3504 -0.8383  1.1170
13418TIP3   OH261744   6.112   5.900  15.440 -0.0352  0.1427  0.0846
13418TIP3    H161745   6.091   5.957  15.365 -1.2043  0.2789  0.4946
13418TIP3    H261746   6.073   5.944  15.515 -2.2779 -1.8754  0.2192
13419TIP3   OH261747   4.077   2.074  16.209  0.1715 -0.2027  0.2506
13419TIP3    H161748   4.154   2.131  16.216 -0.0175  0.0478  0.3033
13419TIP3    H261749   4.113   1.985  16.203  0.5097 -0.0011 -0.8757
13420TIP3   OH261750   4.112   2.343   2.399  0.0760  0.3932 -0.1574
13420TIP3    H161751   4.024   2.380   2.398  1.0341  2.8705  0.2914
13420TIP3    H261752   4.163   2.402   2.343  1.6631 -0.4284  0.3715
13421TIP3   OH261753   3.262   6.236  11.414 -0.0644 -0.3045  0.3975
13421TIP3    H161754   3.300   6.322  11.396  1.2495 -0.9187  0.1237
13421TIP3    H261755   3.266   6.190  11.330 -2.3276 -0.0884  0.1092
13422TIP3   OH261756   3.323   0.134  13.451 -0.0858  0.1756 -0.5004
13422TIP3    H161757   3.265   0.139  13.374 -0.3469  0.6125 -0.2742
13422TIP3    H261758   3.297   0.053  13.494 -0.3248  0.2148 -0.5658
13423TIP3   OH261759   0.822   3.633  14.091 -0.2601 -0.3964  0.2458
13423TIP3    H161760   0.836   3.639  13.997  0.0966 -0.6164  0.2833
13423TIP3    H261761   0.903   3.664  14.129 -0.1490 -0.9621  0.4758
13424TIP3   OH261762   0.297   1.755   0.343  0.2998  0.0468 -0.3889
13424TIP3    H161763   0.371   1.811   0.362 -0.1112  0.8572 -1.0663
13424TIP3    H261764   0.335   1.668   0.328  1.1570  0.5250 -1.0999
13425TIP3   OH261765   5.766   4.419  13.940 -0.2748  0.6442 -0.5024
13425TIP3    H161766   5.758   4.477  14.015  0.8826  1.3809 -0.9349
13425TIP3    H261767   5.711   4.343  13.962 -0.5693  1.2032  0.7269
13426TIP3   OH261768   3.774   6.702  11.407 -0.0142  0.0157 -0.8832
13426TIP3    H161769   3.686   6.685  11.439  0.8365  0.3824  2.0048
13426TIP3    H261770   3.764   6.772  11.344 -1.9102 -0.9239 -1.6980
13427TIP3   OH261771   0.169   0.743   5.760  0.1888  0.2653  0.4548
13427TIP3    H161772   0.181   0.674   5.694 -0.3578 -0.0489  0.6800
13427TIP3    H261773   0.080   0.731   5.791 -0.2655  1.7003 -0.2163
13428TIP3   OH261774   6.243   6.580  11.972  0.3303  0.1118 -0.3295
13428TIP3    H161775   6.304   6.652  11.958  1.1780 -0.3381  0.8328
13428TIP3    H261776   6.216   6.553  11.884 -0.4248  2.1598 -0.7720
13429TIP3   OH261777   6.404   3.182  12.522 -0.0632 -0.2261 -0.5598
13429TIP3    H161778   6.457   3.140  12.590  1.3780 -0.2323 -1.6461
13429TIP3    H261779   6.436   3.145  12.440 -0.3850  1.2455 -1.3852
13430TIP3   OH261780   0.839   5.475   3.228  0.4610 -0.1673  0.3911
13430TIP3    H161781   0.924   5.449   3.192 -0.7247 -1.9306 -1.3079
13430TIP3    H261782   0.815   5.402   3.287  0.7247  0.9989  2.0217
13431TIP3   OH261783   5.765   0.290  14.902 -0.0485 -0.1053  0.0945
13431TIP3    H161784   5.767   0.381  14.874 -1.0411 -0.1831 -0.2426
13431TIP3    H261785   5.848   0.278  14.949  0.1454  0.9291  0.0369
13432TIP3   OH261786   3.088   2.151  11.738  0.3819 -0.4594  0.1054
13432TIP3    H161787   3.107   2.212  11.667 -0.4545 -0.1494  0.1391
13432TIP3    H261788   3.167   2.098  11.746  0.8837  0.2095 -0.3398
13433TIP3   OH261789   4.999   0.944  13.736  0.8211 -0.0490  0.1059
13433TIP3    H161790   4.942   0.867  13.730  0.4779  0.2670 -0.7518
13433TIP3    H261791   5.074   0.924  13.680  1.2758 -0.2157  0.7631
13434TIP3   OH261792   2.530   1.048  14.761 -0.3453 -0.0024 -0.0952
13434TIP3    H161793   2.506   1.125  14.813 -0.4142 -0.1932  0.1510
13434TIP3    H261794   2.598   1.081  14.701  0.5328 -0.0345  0.8489
13435TIP3   OH261795   6.741   3.458  14.698 -0.3221  0.2031  0.0800
13435TIP3    H161796   6.690   3.524  14.650 -0.2624  0.8513  0.8819
13435TIP3    H261797   6.701   3.454  14.784  0.9566  0.7190  0.7253
13436TIP3   OH261798   0.218   4.330  10.812 -0.3153  0.5107  0.1968
13436TIP3    H161799   0.210   4.415  10.769 -0.5225 -0.2647 -1.3650
13436TIP3    H261800   0.311   4.323  10.834 -0.0939  0.6833 -0.6661
13437TIP3   OH261801   3.393   0.804   0.349  0.6807  0.1864 -0.5819
13437TIP3    H161802   3.446   0.847   0.416 -1.7684  0.8110  1.0974
13437TIP3    H261803   3.366   0.874   0.290 -0.9610  0.5264  0.5122
13438TIP3   OH261804   0.775   1.290  13.242 -0.3244  0.3414 -0.4491
13438TIP3    H161805   0.762   1.314  13.334  2.0751  0.1146  0.0175
13438TIP3    H261806   0.849   1.344  13.214  1.5179 -2.3264 -1.0534
13439TIP3   OH261807   6.164   5.668   2.027 -0.2955  0.6429 -0.2801
13439TIP3    H161808   6.238   5.708   2.073 -0.4437  2.0090 -1.1751
13439TIP3    H261809   6.110   5.742   1.999 -1.7577 -0.3181 -0.0616
13440TIP3   OH261810   3.076   3.463   0.321  0.4313  0.3409  0.0425
13440TIP3    H161811   3.012   3.393   0.303  1.3355 -0.2315 -1.1180
13440TIP3    H261812   3.067   3.523   0.247  1.5334  0.0150 -0.3732
13441TIP3   OH261813   5.431   5.129   1.482 -0.6442  0.1495 -0.2821
13441TIP3    H161814   5.433   5.097   1.572  0.9444  1.2727  0.1251
13441TIP3    H261815   5.417   5.050   1.429  1.5833 -1.0264  0.7696
13442TIP3   OH261816   6.018   2.584   1.961 -0.4574  0.1536  0.2310
13442TIP3    H161817   6.094   2.527   1.950 -0.3461  0.2807  0.3240
13442TIP3    H261818   6.014   2.636   1.881 -0.3023  0.3123  0.3228
13443TIP3   OH261819   3.057   3.825  12.263 -0.3559 -0.0912  0.6671
13443TIP3    H161820   2.985   3.761  12.262 -0.9667  0.5753  1.2824
13443TIP3    H261821   3.028   3.893  12.203 -0.5787  0.5391  1.4774
13444TIP3   OH261822   0.559   4.213   3.135 -0.6134 -0.0597 -0.3838
13444TIP3    H161823   0.592   4.299   3.162 -1.2201 -0.3514  1.4230
13444TIP3    H261824   0.525   4.227   3.047 -0.8696  1.6009 -0.0563
13445TIP3   OH261825   3.609   6.177   0.428  0.1052  0.4259 -0.4261
13445TIP3    H161826   3.518   6.154   0.407 -0.6801  1.9745  1.0882
13445TIP3    H261827   3.645   6.096   0.465 -0.5068 -0.3383 -1.4428
13446TIP3   OH261828   5.532   2.817   1.232  0.3190  0.1546  0.9103
13446TIP3    H161829   5.610   2.863   1.201  0.5421  0.0515  1.3045
13446TIP3    H261830   5.566   2.732   1.263 -0.2110 -0.7122 -0.7564
13447TIP3   OH261831   5.697   4.420  16.270 -0.6071  0.0496  0.0892
13447TIP3    H161832   5.742   4.352  16.321  1.1434  0.9412 -0.1624
13447TIP3    H261833   5.763   4.449  16.206 -1.0060  2.4556  0.6732
13448TIP3   OH261834   1.136   2.713  16.967 -0.3295  0.1567 -0.0472
13448TIP3    H161835   1.118   2.631  16.921 -1.3820  0.8160 -0.8325
13448TIP3    H261836   1.128   2.691  17.060 -0.7274 -0.5903 -0.2580
13449TIP3   OH261837   2.354   6.361   0.311 -0.2757 -0.1877  0.6512
13449TIP3    H161838   2.293   6.295   0.279  1.6747 -1.7731  0.0203
13449TIP3    H261839   2.362   6.423   0.239 -0.1360 -0.7182  0.1990
13450TIP3   OH261840   4.813   0.047   0.338  0.0966 -0.3553 -0.4017
13450TIP3    H161841   4.765   0.114   0.386  0.0206 -0.2249 -0.6613
13450TIP3    H261842   4.776  -0.036   0.370  0.8136 -0.3139  0.5866
13451TIP3   OH261843   5.448   3.747  15.307  0.5648 -0.2324 -0.3676
13451TIP3    H161844   5.365   3.765  15.350  0.9281  1.7726 -0.4056
13451TIP3    H261845   5.450   3.808  15.234  1.4442 -1.2777 -1.2502
13452TIP3   OH261846   2.285   5.501  14.579 -0.2466 -0.0599  0.4975
13452TIP3    H161847   2.224   5.564  14.617 -1.3582 -1.7486  1.6381
13452TIP3    H261848   2.234   5.457  14.510  0.5665  0.3861 -0.4045
13453TIP3   OH261849   5.831   3.294   4.898  0.2041  0.6933 -0.0967
13453TIP3    H161850   5.745   3.335   4.892 -1.1641 -2.0022 -0.3573
13453TIP3    H261851   5.833   3.253   4.984  0.1009 -1.4709 -1.0633
13454TIP3   OH261852   2.097   1.117  12.701  0.2763  0.0646  0.5216
13454TIP3    H161853   2.141   1.103  12.785 -0.5022 -1.4291  0.7129
13454TIP3    H261854   2.149   1.066  12.639  0.8022  1.0997  0.0763
13455TIP3   OH261855   6.453   6.696   0.571  0.1745  0.5249 -0.9204
13455TIP3    H161856   6.488   6.629   0.631 -1.6877 -0.1071 -0.4850
13455TIP3    H261857   6.458   6.777   0.621  0.0470  0.2610 -0.4694
13456TIP3   OH261858   0.414   3.114  16.048  0.6192  0.4431 -0.2429
13456TIP3    H161859   0.355   3.039  16.043 -1.3860  2.0109 -2.0735
13456TIP3    H261860   0.359   3.186  16.080  1.8922  1.6344 -0.6265
13457TIP3   OH261861   1.984   0.340   4.573  0.3459 -0.1525 -0.1685
13457TIP3    H161862   1.891   0.330   4.593  0.4015 -0.6320 -0.1224
13457TIP3    H261863   2.020   0.387   4.648  0.3876 -1.1602  0.4602
13458TIP3   OH261864   5.730   0.342   4.291 -0.3963 -0.1188  0.4889
13458TIP3    H161865   5.754   0.264   4.242 -1.4945 -1.3392  1.7736
13458TIP3    H261866   5.758   0.415   4.237  1.7023 -1.3885 -0.2531
13459TIP3   OH261867   4.681   2.640   1.538  0.5847  0.2359 -0.8041
13459TIP3    H161868   4.659   2.597   1.620 -0.6271  0.7784 -0.8330
13459TIP3    H261869   4.721   2.571   1.484 -1.1387 -0.8196 -0.7836
13460TIP3   OH261870   2.055   5.448   1.100 -0.3981 -0.1749  0.0757
13460TIP3    H161871   2.060   5.475   1.192  1.3656 -0.4725  0.0981
13460TIP3    H261872   2.140   5.474   1.063  0.9991 -4.4469 -0.2121
13461TIP3   OH261873   2.309   5.188   3.856  0.2532 -0.6427  0.1133
13461TIP3    H161874   2.355   5.272   3.857  0.9627 -1.0244  0.0951
13461TIP3    H261875   2.251   5.193   3.779 -1.0885  0.5374  1.1436
13462TIP3   OH261876   6.177   1.617  12.968 -0.0672 -0.5301  0.3178
13462TIP3    H161877   6.268   1.615  12.997 -0.3926 -0.6028  1.3567
13462TIP3    H261878   6.140   1.535  12.999 -1.2116  0.6992  2.4089
13463TIP3   OH261879   2.669   6.539  11.502  0.1048 -0.0941 -0.2008
13463TIP3    H161880   2.664   6.493  11.419  0.9628  0.8493 -0.7931
13463TIP3    H261881   2.756   6.578  11.502 -0.3858  1.0237  0.5556
13464TIP3   OH261882   3.261   0.685  11.178  0.1246 -0.6258  0.2468
13464TIP3    H161883   3.335   0.630  11.204 -0.1173 -1.8951 -1.5607
13464TIP3    H261884   3.301   0.757  11.130  0.2977 -0.3149  0.8462
13465TIP3   OH261885   3.691   5.986  12.945 -0.3244 -0.1910 -0.4983
13465TIP3    H161886   3.688   5.971  12.851  2.0541  1.3086 -0.8832
13465TIP3    H261887   3.601   6.011  12.967 -0.9302 -0.5606 -2.3515
13466TIP3   OH261888   4.334   1.611  12.229  0.7545  0.1439 -0.8418
13466TIP3    H161889   4.244   1.622  12.261  0.4808 -0.4185 -1.3807
13466TIP3    H261890   4.386   1.594  12.307  0.1315 -1.0161 -0.6515
13467TIP3   OH261891   2.649   5.591   3.963  0.3509  0.2004  0.7799
13467TIP3    H161892   2.729   5.635   3.991 -0.1982  1.7868 -0.0051
13467TIP3    H261893   2.649   5.508   4.010  1.9931  0.5677  1.4842
13468TIP3   OH261894   2.641   5.317   1.543  0.6794 -0.4494  0.5763
13468TIP3    H161895   2.731   5.351   1.549  0.1875  0.7997  1.1407
13468TIP3    H261896   2.592   5.387   1.500 -0.1134 -0.9601  0.6398
13469TIP3   OH261897   4.266   4.881  14.148 -0.3936  0.1076  0.2306
13469TIP3    H161898   4.298   4.805  14.099 -0.0634 -0.1051  0.7679
13469TIP3    H261899   4.346   4.925  14.178 -0.5931  0.1457  0.7103
13470TIP3   OH261900   1.929   2.202  14.055  0.1311  0.6574 -0.0565
13470TIP3    H161901   1.996   2.263  14.024  0.0868  0.1831 -1.1301
13470TIP3    H261902   1.930   2.130  13.992 -1.2654  0.5566 -0.0066
13471TIP3   OH261903   0.400   3.851  13.174  0.3349 -0.5419  0.1302
13471TIP3    H161904   0.333   3.911  13.206 -0.5261 -1.4855  0.1486
13471TIP3    H261905   0.376   3.766  13.211  0.9666 -1.0936 -0.6925
13472TIP3   OH261906   4.494   0.450   0.436 -0.2992 -0.2018  0.2612
13472TIP3    H161907   4.553   0.510   0.391 -1.5675  0.3831 -0.6790
13472TIP3    H261908   4.532   0.363   0.422  1.0439  0.2710  0.8344
13473TIP3   OH261909   4.779   1.380   2.469  0.6621 -0.2915  0.4907
13473TIP3    H161910   4.691   1.412   2.488 -0.4471 -2.1851 -1.0898
13473TIP3    H261911   4.817   1.363   2.556 -1.5166 -1.8913  1.2164
13474TIP3   OH261912   1.360   1.728  11.700  0.1935  0.6604 -0.3889
13474TIP3    H161913   1.406   1.758  11.622  1.0037  0.4753 -0.0025
13474TIP3    H261914   1.335   1.638  11.680 -0.1084  0.8024 -0.6496
13475TIP3   OH261915   3.187   5.174  14.886 -0.5146  0.0885 -0.0449
13475TIP3    H161916   3.244   5.192  14.812 -1.1431  0.8860 -0.3528
13475TIP3    H261917   3.219   5.092  14.923 -0.8858 -0.9175 -1.8814
13476TIP3   OH261918   3.674   1.399  12.533 -0.3325  0.5373  0.3493
13476TIP3    H161919   3.708   1.329  12.587  1.1845  0.1793 -0.9879
13476TIP3    H261920   3.628   1.354  12.461  0.1548  0.9004 -0.2031
13477TIP3   OH261921   1.804   2.819   4.798  0.0393 -0.2530 -0.2339
13477TIP3    H161922   1.787   2.745   4.855 -0.6722 -0.9442 -1.3146
13477TIP3    H261923   1.727   2.825   4.742 -0.0526  1.4964  0.0117
13478TIP3   OH261924   3.508   6.355  16.351  0.2743 -0.2690  0.5797
13478TIP3    H161925   3.594   6.397  16.351  0.4186 -0.5444  1.2580
13478TIP3    H261926   3.499   6.319  16.262  0.9152 -0.3513  0.5414
13479TIP3   OH261927   2.257   6.606  12.519 -0.4223 -0.1103 -0.2268
13479TIP3    H161928   2.204   6.635  12.444  0.2744  2.2482  0.1212
13479TIP3    H261929   2.197   6.613  12.594 -0.3443  0.1703 -0.1881
13480TIP3   OH261930   0.865   1.790   5.241  0.0771  0.1918  0.1580
13480TIP3    H161931   0.779   1.747   5.237 -1.2115  2.5105  1.0481
13480TIP3    H261932   0.868   1.831   5.328  1.0064  2.2070 -0.7521
13481TIP3   OH261933   6.513   0.799   1.935  0.6363  0.6473  0.1473
13481TIP3    H161934   6.601   0.816   1.900 -0.3265  2.2064 -1.6833
13481TIP3    H261935   6.489   0.715   1.898  0.9934  0.6450 -0.0884
13482TIP3   OH261936   2.765   1.663  14.490 -0.4632 -0.8963 -0.6371
13482TIP3    H161937   2.858   1.669  14.515 -0.5877  3.0724 -0.5655
13482TIP3    H261938   2.766   1.654  14.395 -0.0641 -2.8458 -0.4843
13483TIP3   OH261939   2.284   6.519   5.992  0.3647 -0.0474 -0.2652
13483TIP3    H161940   2.275   6.439   5.941 -1.3002 -0.5626  0.7848
13483TIP3    H261941   2.287   6.589   5.926  1.7433 -0.9114 -1.1852
13484TIP3   OH261942   6.794   2.910  13.764  0.0885  0.6536  0.1282
13484TIP3    H161943   6.879   2.955  13.759  0.4970 -0.0776  0.4497
13484TIP3    H261944   6.809   2.836  13.822 -0.4244 -0.2449 -0.8460
13485TIP3   OH261945   4.339   6.830  15.163 -0.1243  0.1454 -0.6293
13485TIP3    H161946   4.276   6.902  15.170  1.3180  1.2767  1.6096
13485TIP3    H261947   4.403   6.861  15.099 -0.7176 -0.1519 -1.3830
13486TIP3   OH261948   1.707   2.899   4.086 -0.3782 -0.3253 -0.4951
13486TIP3    H161949   1.665   2.886   4.000 -1.1674 -3.0709  0.1895
13486TIP3    H261950   1.798   2.870   4.072  0.3602  2.0975 -1.0737
13487TIP3   OH261951   1.234   1.554   4.886  0.6892  0.0096  0.2460
13487TIP3    H161952   1.245   1.528   4.977 -0.6564 -2.1101 -0.1308
13487TIP3    H261953   1.146   1.526   4.863  1.2025 -0.0554 -1.8686
13488TIP3   OH261954   4.984   4.323   6.436 -0.7425  0.3066 -0.0048
13488TIP3    H161955   5.078   4.307   6.427 -0.7559 -0.1770  0.5936
13488TIP3    H261956   4.952   4.333   6.347 -0.3248 -0.7350 -0.2836
13489TIP3   OH261957   6.163   1.177   4.048 -0.3066 -0.3907 -0.0473
13489TIP3    H161958   6.201   1.243   4.106  2.4664 -0.3967 -1.6323
13489TIP3    H261959   6.180   1.094   4.093 -0.8339 -0.2295  0.4585
13490TIP3   OH261960   1.181   1.304   4.049  0.1172  0.0201 -0.3116
13490TIP3    H161961   1.247   1.240   4.025  0.4950  0.6558 -1.0067
13490TIP3    H261962   1.230   1.376   4.089 -0.5065 -1.1211  2.7906
13491TIP3   OH261963   5.001   2.516   5.186 -0.1211  0.7912  1.1743
13491TIP3    H161964   5.036   2.488   5.101 -0.6202  3.5894 -0.0425
13491TIP3    H261965   5.021   2.443   5.245  0.6315 -1.0603 -1.2188
13492TIP3   OH261966   3.887   2.197   2.245 -0.3809  0.5191 -0.3221
13492TIP3    H161967   3.805   2.198   2.195 -1.0853 -0.7394  0.7416
13492TIP3    H261968   3.875   2.126   2.308  0.5422  1.9556  1.5239
13493TIP3   OH261969   0.998   1.341  12.485  0.0458  0.4746  0.0995
13493TIP3    H161970   1.005   1.316  12.577  2.6278  0.1091 -0.1221
13493TIP3    H261971   0.962   1.263  12.442 -1.3933  0.7275  0.7815
13494TIP3   OH261972   5.573   0.259   3.535  0.0306  0.3154 -0.4433
13494TIP3    H161973   5.625   0.324   3.581  0.1315 -0.1908  0.1628
13494TIP3    H261974   5.536   0.204   3.604  0.7870 -0.9092 -0.9948
13495TIP3   OH261975   5.894   2.925  11.608 -0.4932 -0.0684  0.4502
13495TIP3    H161976   5.841   2.931  11.687  0.7559 -2.3106  1.5472
13495TIP3    H261977   5.911   2.832  11.597  2.0442  0.4340 -0.6319
13496TIP3   OH261978   6.683   4.981   5.200  0.4831 -0.3042  0.2287
13496TIP3    H161979   6.687   4.890   5.170  0.2492  0.2985 -1.7787
13496TIP3    H261980   6.749   5.027   5.149  0.9795  0.5890  1.6026
13497TIP3   OH261981   5.523   6.292  15.146 -0.6119  0.4068 -0.1229
13497TIP3    H161982   5.533   6.222  15.082 -0.4029 -2.1071  2.4417
13497TIP3    H261983   5.431   6.319  15.138 -0.9625 -0.8496 -0.5116
13498TIP3   OH261984   4.395   2.236   2.512 -0.5569 -0.3423 -0.2546
13498TIP3    H161985   4.428   2.167   2.454  0.4642  0.4716 -0.6762
13498TIP3    H261986   4.335   2.287   2.457 -0.0024  0.1056 -0.4614
13499TIP3   OH261987   5.533   3.112   9.985 -0.1063 -0.3008 -0.4333
13499TIP3    H161988   5.533   3.182   9.921  0.5594 -2.4027 -2.9118
13499TIP3    H261989   5.451   3.122  10.032 -0.8626  1.0626 -1.9570
13500TIP3   OH261990   1.119   0.784  13.040 -0.2454 -0.6500  0.2028
13500TIP3    H161991   1.095   0.820  13.125  0.5076 -2.5981  1.3109
13500TIP3    H261992   1.080   0.844  12.977 -0.0609  1.3675  1.8959
13501TIP3   OH261993   0.910   2.641   0.546  0.3659  0.0583  0.9151
13501TIP3    H161994   0.826   2.675   0.578  0.5265  1.2252  0.1783
13501TIP3    H261995   0.922   2.684   0.461  2.0979  0.5793  1.3855
13502TIP3   OH261996   1.213   6.706  11.858  0.3819  0.4895 -0.1424
13502TIP3    H161997   1.209   6.612  11.876  0.1893  0.5923  0.3689
13502TIP3    H261998   1.152   6.745  11.921 -1.0574  0.7712 -1.6318
13503TIP3   OH261999   3.883   0.610   0.838  0.5623  0.0216 -0.3866
13503TIP3    H162000   3.889   0.660   0.920 -1.2353  0.3293 -0.4026
13503TIP3    H262001   3.969   0.621   0.797  0.9628  1.2219  0.6940
13504TIP3   OH262002   6.547   2.481   4.499  0.0182  0.3410  0.4916
13504TIP3    H162003   6.532   2.527   4.582  0.0177 -1.0586  1.3047
13504TIP3    H262004   6.610   2.535   4.452 -1.1480  1.9699  0.7038
13505TIP3   OH262005   5.338   4.373  14.024 -0.4480  0.0845 -0.2615
13505TIP3    H162006   5.359   4.360  13.932  0.0261  0.0370 -0.1495
13505TIP3    H262007   5.257   4.425  14.023 -0.6048 -0.1636 -0.6993
13506TIP3   OH262008   6.697   2.069   6.122 -0.2981 -0.8325  0.1228
13506TIP3    H162009   6.638   2.127   6.171  1.1030 -1.4069  2.6794
13506TIP3    H262010   6.746   2.127   6.064 -0.6822  0.1866  0.7997
13507TIP3   OH262011   1.611   6.390  11.292 -0.3735  0.2941  0.1402
13507TIP3    H162012   1.632   6.473  11.334  0.4095  0.0329  0.2693
13507TIP3    H262013   1.665   6.388  11.213  0.0848 -0.3738  0.4666
13508TIP3   OH262014   3.032   4.955   4.058 -0.2051  0.1280 -0.1074
13508TIP3    H162015   3.048   4.868   4.019 -0.3100 -0.3864  0.9766
13508TIP3    H262016   2.951   4.985   4.016 -0.2154 -0.3356 -0.4284
13509TIP3   OH262017   0.535   6.082   3.186 -0.6478  0.0180  0.2050
13509TIP3    H162018   0.491   6.064   3.103 -0.9943  1.4432  0.0566
13509TIP3    H262019   0.620   6.118   3.161 -1.6110  2.6052  0.3742
13510TIP3   OH262020   5.781   0.785  14.745 -0.4084  0.0096  0.5828
13510TIP3    H162021   5.841   0.859  14.754  0.2756 -0.6410  1.6319
13510TIP3    H262022   5.744   0.795  14.658  1.6013  0.1860 -0.3121
13511TIP3   OH262023   4.895   3.762   1.603  0.1767 -0.0597  0.9041
13511TIP3    H162024   4.883   3.721   1.688  0.9820  1.6640  1.8995
13511TIP3    H262025   4.912   3.689   1.543  1.5521 -1.1876  2.5709
13512TIP3   OH262026   1.077   4.270   2.036  0.2113 -0.4610 -0.2379
13512TIP3    H162027   1.105   4.358   2.061  0.7501 -1.0168  1.2192
13512TIP3    H262028   1.102   4.263   1.944 -0.9009  1.3049 -0.7413
13513TIP3   OH262029   2.722   5.505  10.948  0.3360  0.3246  0.1032
13513TIP3    H162030   2.726   5.425  10.894  1.1931  0.3564  0.1135
13513TIP3    H262031   2.664   5.563  10.899 -0.3107 -0.2986  0.0993
13514TIP3   OH262032   5.328   3.361  12.171 -0.1889  0.0992  0.4371
13514TIP3    H162033   5.390   3.339  12.240 -0.3153 -0.9597  0.2288
13514TIP3    H262034   5.382   3.371  12.092  0.0414  1.9778  0.7861
13515TIP3   OH262035   3.365   5.269  14.701  0.3394 -0.0730 -0.5887
13515TIP3    H162036   3.447   5.248  14.656 -0.6404 -0.1435 -2.4519
13515TIP3    H262037   3.312   5.313  14.635 -1.2682 -0.3655  0.4498
13516TIP3   OH262038   4.536   0.268  14.080 -0.5163 -0.1400  0.6019
13516TIP3    H162039   4.544   0.255  13.986 -3.0492 -0.3068  0.3420
13516TIP3    H262040   4.577   0.190  14.118  1.3431  0.3550 -0.2791
13517TIP3   OH262041   0.012   5.464   0.026  0.2930 -0.1063 -0.3145
13517TIP3    H162042   0.012   5.387  -0.031 -2.1667  0.7717 -1.6386
13517TIP3    H262043  -0.069   5.457   0.076  2.2214 -0.7004  3.0744
13518TIP3   OH262044   2.593   3.834   3.028  0.2518  0.2135  0.3359
13518TIP3    H162045   2.540   3.807   3.103 -0.4505  2.1700  0.6159
13518TIP3    H262046   2.532   3.834   2.954 -0.3056  2.6806  0.7008
13519TIP3   OH262047   0.302   2.455  13.438 -0.6404  0.4469 -0.1189
13519TIP3    H162048   0.239   2.515  13.479 -2.0267 -0.2385 -1.1625
13519TIP3    H262049   0.309   2.382  13.499  1.4846  1.8388  1.4309
13520TIP3   OH262050   1.333   1.812   4.878 -0.1235  0.3126  0.1882
13520TIP3    H162051   1.285   1.729   4.870  0.8712 -0.4510  1.6477
13520TIP3    H262052   1.289   1.871   4.818 -2.3257 -0.6114  0.7808
13521TIP3   OH262053   1.772   0.490  11.950  0.1180  0.5110  0.5888
13521TIP3    H162054   1.865   0.504  11.964  0.3514 -1.1044  0.9310
13521TIP3    H262055   1.732   0.507  12.035  0.3664 -0.5504  0.9410
13522TIP3   OH262056   0.067   2.850   0.860  0.6222 -0.4517  0.0812
13522TIP3    H162057   0.118   2.791   0.916  0.8064  0.1819  0.6001
13522TIP3    H262058  -0.013   2.868   0.910  0.4492 -0.4693 -0.1870
13523TIP3   OH262059   2.425   1.157  13.162 -0.4182 -0.3661  0.0461
13523TIP3    H162060   2.413   1.244  13.200  1.8022  0.1979 -0.3664
13523TIP3    H262061   2.373   1.099  13.218 -0.1720  0.9283  1.7072
13524TIP3   OH262062   3.574   3.004  13.124  0.1797 -0.2709  0.1122
13524TIP3    H162063   3.579   3.071  13.056  2.0655 -0.4396  0.0476
13524TIP3    H262064   3.483   2.975  13.122 -0.4480  1.5950 -0.5078
13525TIP3   OH262065   1.430   2.472  16.995 -0.0129 -0.4097 -0.4300
13525TIP3    H162066   1.517   2.434  17.011  0.2684  0.2067 -0.4336
13525TIP3    H262067   1.431   2.554  17.045 -0.3751 -0.1159 -0.8923
13526TIP3   OH262068   3.808   6.668  12.758  0.8591 -1.0677 -0.1146
13526TIP3    H162069   3.782   6.752  12.721 -1.9544 -0.9321  1.8915
13526TIP3    H262070   3.830   6.687  12.849  0.5988 -2.4502  0.2578
13527TIP3   OH262071   2.791   4.420  15.303  0.4163 -0.3284  0.7065
13527TIP3    H162072   2.807   4.334  15.340  1.0861 -0.3728  0.3252
13527TIP3    H262073   2.823   4.414  15.213 -0.6931 -0.0611  0.2763
13528TIP3   OH262074   3.062   5.928   6.457  0.0175  0.0118  0.1147
13528TIP3    H162075   3.137   5.981   6.484  0.0634  0.3034 -0.5563
13528TIP3    H262076   3.101   5.849   6.419 -0.0089  0.1275 -0.1606
13529TIP3   OH262077   5.776   5.911   2.641  0.0020 -0.4502 -0.6579
13529TIP3    H162078   5.726   5.940   2.565 -0.2457 -0.7702 -0.6207
13529TIP3    H262079   5.721   5.933   2.716 -0.2105 -1.0409 -0.6315
13530TIP3   OH262080   6.825   5.233   4.622 -0.2736  0.3194 -0.4320
13530TIP3    H162081   6.801   5.216   4.531  1.3647  0.5828 -0.9511
13530TIP3    H262082   6.908   5.188   4.633  0.1538  1.3039  0.5697
13531TIP3   OH262083   5.078   5.268  17.036 -0.0455 -0.3585  0.2800
13531TIP3    H162084   5.137   5.210  16.989 -0.1088 -1.5868  1.6352
13531TIP3    H262085   5.021   5.209  17.086 -1.5614  0.8194  0.0324
13532TIP3   OH262086   2.934   6.573   6.342  0.0939 -0.5132  0.1456
13532TIP3    H162087   2.929   6.667   6.359 -0.6671 -0.3490 -0.8545
13532TIP3    H262088   2.873   6.534   6.404 -0.2239 -0.2539 -0.0008
13533TIP3   OH262089   5.646   3.359  14.157  0.1005  0.7997 -1.1274
13533TIP3    H162090   5.689   3.436  14.119  1.6789  0.8323  0.6396
13533TIP3    H262091   5.651   3.292  14.088  2.8384  0.8645 -1.0733
13534TIP3   OH262092   6.287   5.916   5.253  0.2121  0.2133 -0.7986
13534TIP3    H162093   6.321   5.985   5.197  0.3074  0.3368 -0.5925
13534TIP3    H262094   6.324   5.936   5.340 -0.6506  0.5475 -0.4937
13535TIP3   OH262095   1.101   5.630  16.634  0.5477  0.5576  0.3483
13535TIP3    H162096   1.152   5.704  16.600 -1.3128  0.7712 -2.2417
13535TIP3    H262097   1.037   5.670  16.693  1.6950  0.5655  1.6343
13536TIP3   OH262098   3.609   4.555   3.905  0.3515  0.3365  0.0568
13536TIP3    H162099   3.650   4.473   3.934  1.1190  0.4653 -0.6434
13536TIP3    H262100   3.629   4.560   3.812 -0.7265  0.7296 -0.1583
13537TIP3   OH262101   5.750   4.759  16.678  0.0954  0.4485  0.6738
13537TIP3    H162102   5.725   4.682  16.628  0.2338  1.0225 -0.3115
13537TIP3    H262103   5.846   4.758  16.678  0.1211 -0.3883  2.2945
13538TIP3   OH262104   3.311   2.315   2.805  0.1230  0.2283  0.7637
13538TIP3    H162105   3.233   2.368   2.820 -1.8401 -2.4081  0.6907
13538TIP3    H262106   3.291   2.264   2.726  1.4439 -1.2921  1.3522
13539TIP3   OH262107   4.806   2.506  13.038  0.5726  0.2228  0.7394
13539TIP3    H162108   4.737   2.450  13.075 -0.3711  1.2743  0.6371
13539TIP3    H262109   4.876   2.446  13.016 -0.4753 -0.9483  0.4780
13540TIP3   OH262110   2.317   5.000  16.503 -0.0531 -0.4510 -0.2728
13540TIP3    H162111   2.383   4.948  16.458 -0.4147 -0.8880 -0.3016
13540TIP3    H262112   2.266   4.936  16.554  1.1071  0.1398  1.7410
13541TIP3   OH262113   1.301   2.885  15.688 -0.3522 -0.0299  0.0216
13541TIP3    H162114   1.349   2.945  15.631 -1.0128  2.5203  1.9563
13541TIP3    H262115   1.221   2.933  15.712 -0.9968 -1.7405  1.5679
13542TIP3   OH262116   0.773   5.774  15.589  0.0844 -0.1390  0.0403
13542TIP3    H162117   0.762   5.807  15.500  0.5562 -2.4835 -0.9644
13542TIP3    H262118   0.868   5.773  15.602  0.0457 -0.5074  0.2896
13543TIP3   OH262119   1.155   5.620  12.775 -0.0783  0.0414  0.4302
13543TIP3    H162120   1.234   5.622  12.830  0.6955  3.7155 -0.5304
13543TIP3    H262121   1.083   5.614  12.838  0.8850  0.3464  1.6117
13544TIP3   OH262122   3.894   3.033  12.034 -0.0180  0.3311 -0.1655
13544TIP3    H162123   3.899   3.119  12.075 -0.0239  1.1745 -1.8605
13544TIP3    H262124   3.966   2.984  12.075 -1.0447  0.5287  2.0480
13545TIP3   OH262125   3.589   5.369   0.824  0.6638  0.0027 -0.1112
13545TIP3    H162126   3.520   5.415   0.777  0.4271  1.1082  1.2400
13545TIP3    H262127   3.656   5.435   0.839  1.2970 -0.6567 -0.0166
13546TIP3   OH262128   5.526   1.907   0.593  0.5697 -0.7735  0.0259
13546TIP3    H162129   5.541   2.000   0.575 -1.8724 -0.1337  0.9870
13546TIP3    H262130   5.458   1.881   0.532 -0.0667 -1.4261  0.9824
13547TIP3   OH262131   5.677   3.563  16.411 -0.3171  0.0552  0.0175
13547TIP3    H162132   5.618   3.630  16.376 -0.4267  0.2579  0.5660
13547TIP3    H262133   5.738   3.544  16.340 -2.4683 -1.8819 -1.4467
13548TIP3   OH262134   0.358   4.108  13.353 -0.3011  0.2724  0.5775
13548TIP3    H162135   0.283   4.096  13.412  0.4689  2.1034  2.0225
13548TIP3    H262136   0.342   4.192  13.310  0.6831  0.4755  0.5782
13549TIP3   OH262137   2.872   3.409  12.884 -0.0600  0.2171 -0.8724
13549TIP3    H162138   2.937   3.352  12.924 -1.2235 -0.1612  0.5916
13549TIP3    H262139   2.888   3.495  12.922 -1.6508 -0.2975  1.1568
13550TIP3   OH262140   1.527   1.528  14.625  0.3798  0.5803 -0.0824
13550TIP3    H162141   1.496   1.600  14.679  0.2110  1.1851 -0.9574
13550TIP3    H262142   1.608   1.499  14.668  3.8707  5.1149 -2.6276
13551TIP3   OH262143   1.772   6.693   0.619 -0.1248  0.6007  0.3006
13551TIP3    H162144   1.701   6.747   0.585 -0.5812 -0.1316  0.0459
13551TIP3    H262145   1.850   6.722   0.572 -0.3621  1.0427  0.1816
13552TIP3   OH262146   1.129   6.260   1.189 -0.2469  0.0655  0.3282
13552TIP3    H162147   1.055   6.200   1.179  0.0711 -0.3061  0.1924
13552TIP3    H262148   1.206   6.204   1.184  0.0761  0.5696 -0.4419
13553TIP3   OH262149   3.507   1.958  15.459 -0.5573  0.4928 -0.0217
13553TIP3    H162150   3.493   1.868  15.488  0.6356 -0.3211 -1.7831
13553TIP3    H262151   3.591   1.983  15.496 -1.4809  1.3969  1.5451
13554TIP3   OH262152   4.227   2.494   3.535 -0.3430 -0.0123  0.3688
13554TIP3    H162153   4.261   2.542   3.610  1.2067 -1.9289  0.9797
13554TIP3    H262154   4.284   2.519   3.462 -0.6874  0.4430  0.2520
13555TIP3   OH262155   2.868   4.604   3.722  0.3216 -0.2404  0.7435
13555TIP3    H162156   2.882   4.532   3.659  1.5131  1.7148 -1.3696
13555TIP3    H262157   2.806   4.568   3.785  0.0156 -2.7698 -0.8486
13556TIP3   OH262158   1.924   3.905  16.646 -0.0198 -0.3574 -0.3992
13556TIP3    H162159   2.006   3.857  16.633  0.0600 -0.1811 -0.5636
13556TIP3    H262160   1.924   3.970  16.575 -0.5963 -0.7547 -0.7663
13557TIP3   OH262161   6.272   4.739  16.812 -0.1383  0.0621 -0.4640
13557TIP3    H162162   6.313   4.659  16.777  1.5907  0.6194  0.1428
13557TIP3    H262163   6.305   4.744  16.902 -0.5407  1.2595 -0.3734
13558TIP3   OH262164   4.606   4.249  13.179  0.1361 -0.3046  0.5657
13558TIP3    H162165   4.578   4.321  13.124  0.2512 -1.0228 -0.4577
13558TIP3    H262166   4.526   4.199  13.197  0.2654 -0.6673  0.1520
13559TIP3   OH262167   0.519   0.190  13.336  0.0059 -0.1044  0.2027
13559TIP3    H162168   0.555   0.165  13.251  0.7335 -0.8714  0.7130
13559TIP3    H262169   0.505   0.107  13.382 -1.4972  0.2293  0.4087
13560TIP3   OH262170   6.662   0.779  13.123  0.4772  0.1660 -0.6330
13560TIP3    H162171   6.613   0.856  13.153 -0.6305 -0.3474 -1.0657
13560TIP3    H262172   6.596   0.710  13.114  1.6397 -1.2797  1.1157
13561TIP3   OH262173   0.645   6.153  14.367 -0.9071 -0.0452 -0.1992
13561TIP3    H162174   0.571   6.192  14.414 -0.5945  1.5060 -0.9152
13561TIP3    H262175   0.694   6.106  14.435 -1.0632  1.2164  0.8268
13562TIP3   OH262176   0.396   4.931  14.602  0.2573 -0.8828 -0.2585
13562TIP3    H162177   0.480   4.955  14.642  0.5875 -1.0936 -0.8150
13562TIP3    H262178   0.406   4.839  14.578 -0.1110 -0.8917 -0.3789
13563TIP3   OH262179   4.265   4.482  13.371  0.1583  0.2254  0.3986
13563TIP3    H162180   4.341   4.515  13.325 -0.7335 -0.3695 -1.6002
13563TIP3    H262181   4.229   4.559  13.415  2.2915  0.3663  2.0576
13564TIP3   OH262182   4.536   0.057  15.509  0.0738 -0.4804 -0.0563
13564TIP3    H162183   4.544   0.035  15.602  0.0872 -0.2977 -0.0139
13564TIP3    H262184   4.442   0.065  15.494  0.0927  0.0216  0.0685
13565TIP3   OH262185   0.832   2.660   2.229 -0.2504 -0.2250  0.1759
13565TIP3    H162186   0.759   2.598   2.227 -0.7351  0.2624  1.4459
13565TIP3    H262187   0.813   2.715   2.305  1.5016 -0.1601  0.5970
13566TIP3   OH262188   2.580   2.513  14.146  0.5028 -0.3314  0.2364
13566TIP3    H162189   2.486   2.506  14.159  0.5859  0.0444  1.1594
13566TIP3    H262190   2.618   2.463  14.219  1.0361 -2.3843 -1.3531
13567TIP3   OH262191   5.375   4.925   4.939  0.3573 -0.4641 -0.0291
13567TIP3    H162192   5.455   4.928   4.991  0.0798 -1.6832  0.4895
13567TIP3    H262193   5.405   4.900   4.851  0.5492 -1.0170  0.1885
13568TIP3   OH262194   1.288   4.866   4.372  0.2925 -0.3390  0.5263
13568TIP3    H162195   1.232   4.933   4.335  0.2760  0.1728  1.4332
13568TIP3    H262196   1.293   4.798   4.305 -0.8233 -0.0692  0.1525
13569TIP3   OH262197   3.674   2.438  13.378 -0.4603  0.5526 -0.7975
13569TIP3    H162198   3.692   2.440  13.472  1.5578  1.1052 -1.1465
13569TIP3    H262199   3.597   2.493  13.366  0.9244  2.8769  0.2526
13570TIP3   OH262200   0.473   4.983  15.586  0.4517 -0.3440 -0.1269
13570TIP3    H162201   0.389   4.936  15.595 -0.0507  0.2864 -1.3021
13570TIP3    H262202   0.537   4.925  15.627 -0.6996 -0.3705  1.7184
13571TIP3   OH262203   3.324   4.265  16.581  0.1786 -0.0336 -0.0786
13571TIP3    H162204   3.406   4.249  16.628  0.2556 -0.6944 -0.4162
13571TIP3    H262205   3.293   4.349  16.613  1.8340  1.0367 -1.1581
13572TIP3   OH262206   0.850   5.112  15.971  0.3870  0.6142  0.6270
13572TIP3    H162207   0.798   5.164  15.910  1.4920 -1.5235 -2.3540
13572TIP3    H262208   0.883   5.176  16.035 -2.3601  2.6683  0.1842
13573TIP3   OH262209   4.686   3.001  12.761  0.0344 -0.3874 -0.7840
13573TIP3    H162210   4.764   2.954  12.732  0.2342 -1.1601  0.8989
13573TIP3    H262211   4.709   3.094  12.752  1.7118 -0.5888  1.0247
13574TIP3   OH262212   5.062   4.991   0.748  0.1807  0.4760 -0.2518
13574TIP3    H162213   5.085   4.901   0.723 -1.0064  0.7150 -2.4224
13574TIP3    H262214   5.094   5.045   0.676 -1.8102  1.4403 -0.4607
13575TIP3   OH262215   1.466   0.806   6.045 -0.0183 -0.1050 -0.0580
13575TIP3    H162216   1.375   0.834   6.043  0.0882  0.2179 -1.3669
13575TIP3    H262217   1.500   0.840   6.128 -1.1791 -0.5674  0.6145
13576TIP3   OH262218   4.516   1.217  16.488  0.8371  0.0397  0.1838
13576TIP3    H162219   4.469   1.167  16.554  0.6562 -0.9741 -0.6940
13576TIP3    H262220   4.590   1.255  16.535 -0.2105  0.7302  1.3249
13577TIP3   OH262221   3.430   4.947   4.142  0.4283 -0.4652  0.0061
13577TIP3    H162222   3.465   5.026   4.184 -0.7351 -0.4601  1.0608
13577TIP3    H262223   3.339   4.942   4.174 -0.4763 -0.6066 -2.3594
13578TIP3   OH262224   2.656   3.270  16.751  0.0888 -0.5412 -0.1283
13578TIP3    H162225   2.642   3.361  16.727  2.0305 -0.4595 -1.1305
13578TIP3    H262226   2.577   3.245  16.798 -1.5724  0.9279 -1.9658
13579TIP3   OH262227   0.636   0.162   0.568 -0.3697 -0.0219 -0.4251
13579TIP3    H162228   0.591   0.247   0.568  0.1927  0.2831 -0.5784
13579TIP3    H262229   0.651   0.143   0.660 -1.5598 -0.5398 -0.3202
13580TIP3   OH262230   6.711   3.873   5.367 -0.2193  0.0124 -0.0397
13580TIP3    H162231   6.664   3.825   5.435 -1.0201 -1.6450 -1.6653
13580TIP3    H262232   6.792   3.901   5.408  0.3805 -2.9268  1.0036
13581TIP3   OH262233   3.087   1.200   5.590  0.0206  0.6887  0.3594
13581TIP3    H162234   3.177   1.228   5.602  0.3719 -0.7918  1.4905
13581TIP3    H262235   3.076   1.128   5.651 -0.9044 -1.3808 -2.0593
13582TIP3   OH262236   0.464   4.457  16.851  0.7318 -0.4394 -0.2555
13582TIP3    H162237   0.487   4.476  16.761 -1.1308 -0.0172 -0.6943
13582TIP3    H262238   0.525   4.509  16.903 -0.3715  2.1573 -1.3514
13583TIP3   OH262239   1.567   2.161   1.402 -0.1275  0.5025  0.0883
13583TIP3    H162240   1.658   2.171   1.429  0.3802 -0.4055 -1.2112
13583TIP3    H262241   1.534   2.251   1.396  0.9501  0.8848 -0.3230
13584TIP3   OH262242   5.305   5.227  15.202  0.4423  0.5065 -0.4031
13584TIP3    H162243   5.346   5.141  15.202 -2.7268 -1.1721 -1.0661
13584TIP3    H262244   5.283   5.243  15.110 -0.1796  1.3976 -0.1138
13585TIP3   OH262245   0.197   5.123   0.409  0.1593 -0.0798 -0.2535
13585TIP3    H162246   0.290   5.117   0.388  0.1853  0.1609 -0.2121
13585TIP3    H262247   0.184   5.214   0.435  0.1974 -0.4490  1.1039
13586TIP3   OH262248   4.549   0.268   2.540 -1.0743  0.0121  0.1058
13586TIP3    H162249   4.639   0.299   2.544 -0.4406 -1.7232 -0.0474
13586TIP3    H262250   4.513   0.288   2.627 -0.8462  1.5101 -0.1229
13587TIP3   OH262251   6.647   3.562  15.275 -0.3609  0.4001  0.4372
13587TIP3    H162252   6.578   3.601  15.329  0.0930  1.4237  0.3090
13587TIP3    H262253   6.728   3.592  15.315 -0.0080  0.3102 -0.1987
13588TIP3   OH262254   4.910   2.437  16.564 -0.3442  0.1647 -0.2509
13588TIP3    H162255   4.915   2.342  16.553  1.6595  0.2095 -0.2629
13588TIP3    H262256   4.862   2.449  16.645  0.9650 -0.9765  0.7593
13589TIP3   OH262257   0.086   4.187   2.857  0.4882  0.0481 -0.1212
13589TIP3    H162258   0.014   4.141   2.812 -0.2254  1.5712 -0.5907
13589TIP3    H262259   0.044   4.231   2.931  1.8400 -3.6435  3.2197
13590TIP3   OH262260   3.262   2.319  13.424  0.2638 -0.0595  0.4851
13590TIP3    H162261   3.176   2.342  13.460 -0.4449 -0.4303 -0.8877
13590TIP3    H262262   3.300   2.260  13.488 -0.7607 -0.3319  0.8605
13591TIP3   OH262263   2.555   6.061  11.478  0.4488 -0.3541  0.0985
13591TIP3    H162264   2.604   6.054  11.396 -1.4790 -0.9612 -1.0471
13591TIP3    H262265   2.499   6.138  11.466 -0.4214 -0.9073  0.5188
13592TIP3   OH262266   4.610   3.199   2.569 -0.5018  0.5294 -0.6846
13592TIP3    H162267   4.603   3.119   2.621 -1.0090  0.4664 -0.8384
13592TIP3    H262268   4.605   3.270   2.633 -1.0575  0.4506 -0.6317
13593TIP3   OH262269   2.235   1.648  12.658 -0.2116  0.8115 -0.7658
13593TIP3    H162270   2.309   1.685  12.707 -0.8741 -0.3130  1.1640
13593TIP3    H262271   2.274   1.620  12.575  1.9581 -1.3637  0.8560
13594TIP3   OH262272   6.314   4.568  16.021 -0.0796 -0.1211  0.1042
13594TIP3    H162273   6.251   4.560  15.950 -1.8845  0.9731  1.4922
13594TIP3    H262274   6.303   4.487  16.072 -0.1639 -0.0664  0.1738
13595TIP3   OH262275   1.771   5.218   4.396 -0.1598  0.0078 -0.1583
13595TIP3    H162276   1.682   5.183   4.388  0.3744 -1.3519 -0.3090
13595TIP3    H262277   1.758   5.310   4.420 -1.6054 -0.1227 -0.3534
13596TIP3   OH262278   2.423   2.696   3.736 -0.6192  0.1165  0.7323
13596TIP3    H162279   2.344   2.642   3.726 -0.7716  0.5794 -0.8391
13596TIP3    H262280   2.467   2.689   3.651 -0.1056  1.6125  0.8491
13597TIP3   OH262281   4.241   0.432  13.753 -0.1551 -0.2390  0.0801
13597TIP3    H162282   4.216   0.361  13.694  0.1633  0.3780 -0.8153
13597TIP3    H262283   4.231   0.395  13.840 -1.4047 -0.9165 -0.3260
13598TIP3   OH262284   3.199   1.262   4.933  0.3281 -0.8634  0.1749
13598TIP3    H162285   3.212   1.357   4.941  1.5482 -0.7691 -2.2094
13598TIP3    H262286   3.277   1.224   4.972  1.0650 -0.7862 -1.2072
13599TIP3   OH262287   5.992   1.623  16.061 -0.2830  0.4133  0.2075
13599TIP3    H162288   5.950   1.546  16.100 -1.3870  1.0953  0.3965
13599TIP3    H262289   6.026   1.592  15.977 -0.6135 -0.3049  0.3311
13600TIP3   OH262290   6.018   3.252   9.841 -0.1371 -0.1241  0.6099
13600TIP3    H162291   5.968   3.173   9.861  0.4368 -0.2291  1.7111
13600TIP3    H262292   6.018   3.302   9.923 -1.9643  1.8840 -0.5204
13601TIP3   OH262293   0.179   1.169   3.306 -0.5940 -0.3785 -0.5363
13601TIP3    H162294   0.137   1.207   3.383 -1.3606 -2.2519  0.0360
13601TIP3    H262295   0.253   1.119   3.342 -0.5167 -0.6679 -1.0955
13602TIP3   OH262296   5.607   5.985   3.591  0.0573 -0.6111  0.4279
13602TIP3    H162297   5.699   6.002   3.572 -0.5713  1.2951 -1.2638
13602TIP3    H262298   5.586   6.042   3.664  0.1002 -0.6775  0.4919
13603TIP3   OH262299   6.698   0.698   0.903  0.2604 -0.0515  0.8496
13603TIP3    H162300   6.637   0.713   0.831  0.2202 -0.8355  0.7197
13603TIP3    H262301   6.648   0.648   0.967  0.6777 -0.4341  0.8763
13604TIP3   OH262302   4.900   4.622  14.884 -0.1712  0.5174  0.7027
13604TIP3    H162303   4.882   4.577  14.802  1.1141  0.1437  0.6059
13604TIP3    H262304   4.954   4.697  14.859 -1.4191  1.5583  0.9896
13605TIP3   OH262305   2.870   3.698   2.816  0.3663  0.0610 -0.1559
13605TIP3    H162306   2.877   3.612   2.776 -0.5860  0.1309 -0.4833
13605TIP3    H262307   2.961   3.729   2.822  0.6627 -0.7067 -0.5802
13606TIP3   OH262308   1.063   4.525  12.620  0.4936  0.4715 -0.3217
13606TIP3    H162309   1.017   4.470  12.556  0.5339  0.2240 -0.1412
13606TIP3    H262310   1.003   4.531  12.694  0.3199  1.0113 -0.5042
13607TIP3   OH262311   2.217   0.181   2.316  0.1080 -0.2064 -0.4556
13607TIP3    H162312   2.191   0.232   2.239 -1.7672 -0.0505  0.2395
13607TIP3    H262313   2.263   0.106   2.280 -1.3652 -0.5207 -1.8063
13608TIP3   OH262314   5.787   1.381   2.700 -0.1179 -0.2415 -0.2741
13608TIP3    H162315   5.750   1.325   2.632 -1.8415  0.7809 -0.2438
13608TIP3    H262316   5.825   1.455   2.653  0.3548 -0.4504 -0.2197
13609TIP3   OH262317   4.542   5.643  14.549 -0.1868 -0.0637 -0.0407
13609TIP3    H162318   4.575   5.708  14.486  1.5270 -0.1914  0.6770
13609TIP3    H262319   4.595   5.565  14.533 -0.3541 -0.3919  0.9533
13610TIP3   OH262320   3.926   3.266  12.170  0.2384 -0.2048  0.0493
13610TIP3    H162321   3.856   3.276  12.235 -0.0526 -1.6728 -0.0091
13610TIP3    H262322   3.999   3.318  12.205 -0.1307 -0.4589  1.2373
13611TIP3   OH262323   1.903   5.789  15.137  0.2357  0.0684 -0.2583
13611TIP3    H162324   1.859   5.777  15.221  0.5373  2.7206  0.3665
13611TIP3    H262325   1.974   5.724  15.137 -2.1579 -2.7725 -0.3406
13612TIP3   OH262326   5.569   2.315  13.282  0.2840 -0.1721  0.5275
13612TIP3    H162327   5.480   2.317  13.319  0.2439  1.3730  0.4164
13612TIP3    H262328   5.571   2.235  13.230 -0.5099 -1.0505  1.7888
13613TIP3   OH262329   5.499   1.606  12.419 -0.0210 -0.3877 -0.4517
13613TIP3    H162330   5.542   1.556  12.488 -1.2666  0.5279  1.0461
13613TIP3    H262331   5.558   1.598  12.344  2.7851  0.7825  1.4499
13614TIP3   OH262332   4.340   6.407   1.652  0.1854  0.0859 -0.5418
13614TIP3    H162333   4.307   6.475   1.594 -1.9807 -0.0503  0.4472
13614TIP3    H262334   4.435   6.416   1.647  0.0149  1.4553 -2.4255
13615TIP3   OH262335   2.555   6.426   4.099 -0.2241  0.3198 -0.5297
13615TIP3    H162336   2.641   6.469   4.096  0.4893 -1.0597 -0.8952
13615TIP3    H262337   2.493   6.496   4.080  0.7804  1.4387  0.1335
13616TIP3   OH262338   2.670   0.270   4.307  0.4905 -0.0672 -0.1764
13616TIP3    H162339   2.588   0.252   4.351  0.5090  1.0295  0.3393
13616TIP3    H262340   2.694   0.358   4.336  2.7218 -0.9997  1.0551
13617TIP3   OH262341   4.463   0.989   4.891  0.1579 -0.0382 -0.2927
13617TIP3    H162342   4.380   0.973   4.845  0.4619  0.6890 -1.1328
13617TIP3    H262343   4.499   0.902   4.906  0.4995 -0.3103 -2.3382
13618TIP3   OH262344   0.487   6.594  13.838  0.2557  0.1592  0.7889
13618TIP3    H162345   0.529   6.676  13.864  0.8211  0.0888  0.1109
13618TIP3    H262346   0.558   6.530  13.833 -0.1303 -0.2958  0.9673
13619TIP3   OH262347   6.066   6.343   6.103 -0.1340 -0.3648 -0.1849
13619TIP3    H162348   6.062   6.382   6.190  0.5628  0.2898 -0.4410
13619TIP3    H262349   5.985   6.292   6.096 -1.1194  1.0896  0.1166
13620TIP3   OH262350   6.839   2.579  11.207 -0.3209 -0.6482 -0.0921
13620TIP3    H162351   6.890   2.607  11.131 -0.1279 -0.7161  0.0118
13620TIP3    H262352   6.794   2.659  11.237 -0.6888 -0.6981 -0.4972
13621TIP3   OH262353   4.393   1.547  13.907  0.1740 -0.0924  0.2815
13621TIP3    H162354   4.386   1.632  13.950 -0.9276 -1.1092  2.2332
13621TIP3    H262355   4.475   1.510  13.939 -0.0112 -0.3148  0.5021
13622TIP3   OH262356   2.589   2.616   6.260  0.1331  0.1802 -0.3180
13622TIP3    H162357   2.634   2.541   6.300 -0.4228  0.3017  0.5620
13622TIP3    H262358   2.525   2.643   6.325  0.1332  1.2563 -0.7410
13623TIP3   OH262359   0.407   0.839  15.255  0.6169 -0.2403  0.3502
13623TIP3    H162360   0.458   0.892  15.193 -1.1048 -0.5357 -1.4228
13623TIP3    H262361   0.468   0.774  15.288  1.5169 -0.2802 -1.3300
13624TIP3   OH262362   0.291   0.886   3.473 -0.0311 -0.1481 -0.4972
13624TIP3    H162363   0.318   0.821   3.408  0.6536 -1.0736  0.6823
13624TIP3    H262364   0.366   0.945   3.480 -0.1623  0.0374 -0.6436
13625TIP3   OH262365   4.512   6.182  16.133  0.0454  0.5779  0.4809
13625TIP3    H162366   4.508   6.093  16.167 -2.4020  1.4570  2.9686
13625TIP3    H262367   4.496   6.173  16.039  1.9033 -1.6707  0.2931
13626TIP3   OH262368   6.755   1.979  16.067  0.1732  0.2924  0.1178
13626TIP3    H162369   6.828   2.021  16.113 -0.3586 -0.1958  1.4718
13626TIP3    H262370   6.682   2.039  16.078 -0.1118 -0.1074  0.4623
13627TIP3   OH262371   1.546   5.286   2.743  0.1506  0.5584  0.2156
13627TIP3    H162372   1.638   5.261   2.732 -0.1275 -0.7912  0.7932
13627TIP3    H262373   1.497   5.221   2.693 -0.5059  1.2451 -0.0504
13628TIP3   OH262374   2.607   5.399   2.105 -0.0064  0.0867  0.2767
13628TIP3    H162375   2.603   5.392   2.201  0.8598 -1.7958  0.2224
13628TIP3    H262376   2.515   5.413   2.079 -0.1357  1.6261  1.3941
13629TIP3   OH262377   0.553   3.231   2.549 -0.9023  0.3880 -0.8379
13629TIP3    H162378   0.588   3.318   2.530 -0.4671  1.1959  2.9311
13629TIP3    H262379   0.631   3.176   2.564 -1.1910 -0.0505 -0.9255
13630TIP3   OH262380   5.655   6.692  14.560 -0.0841  0.7572 -0.6066
13630TIP3    H162381   5.648   6.761  14.626 -1.6683  1.5381 -1.5385
13630TIP3    H262382   5.584   6.710  14.498 -0.3190 -1.4872 -1.0950
13631TIP3   OH262383   0.874   6.801  11.426 -0.0054 -0.2097 -0.2471
13631TIP3    H162384   0.788   6.820  11.388 -0.1991 -1.0888 -0.2621
13631TIP3    H262385   0.898   6.715  11.391  1.0777  0.2154 -0.5850
13632TIP3   OH262386   0.504   6.277  12.566 -0.4006 -0.2140  0.1821
13632TIP3    H162387   0.509   6.238  12.653 -0.1450 -2.1687 -0.6474
13632TIP3    H262388   0.412   6.302  12.557 -0.4038  0.1231  1.0530
13633TIP3   OH262389   5.027   1.194  15.639 -0.3183  0.3049  0.9355
13633TIP3    H162390   5.086   1.235  15.702 -0.2207 -1.8165  2.3242
13633TIP3    H262391   5.073   1.115  15.610 -0.4918  1.0408 -1.6302
13634TIP3   OH262392   5.295   3.263  10.039 -0.0489 -0.5582 -0.6703
13634TIP3    H162393   5.324   3.348  10.071  0.1758 -0.3149 -1.4897
13634TIP3    H262394   5.199   3.267  10.040 -0.0819 -1.0957  1.3493
13635TIP3   OH262395   1.535   0.564  14.803 -0.2325 -0.6941 -0.4137
13635TIP3    H162396   1.586   0.560  14.722  1.6213 -1.3038  0.7178
13635TIP3    H262397   1.444   0.565  14.774  0.3886 -0.0037 -2.5171
13636TIP3   OH262398   1.596   3.261   4.350 -0.0257 -0.7178 -0.7333
13636TIP3    H162399   1.665   3.327   4.353  0.3482 -1.1205 -0.2869
13636TIP3    H262400   1.643   3.179   4.335 -0.5851 -0.7320 -2.7657
13637TIP3   OH262401   2.432   4.616   1.981  0.4404 -0.2559 -0.1012
13637TIP3    H162402   2.415   4.605   1.887  0.7455 -0.0978 -0.1764
13637TIP3    H262403   2.347   4.641   2.018  0.1449 -1.0464 -0.2163
13638TIP3   OH262404   5.089   2.906   5.455 -0.1796  0.1779 -0.1130
13638TIP3    H162405   5.123   2.952   5.531  2.1913 -0.3001 -0.8145
13638TIP3    H262406   5.164   2.860   5.419 -1.7812 -1.6834 -1.2796
13639TIP3   OH262407   6.054   2.366  14.593  0.4549 -0.5280  0.2670
13639TIP3    H162408   6.136   2.365  14.643  0.6937  0.7823 -0.0610
13639TIP3    H262409   6.080   2.399  14.507 -0.1240 -1.8154 -0.4377
13640TIP3   OH262410   1.564   6.579   1.197  0.1079  0.0268  0.4606
13640TIP3    H162411   1.634   6.528   1.238  1.0799  0.2615 -0.8124
13640TIP3    H262412   1.594   6.591   1.107 -0.8162  1.5657  0.3324
13641TIP3   OH262413   2.890   5.173  12.049 -0.0434  0.0134 -0.0062
13641TIP3    H162414   2.820   5.144  12.108 -0.2613  1.2513  0.3669
13641TIP3    H262415   2.943   5.094  12.035 -2.1063 -1.2712 -1.1908
13642TIP3   OH262416   2.028   1.799  16.531 -0.3663 -0.2987  0.0207
13642TIP3    H162417   2.017   1.739  16.605  0.3771  0.7170  0.9902
13642TIP3    H262418   1.942   1.800  16.488 -0.6551 -1.3054  0.5527
13643TIP3   OH262419   3.208   4.987   1.381 -0.2656 -0.1644 -0.2063
13643TIP3    H162420   3.139   4.963   1.318 -1.4502  0.5348  0.7804
13643TIP3    H262421   3.232   4.904   1.423 -0.2772 -0.4613 -0.7779
13644TIP3   OH262422   5.404   1.980  11.604  0.0259  0.1895 -0.4771
13644TIP3    H162423   5.340   1.948  11.542 -0.6430  2.5802 -1.1097
13644TIP3    H262424   5.428   2.067  11.572  1.5682  0.4643  1.2286
13645TIP3   OH262425   1.522   2.672  15.434  0.4984 -0.0919  0.0781
13645TIP3    H162426   1.565   2.735  15.492  1.5333 -0.8045  0.1229
13645TIP3    H262427   1.466   2.621  15.491 -0.9587  1.2647 -0.0788
13646TIP3   OH262428   0.522   2.801  13.723  0.1387 -0.0623  0.4593
13646TIP3    H162429   0.565   2.716  13.718 -0.4761 -0.5670  2.7586
13646TIP3    H262430   0.540   2.842  13.638 -0.7046 -2.9829 -1.2435
13647TIP3   OH262431   6.351   3.555  11.989 -0.1157 -0.2063 -0.0013
13647TIP3    H162432   6.401   3.524  12.064 -1.3565  0.2159  1.0391
13647TIP3    H262433   6.307   3.477  11.956  1.5339 -0.6856 -1.2376
13648TIP3   OH262434   4.499   5.440   0.169  0.6544  0.3800  0.0629
13648TIP3    H162435   4.541   5.526   0.167  1.2097  0.1318  0.5668
13648TIP3    H262436   4.456   5.431   0.084 -2.5851  2.6938  1.2690
13649TIP3   OH262437   4.153   5.265  15.237 -0.1500  0.4499  0.0137
13649TIP3    H162438   4.174   5.347  15.282 -0.9279  0.4576  0.3961
13649TIP3    H262439   4.191   5.275  15.150  1.4313  0.4180  0.6628
13650TIP3   OH262440   2.845   6.811  16.967 -0.3153 -0.4215 -0.7247
13650TIP3    H162441   2.919   6.841  16.914 -1.7369  1.6010 -1.6948
13650TIP3    H262442   2.769   6.853  16.927 -2.3427 -4.0438 -1.0846
13651TIP3   OH262443   0.233   4.801  13.381  0.2774 -0.0787  0.2409
13651TIP3    H162444   0.154   4.838  13.341  2.0537  2.9530 -0.7464
13651TIP3    H262445   0.287   4.775  13.307  0.6686 -1.1872  0.8921
13652TIP3   OH262446   3.901   0.795   4.372  0.5652 -0.1253  0.6524
13652TIP3    H162447   3.945   0.713   4.348  1.9329  0.2052  1.8703
13652TIP3    H262448   3.849   0.773   4.449  0.9974  0.1622  1.0296
13653TIP3   OH262449   5.734   6.406   4.718  0.1500 -0.1865  0.0467
13653TIP3    H162450   5.726   6.418   4.812  0.4960 -0.8166  0.1614
13653TIP3    H262451   5.646   6.381   4.689 -0.2221  1.0755  0.0265
13654TIP3   OH262452   4.309   3.082   6.436  0.5059  0.1853  0.1241
13654TIP3    H162453   4.346   3.124   6.514 -1.7360  1.9018  0.3688
13654TIP3    H262454   4.303   2.989   6.460 -3.1872  1.0083  3.5346
13655TIP3   OH262455   2.886   4.031  13.637 -0.2251  0.1554 -0.3704
13655TIP3    H162456   2.982   4.027  13.634 -0.2031 -0.2273  0.4481
13655TIP3    H262457   2.859   3.940  13.653 -0.5358  0.6653  2.7584
13656TIP3   OH262458   3.112   3.450  16.328 -0.2680  0.1344 -0.3474
13656TIP3    H162459   3.190   3.458  16.273  1.0536  1.0546  1.5587
13656TIP3    H262460   3.126   3.369  16.378  0.7364  1.5225  1.7686
13657TIP3   OH262461   3.726   2.238   5.070 -0.6419  0.0975  0.2602
13657TIP3    H162462   3.744   2.144   5.072  0.6939  0.2020 -2.3535
13657TIP3    H262463   3.778   2.274   5.142 -0.6348 -1.0639  0.8670
13658TIP3   OH262464   5.629   3.746  13.859  0.0467 -0.3303 -0.5923
13658TIP3    H162465   5.695   3.726  13.793 -1.1714  0.4852 -2.1172
13658TIP3    H262466   5.563   3.798  13.813 -1.2091 -0.3283  1.0936
13659TIP3   OH262467   0.496   6.076  15.230  0.0974 -0.2140  0.3870
13659TIP3    H162468   0.419   6.127  15.255 -0.3801 -0.5763 -0.2979
13659TIP3    H262469   0.568   6.139  15.229 -0.6893  0.7205 -1.5507
13660TIP3   OH262470   4.756   4.906  11.350  0.3221  0.0198  0.3761
13660TIP3    H162471   4.719   4.991  11.373  0.2887  0.0284  0.2904
13660TIP3    H262472   4.790   4.917  11.261 -2.0704 -0.8060 -0.7152
13661TIP3   OH262473   5.032   4.640   5.977 -0.3278  0.1165 -0.2535
13661TIP3    H162474   5.044   4.703   5.906 -1.2327  0.8522  0.2161
13661TIP3    H262475   5.013   4.694   6.053 -0.2850 -0.7011  0.3458
13662TIP3   OH262476   3.678   6.096  11.954  0.2351  0.4756 -0.2661
13662TIP3    H162477   3.697   6.181  11.915 -0.2868  0.6132 -0.2366
13662TIP3    H262478   3.702   6.106  12.046  1.8266  0.0285 -0.6111
13663TIP3   OH262479   2.647   5.763  11.136  0.6234  0.3991 -0.5061
13663TIP3    H162480   2.713   5.830  11.118 -0.3907  1.1127 -1.7025
13663TIP3    H262481   2.626   5.725  11.051  1.4986 -1.8081  0.1879
13664TIP3   OH262482   4.289   0.788  13.444  0.1916 -0.3167  0.7100
13664TIP3    H162483   4.228   0.756  13.377 -0.2771 -0.4584  1.1979
13664TIP3    H262484   4.370   0.740  13.427 -0.5632 -1.9825  1.5787
13665TIP3   OH262485   3.016   4.090   7.264 -0.2724  0.3332 -0.3879
13665TIP3    H162486   2.979   4.171   7.298 -0.0553  0.2649  0.0235
13665TIP3    H262487   3.023   4.103   7.170  2.5989  1.9512 -0.0337
13666TIP3   OH262488   2.299   4.693   0.727 -0.3500 -0.7085 -0.2880
13666TIP3    H162489   2.247   4.716   0.650 -0.9373 -1.7470 -0.2212
13666TIP3    H262490   2.234   4.663   0.791  0.2011 -0.5533  0.3455
13667TIP3   OH262491   2.585   3.772   5.322 -0.3193  0.4906  0.3905
13667TIP3    H162492   2.517   3.830   5.356  0.1282  0.6137  1.0957
13667TIP3    H262493   2.617   3.816   5.243 -1.7947 -0.1022 -0.5885
13668TIP3   OH262494   0.590   3.638   3.495  0.1271  0.4946 -0.2977
13668TIP3    H162495   0.646   3.561   3.496 -2.6622 -1.7142  0.7031
13668TIP3    H262496   0.615   3.688   3.573 -0.6116 -1.5624  1.3471
13669TIP3   OH262497   0.481   0.035  14.158  0.0660 -0.5735  0.0933
13669TIP3    H162498   0.417  -0.027  14.193 -0.0170 -0.6388 -0.1692
13669TIP3    H262499   0.501   0.093  14.231  0.2659 -1.0083  0.3890
13670TIP3   OH262500   2.981   6.285   1.182 -0.2397  0.1582 -0.1357
13670TIP3    H162501   2.997   6.379   1.192 -2.0819  0.4168  0.8724
13670TIP3    H262502   2.911   6.266   1.244 -0.9545 -1.5917 -1.3959
13671TIP3   OH262503   2.131   3.819  11.329  0.7576 -0.4424 -0.1207
13671TIP3    H162504   2.101   3.833  11.239  2.8298  0.6375 -0.7030
13671TIP3    H262505   2.203   3.881  11.340  1.5315 -1.6095  1.7867
13672TIP3   OH262506   2.211   3.679   2.449 -0.0685 -0.1180  0.1712
13672TIP3    H162507   2.268   3.733   2.394 -0.7495  0.4801  0.0481
13672TIP3    H262508   2.263   3.664   2.528  0.7226 -0.5722 -0.4149
13673TIP3   OH262509   6.163   6.351   1.460  0.1081 -0.0908 -0.0374
13673TIP3    H162510   6.218   6.278   1.488  1.4094  0.9952  0.3727
13673TIP3    H262511   6.149   6.336   1.366 -2.8470 -2.8339  0.6709
13674TIP3   OH262512   3.113   6.453   0.694 -0.0856  0.0839 -0.1987
13674TIP3    H162513   3.040   6.461   0.632 -0.7255  0.3342  0.5606
13674TIP3    H262514   3.093   6.517   0.762  1.5686  1.1343 -0.6634
13675TIP3   OH262515   1.171   5.054   1.468 -0.3823  0.0307 -0.1258
13675TIP3    H162516   1.100   5.095   1.519 -0.9489  0.6884 -1.4089
13675TIP3    H262517   1.165   5.094   1.382  0.7810 -0.8223 -0.6254
13676TIP3   OH262518   5.587   5.532  16.572 -0.7164 -0.7483  0.4688
13676TIP3    H162519   5.623   5.609  16.616 -0.0451  1.0438 -2.9033
13676TIP3    H262520   5.663   5.475  16.559 -0.2463  0.1342 -0.9623
13677TIP3   OH262521   0.555   3.005   3.308 -0.3219  0.0716  0.2802
13677TIP3    H162522   0.536   3.098   3.324 -2.8146 -0.5097  1.2461
13677TIP3    H262523   0.627   3.006   3.245 -1.4828  2.7052 -1.2095
13678TIP3   OH262524   0.294   3.320   1.605 -0.1794  0.0634 -0.4045
13678TIP3    H162525   0.351   3.328   1.529  1.9523 -1.1643  0.9575
13678TIP3    H262526   0.317   3.236   1.644 -2.1740  0.0260  0.8575
13679TIP3   OH262527   5.647   2.726   0.783 -0.1217 -0.3838 -0.1968
13679TIP3    H162528   5.630   2.640   0.746  0.6691 -0.5571 -0.1714
13679TIP3    H262529   5.723   2.713   0.839  0.6123  0.5377 -0.9515
13680TIP3   OH262530   6.285   3.678   2.242  0.1482 -0.4391 -0.1303
13680TIP3    H162531   6.338   3.643   2.171  0.9020  0.9695 -0.2933
13680TIP3    H262532   6.346   3.688   2.315 -0.0407  0.5108 -0.0902
13681TIP3   OH262533   3.543   1.299   6.450 -0.0560 -0.1255  0.6252
13681TIP3    H162534   3.460   1.260   6.423 -1.1876  2.1081  0.6053
13681TIP3    H262535   3.569   1.354   6.376  0.2175  0.9633  1.4953
13682TIP3   OH262536   1.395   4.194   0.773  0.0961 -0.4264 -0.0057
13682TIP3    H162537   1.308   4.189   0.733 -0.3896  0.3501  0.9328
13682TIP3    H262538   1.455   4.165   0.703 -0.8615 -0.5240 -0.8063
13683TIP3   OH262539   4.676   3.717   4.840 -0.1770  0.8636 -0.1711
13683TIP3    H162540   4.644   3.636   4.801  0.6691 -0.1192  1.0850
13683TIP3    H262541   4.597   3.759   4.876 -0.6945  0.8990 -1.2936
13684TIP3   OH262542   4.762   4.644   1.446  0.4792  0.1164 -0.5240
13684TIP3    H162543   4.764   4.624   1.353  0.5786  2.1452 -1.0051
13684TIP3    H262544   4.704   4.720   1.453  1.6607  0.9589  0.8379
13685TIP3   OH262545   5.283   3.899   2.017  0.2268 -0.3218  0.2636
13685TIP3    H162546   5.332   3.908   1.935 -0.1472  0.0073  0.0711
13685TIP3    H262547   5.237   3.815   2.008 -0.8094  0.2941 -0.4169
13686TIP3   OH262548   0.959   2.218  15.779  0.6412 -0.3595 -0.0681
13686TIP3    H162549   1.007   2.140  15.808  0.4089 -0.5667 -0.2367
13686TIP3    H262550   0.871   2.207  15.814  1.2821  1.1677  2.2861
13687TIP3   OH262551   5.131   2.130   0.160  0.0204 -0.4437 -0.1241
13687TIP3    H162552   5.177   2.074   0.223  1.2786 -0.0622 -0.6751
13687TIP3    H262553   5.184   2.126   0.081 -0.4109  0.7275 -0.4912
13688TIP3   OH262554   2.554   3.073  11.669 -0.1300 -0.0647 -0.5156
13688TIP3    H162555   2.471   3.116  11.647  0.0387  1.3329  1.3602
13688TIP3    H262556   2.621   3.129  11.632  0.0304  0.0535 -0.0541
13689TIP3   OH262557   4.855   2.496  14.811 -0.4675  1.1910 -0.4744
13689TIP3    H162558   4.910   2.494  14.732  1.7788  1.5238  0.9750
13689TIP3    H262559   4.914   2.527  14.880 -1.9430 -0.3813  1.6302
13690TIP3   OH262560   4.248   6.099   2.025 -0.4533  0.4712  0.0253
13690TIP3    H162561   4.342   6.115   2.024 -0.3115 -0.0876  1.5277
13690TIP3    H262562   4.215   6.140   1.945  1.2994 -0.8781 -1.4464
13691TIP3   OH262563   5.427   2.600   0.485 -0.5778 -0.5797  0.2088
13691TIP3    H162564   5.483   2.558   0.420  0.7731 -0.5939  1.3581
13691TIP3    H262565   5.395   2.679   0.441  2.1865  0.6720  0.2503
13692TIP3   OH262566   6.266   3.732  16.345 -0.0462  0.8468 -0.1847
13692TIP3    H162567   6.325   3.660  16.326 -0.8046 -0.2484  1.4278
13692TIP3    H262568   6.192   3.718  16.284  0.8103  1.6001 -1.4434
13693TIP3   OH262569   1.135   2.892  10.959  0.5462 -0.0607 -0.3086
13693TIP3    H162570   1.069   2.875  10.892  0.0179 -2.0677  0.6471
13693TIP3    H262571   1.121   2.984  10.983 -1.4719 -0.2318 -0.6112
13694TIP3   OH262572   2.731   0.021   2.714 -0.2234 -0.2853 -0.1224
13694TIP3    H162573   2.762  -0.043   2.778  2.1104  0.2742 -0.6352
13694TIP3    H262574   2.770  -0.006   2.631  2.2486  2.6519 -0.0534
13695TIP3   OH262575   4.477   1.375   1.875 -0.1326 -0.3415  0.0825
13695TIP3    H162576   4.483   1.412   1.963 -3.2562 -0.7347  0.5972
13695TIP3    H262577   4.534   1.298   1.876 -2.0144 -1.8670  2.7203
13696TIP3   OH262578   5.919   3.573   6.027 -0.6678 -0.3804  0.2493
13696TIP3    H162579   5.846   3.568   6.090  0.1876  0.3731  1.3532
13696TIP3    H262580   5.951   3.484   6.021  0.0238 -0.2793  1.8935
13697TIP3   OH262581   4.904   2.214  12.361 -0.0512  0.2639  0.4166
13697TIP3    H162582   4.817   2.240  12.392  0.2997  0.4026  1.3137
13697TIP3    H262583   4.904   2.119  12.367  0.0136  0.2899  0.8558
13698TIP3   OH262584   4.335   1.858   2.465 -0.3563 -0.1424  0.3192
13698TIP3    H162585   4.398   1.855   2.536 -0.2659 -1.7360  0.2054
13698TIP3    H262586   4.251   1.837   2.506 -0.3739 -0.6255  0.0488
13699TIP3   OH262587   2.201   2.082  11.975  0.6177  0.3593  0.1335
13699TIP3    H162588   2.235   2.057  11.889  0.4236  1.1722 -0.1908
13699TIP3    H262589   2.274   2.069  12.035  0.2756 -1.7865  0.1394
13700TIP3   OH262590   1.243   6.331   2.765 -0.8939  0.5552 -0.4514
13700TIP3    H162591   1.251   6.374   2.680 -0.9878  1.2131 -0.1339
13700TIP3    H262592   1.299   6.383   2.823  0.8951 -1.1334 -0.5602
13701TIP3   OH262593   5.202   3.795  14.898  0.3759 -0.7870 -0.1224
13701TIP3    H162594   5.115   3.819  14.930  0.3049 -0.5743 -0.4696
13701TIP3    H262595   5.195   3.701  14.881  0.2057 -0.7674 -0.1686
13702TIP3   OH262596   1.303   3.964   6.551 -0.4839  0.2649 -1.3420
13702TIP3    H162597   1.313   3.918   6.468  0.6983  1.7852 -2.1010
13702TIP3    H262598   1.265   4.048   6.528 -0.9579  0.3870 -0.2100
13703TIP3   OH262599   4.797   1.345  15.758  0.3124  0.2849  0.3216
13703TIP3    H162600   4.822   1.437  15.744 -2.6274  0.7867 -3.4050
13703TIP3    H262601   4.864   1.295  15.711 -0.1875  0.8788 -1.0751
13704TIP3   OH262602   5.696   1.210  12.364  0.0427 -0.5862  0.1122
13704TIP3    H162603   5.655   1.146  12.423  0.9598 -2.7113 -1.4395
13704TIP3    H262604   5.658   1.191  12.278 -0.5461  1.8009 -0.2230
13705TIP3   OH262605   2.658   2.548   5.395  0.0375  0.0877  0.2077
13705TIP3    H162606   2.651   2.620   5.332  0.6643  0.3376  0.4117
13705TIP3    H262607   2.665   2.469   5.342  0.4470  0.2854 -0.0306
13706TIP3   OH262608   0.476   4.772   6.455 -0.3504  0.1567  0.1692
13706TIP3    H162609   0.416   4.805   6.522  0.3146  2.6058 -0.3061
13706TIP3    H262610   0.532   4.710   6.502 -1.7026 -0.3560  1.1747
13707TIP3   OH262611   5.775   6.514   0.661 -0.0405  1.0313 -0.1794
13707TIP3    H162612   5.770   6.582   0.727 -1.0762  0.3441  0.4918
13707TIP3    H262613   5.788   6.561   0.579  0.5821  1.9398  0.4282
13708TIP3   OH262614   3.597   1.228  12.921  0.1314  0.0342  0.1592
13708TIP3    H162615   3.569   1.281  12.996 -0.5015 -2.1942  1.5887
13708TIP3    H262616   3.684   1.197  12.945  0.5354  0.4718 -0.7083
13709TIP3   OH262617   0.166   2.309   0.077  0.4186  0.3336  0.3958
13709TIP3    H162618   0.148   2.215   0.076  0.4115  0.3310 -0.9877
13709TIP3    H262619   0.179   2.330   0.169  0.9440 -1.1261  0.6788
13710TIP3   OH262620   4.133   5.508   6.043  0.3536 -0.2262  0.1890
13710TIP3    H162621   4.224   5.503   6.014  0.3817 -2.2772  0.5166
13710TIP3    H262622   4.084   5.533   5.965  1.2569  1.7426  0.2005
13711TIP3   OH262623   6.062   0.446   0.902  0.0821  0.4955 -0.1336
13711TIP3    H162624   6.065   0.356   0.934  1.6129  0.4221 -0.3985
13711TIP3    H262625   5.993   0.488   0.953  1.4105 -0.0055  2.1765
13712TIP3   OH262626   6.231   0.258   4.914 -0.1508  0.3832  0.3993
13712TIP3    H162627   6.291   0.323   4.877  0.8549 -0.8026 -0.1322
13712TIP3    H262628   6.280   0.218   4.985 -0.4592 -0.3109  0.2288
13713TIP3   OH262629   1.640   0.093  16.508 -0.5518  0.0566  0.4571
13713TIP3    H162630   1.632   0.015  16.452  0.0860  0.5175 -0.2885
13713TIP3    H262631   1.583   0.074  16.583  0.4802 -1.6227  0.8632
13714TIP3   OH262632   2.323   3.670  15.547  0.7681  0.6248 -0.3639
13714TIP3    H162633   2.413   3.702  15.540  1.3701 -0.1046  2.6579
13714TIP3    H262634   2.333   3.576  15.564 -0.2531  1.0137  3.3202
13715TIP3   OH262635   1.516   3.292  16.033  0.4496  0.2589 -0.1463
13715TIP3    H162636   1.478   3.377  16.053  1.9519  0.7643  0.6782
13715TIP3    H262637   1.542   3.299  15.941  0.3940  0.6231 -0.1370
13716TIP3   OH262638   0.559   3.136  16.278  0.4218 -0.9353 -0.4279
13716TIP3    H162639   0.523   3.212  16.324  1.5421  0.7856 -2.2228
13716TIP3    H262640   0.529   3.147  16.188 -0.5447 -3.4397 -0.4749
13717TIP3   OH262641   2.685   4.604   0.228 -0.5313  0.1291 -0.2438
13717TIP3    H162642   2.624   4.615   0.302  0.0772 -1.3394  0.5082
13717TIP3    H262643   2.682   4.689   0.183 -0.6967  1.1828  1.6221
13718TIP3   OH262644   0.549   6.846   6.161  0.2421  0.2948 -0.6468
13718TIP3    H162645   0.527   6.938   6.144  1.0034  1.1310  2.2952
13718TIP3    H262646   0.644   6.843   6.157  0.3463  0.1427  1.2687
13719TIP3   OH262647   0.896   6.606  11.881 -0.7650  0.1165  0.1983
13719TIP3    H162648   0.949   6.561  11.814 -1.0400  0.0834  0.0020
13719TIP3    H262649   0.856   6.535  11.932 -0.0920  0.1388  0.7725
13720TIP3   OH262650   2.986   4.456   2.302  0.0552 -0.0590 -0.3499
13720TIP3    H162651   2.965   4.365   2.323 -1.6610 -0.0758 -1.9291
13720TIP3    H262652   3.069   4.450   2.255 -0.4240 -0.9163 -1.1245
13721TIP3   OH262653   3.159   4.717  12.717 -0.5096  0.6376  0.3429
13721TIP3    H162654   3.207   4.799  12.712 -0.9220  1.1400  2.9580
13721TIP3    H262655   3.223   4.655  12.752 -0.5070  0.0883 -0.5940
13722TIP3   OH262656   2.027   4.118   3.107  0.3651 -0.1395 -0.2052
13722TIP3    H162657   2.052   4.037   3.063  1.9565 -0.9146  1.9508
13722TIP3    H262658   1.931   4.120   3.101  0.1225 -3.0667  1.1138
13723TIP3   OH262659   2.272   5.844   1.630  0.0771  0.2121  0.2494
13723TIP3    H162660   2.310   5.911   1.686  0.7072  1.9148 -2.0696
13723TIP3    H262661   2.212   5.891   1.573 -0.7385 -1.4742 -0.3531
13724TIP3   OH262662   1.630   4.753   1.433  0.3759  0.0226 -0.3915
13724TIP3    H162663   1.565   4.739   1.502  0.0642  0.1697 -0.6517
13724TIP3    H262664   1.701   4.691   1.453 -0.6323 -1.4072 -1.1210
13725TIP3   OH262665   3.736   0.176  14.506 -0.4498  0.4567  0.0853
13725TIP3    H162666   3.679   0.105  14.477  0.0173  0.7193 -1.6059
13725TIP3    H262667   3.741   0.235  14.430  0.1426  1.6690  1.0269
13726TIP3   OH262668   0.422   5.217   1.073 -0.8279 -0.2000 -0.0665
13726TIP3    H162669   0.377   5.288   1.028  1.3111  1.1588 -0.2567
13726TIP3    H262670   0.490   5.189   1.012 -0.5631 -1.2390  0.6754
13727TIP3   OH262671   1.191   2.566  13.453  0.0378 -0.5218 -0.4389
13727TIP3    H162672   1.109   2.517  13.463  0.6624 -1.5733 -0.2240
13727TIP3    H262673   1.199   2.581  13.359  0.2884 -1.6887 -0.6222
13728TIP3   OH262674   5.768   0.476  17.066 -0.3628 -0.1619  0.2445
13728TIP3    H162675   5.727   0.391  17.079  0.0341 -0.1846  1.4320
13728TIP3    H262676   5.724   0.533  17.129  0.4231  0.1545  0.5111
13729TIP3   OH262677   6.093   2.486  14.295 -0.2571 -0.4388  0.1445
13729TIP3    H162678   6.087   2.548  14.223 -0.1308  0.8005  1.1588
13729TIP3    H262679   6.014   2.503  14.347 -0.4107 -1.3961  0.2397
13730TIP3   OH262680   6.741   5.294   2.362 -0.2365 -0.0613 -0.1627
13730TIP3    H162681   6.652   5.294   2.397 -0.3979 -0.3822 -0.5643
13730TIP3    H262682   6.732   5.324   2.272  0.0797  0.0437 -0.1604
13731TIP3   OH262683   0.725   5.452   1.735 -0.2518  0.0171  0.2502
13731TIP3    H162684   0.788   5.522   1.720 -0.4961 -0.1535 -1.7914
13731TIP3    H262685   0.779   5.375   1.754  0.3819 -0.5224 -3.0534
13732TIP3   OH262686   6.266   3.203   5.536  0.1162  0.3506 -0.4333
13732TIP3    H162687   6.310   3.273   5.583  2.2589  0.5046 -2.4593
13732TIP3    H262688   6.336   3.139   5.518 -1.3615 -1.3699 -0.3724
13733TIP3   OH262689   1.893   1.502  14.459 -0.0563 -0.5426  0.4294
13733TIP3    H162690   1.940   1.539  14.533 -0.8526 -0.3948  0.8711
13733TIP3    H262691   1.812   1.553  14.453  0.6792  0.5430 -1.5529
13734TIP3   OH262692   4.892   3.021  13.428  0.2595  0.2129  0.1892
13734TIP3    H162693   4.841   3.012  13.509  0.8626 -1.8688  0.3836
13734TIP3    H262694   4.981   3.038  13.458  0.2327  0.9294 -0.1014
13735TIP3   OH262695   1.599   5.522   4.757 -0.0398  0.5026 -0.0301
13735TIP3    H162696   1.557   5.596   4.801 -0.2445 -1.4121  3.2863
13735TIP3    H262697   1.535   5.494   4.691 -1.7758  0.7622  1.4769
13736TIP3   OH262698   3.248   2.055  15.045 -0.1694  0.2519  0.5699
13736TIP3    H162699   3.180   2.031  15.108 -0.7599 -1.0171 -0.4984
13736TIP3    H262700   3.326   2.008  15.074 -0.1160  0.5972  0.9987
13737TIP3   OH262701   6.108   4.390   3.903 -0.1723 -0.0493  0.0676
13737TIP3    H162702   6.130   4.359   3.991 -0.4498  0.8976  0.4750
13737TIP3    H262703   6.055   4.320   3.865 -1.3184  0.1766  1.2076
13738TIP3   OH262704   0.273   5.056   0.827 -0.5642 -0.4647  0.1371
13738TIP3    H162705   0.201   5.119   0.832 -1.3687 -1.3877  0.3815
13738TIP3    H262706   0.231   4.971   0.818  0.5149 -0.9597 -0.4898
13739TIP3   OH262707   0.282   0.265   4.846 -0.6342 -0.0791  0.2800
13739TIP3    H162708   0.291   0.316   4.927  0.4050  0.4039 -0.1161
13739TIP3    H262709   0.353   0.297   4.791 -2.3676  0.8832 -1.5126
13740TIP3   OH262710   1.926   4.744  13.682 -0.5338 -0.5242 -0.4632
13740TIP3    H162711   1.988   4.731  13.611 -0.3911 -0.9331 -0.2625
13740TIP3    H262712   1.965   4.700  13.757 -0.3837  0.4406  0.0362
13741TIP3   OH262713   4.518   3.207  12.925 -0.3959  0.2399  0.1804
13741TIP3    H162714   4.485   3.190  13.014  0.0492  1.0581  0.5078
13741TIP3    H262715   4.440   3.199  12.869 -0.8434  0.5426  0.7468
13742TIP3   OH262716   0.290   0.384  14.585 -0.4427  0.4441 -0.5193
13742TIP3    H162717   0.210   0.434  14.568  0.2515  1.1526 -1.7596
13742TIP3    H262718   0.330   0.427  14.661 -1.0289  0.3079 -0.1217
13743TIP3   OH262719   3.441   1.013  11.944 -0.5632  0.3473  0.1489
13743TIP3    H162720   3.487   1.066  11.879  0.9088 -0.8859  0.1331
13743TIP3    H262721   3.509   0.988  12.007 -1.9964  1.8566  2.4856
13744TIP3   OH262722   4.980   5.368  13.901 -0.1319  0.1240 -0.1563
13744TIP3    H162723   4.974   5.434  13.970 -2.2033 -0.4522  0.3040
13744TIP3    H262724   4.996   5.286  13.947 -1.4124 -0.2452 -0.3220
13745TIP3   OH262725   2.096   6.117   5.022 -0.2417  0.4862  0.0213
13745TIP3    H162726   2.077   6.045   4.962 -0.0285  1.1079 -0.8115
13745TIP3    H262727   2.184   6.098   5.056  1.0375  1.7311 -2.3330
13746TIP3   OH262728   1.258   3.343  11.946  0.0345 -0.0010 -0.6145
13746TIP3    H162729   1.273   3.308  12.034  1.3044  1.3592 -0.2514
13746TIP3    H262730   1.318   3.294  11.890 -0.2814 -0.3914 -0.6174
13747TIP3   OH262731   6.823   3.878   0.431  0.3204  0.1503 -0.0952
13747TIP3    H162732   6.766   3.801   0.428 -1.0932  0.9277  2.9649
13747TIP3    H262733   6.765   3.949   0.456  1.9404  1.9006 -1.0587
13748TIP3   OH262734   4.113   2.145  12.585 -0.3568  0.1408  0.1674
13748TIP3    H162735   4.022   2.136  12.558 -0.8121  0.6088  1.4687
13748TIP3    H262736   4.139   2.232  12.555 -0.6044  0.3339  0.5025
13749TIP3   OH262737   4.688   4.707  14.106  0.2111  0.1574 -0.4013
13749TIP3    H162738   4.738   4.754  14.039 -0.1111  1.5253  0.2948
13749TIP3    H262739   4.600   4.744  14.101 -0.0142 -0.2677  0.2611
13750TIP3   OH262740   0.240   6.091   5.358 -0.6039  0.3118 -0.1126
13750TIP3    H162741   0.219   6.022   5.295 -1.0114  0.5130 -0.2055
13750TIP3    H262742   0.207   6.171   5.316 -1.1573  0.4063  0.4844
13751TIP3   OH262743   6.139   1.376  15.626 -0.0926  0.5700 -0.7356
13751TIP3    H162744   6.045   1.365  15.619 -0.5083  1.6305  2.0234
13751TIP3    H262745   6.171   1.294  15.664 -0.5565  1.5990  2.1095
13752TIP3   OH262746   3.086   4.715   5.953  0.4286 -0.1776 -0.2841
13752TIP3    H162747   3.094   4.622   5.931 -1.0633 -0.3631 -0.1651
13752TIP3    H262748   3.036   4.753   5.881 -0.3520  0.1894  0.4252
13753TIP3   OH262749   4.807   4.521   5.614 -0.3085  0.1826  0.4921
13753TIP3    H162750   4.822   4.489   5.703  2.0236  0.5275  0.2681
13753TIP3    H262751   4.711   4.523   5.605 -0.5859  0.0627  2.9408
13754TIP3   OH262752   6.717   2.403  11.513  0.2483  0.0555 -0.4965
13754TIP3    H162753   6.639   2.403  11.569  0.7031 -0.6939  0.1547
13754TIP3    H262754   6.681   2.403  11.424 -0.5092 -0.3582 -0.2053
13755TIP3   OH262755   1.839   2.233  15.473  0.1173 -0.0287  0.1311
13755TIP3    H162756   1.857   2.248  15.380  0.2659 -0.4357  0.0936
13755TIP3    H262757   1.749   2.265  15.485 -0.4694 -1.3610 -0.4934
13756TIP3   OH262758   0.317   6.172   3.325 -0.0883  0.2932 -0.0532
13756TIP3    H162759   0.411   6.160   3.309 -0.3684  0.6573 -2.3565
13756TIP3    H262760   0.281   6.196   3.240 -1.9939  2.0537  1.1523
13757TIP3   OH262761   5.490   2.182   4.366 -0.4723  0.1462 -0.2172
13757TIP3    H162762   5.530   2.211   4.284  0.0482 -1.5176 -0.6022
13757TIP3    H262763   5.564   2.152   4.420 -0.8023  1.2527  0.9001
13758TIP3   OH262764   4.850   4.003   5.289 -0.1234  0.0600 -0.1628
13758TIP3    H162765   4.805   3.918   5.280 -4.5918  2.2390 -1.2434
13758TIP3    H262766   4.896   3.996   5.373 -1.8331 -2.8197  0.7007
13759TIP3   OH262767   2.513   1.276  14.907 -0.1531  0.4623 -0.1757
13759TIP3    H162768   2.525   1.276  15.002  2.0940  0.8498 -0.4071
13759TIP3    H262769   2.564   1.352  14.877  0.3770 -0.5010 -1.8069
13760TIP3   OH262770   1.454   1.896  14.889  0.5756 -0.0015 -0.5375
13760TIP3    H162771   1.430   1.880  14.981  0.4840  1.7326 -0.2166
13760TIP3    H262772   1.401   1.834  14.839 -2.4380  1.6670  0.3347
13761TIP3   OH262773   4.112   4.547  11.627  0.0560  0.7261  0.0229
13761TIP3    H162774   4.180   4.552  11.561 -0.3413 -0.8869 -0.5504
13761TIP3    H262775   4.159   4.535  11.709  0.5318  2.2834  0.0183
13762TIP3   OH262776   6.389   4.671  10.710  0.1376 -0.7438  0.4302
13762TIP3    H162777   6.444   4.593  10.715  1.9597  0.2719 -1.8318
13762TIP3    H262778   6.447   4.743  10.735 -1.3519  0.0156  1.9192
13763TIP3   OH262779   0.640   2.575  15.013 -0.3339 -0.3142 -0.2242
13763TIP3    H162780   0.707   2.578  15.082 -1.1293 -1.0102  0.6008
13763TIP3    H262781   0.690   2.570  14.932  0.6283  0.8478  0.2574
13764TIP3   OH262782   2.762   0.115   3.755 -0.0536 -0.3776  0.5730
13764TIP3    H162783   2.817   0.037   3.757  0.3365 -0.1207  0.0420
13764TIP3    H262784   2.823   0.188   3.770 -0.3952 -0.1619  0.9439
13765TIP3   OH262785   1.408   2.562   0.448 -0.2322 -0.1964  0.4045
13765TIP3    H162786   1.412   2.656   0.433  0.4162 -0.6145 -2.8129
13765TIP3    H262787   1.432   2.551   0.540  2.5002  2.6108  0.1965
13766TIP3   OH262788   2.629   3.539  12.888 -0.1948 -0.7833  1.0936
13766TIP3    H162789   2.690   3.612  12.902 -0.7595  0.6648 -2.8382
13766TIP3    H262790   2.685   3.466  12.863  0.1461  0.1682 -1.1836
13767TIP3   OH262791   5.900   4.159   6.317 -0.0399  0.3842  0.0338
13767TIP3    H162792   5.960   4.192   6.250  0.3018 -2.3913 -1.1600
13767TIP3    H262793   5.815   4.195   6.293  0.5348  1.5995 -0.2718
13768TIP3   OH262794   4.818   5.672   1.388  0.4015 -0.6016  0.0681
13768TIP3    H162795   4.796   5.748   1.443  0.7356  0.3283 -1.0328
13768TIP3    H262796   4.913   5.663   1.395  0.4727 -0.3497 -0.4914
13769TIP3   OH262797   2.609   3.641  13.185  0.1343  0.0530  0.2378
13769TIP3    H162798   2.609   3.671  13.276 -2.3429  0.1735  0.2819
13769TIP3    H262799   2.631   3.548  13.190  1.5400  0.3953  0.7709
13770TIP3   OH262800   2.818   3.546   3.309  0.1671  0.1762  0.1685
13770TIP3    H162801   2.850   3.465   3.269  1.8077  0.3632  0.9828
13770TIP3    H262802   2.850   3.542   3.399  0.4664  1.8004  0.1700
13771TIP3   OH262803   5.004   0.521   1.801 -0.1373  0.8952 -0.2623
13771TIP3    H162804   4.995   0.607   1.840  1.2117  0.7790  0.3769
13771TIP3    H262805   5.032   0.464   1.874 -0.5098  0.0259 -0.7751
13772TIP3   OH262806   3.288   4.538   1.716  0.2866  0.1871 -0.1275
13772TIP3    H162807   3.275   4.632   1.726 -0.1677  0.0961  0.1572
13772TIP3    H262808   3.290   4.523   1.621  0.5441  0.5048 -0.1727
13773TIP3   OH262809   2.790   6.237  16.836  0.0866 -0.2725 -0.1798
13773TIP3    H162810   2.803   6.287  16.917  0.0278  1.8500 -1.4152
13773TIP3    H262811   2.859   6.171  16.837  0.8430  0.4987  1.0218
13774TIP3   OH262812   0.705   2.949  15.543  0.5273 -0.3433 -0.3285
13774TIP3    H162813   0.677   2.954  15.635  0.0452 -0.9227 -0.4380
13774TIP3    H262814   0.784   3.003  15.540  1.3224 -1.3827  0.7241
13775TIP3   OH262815   5.608   3.571   3.824  0.0960  0.4183 -0.4268
13775TIP3    H162816   5.542   3.510   3.792  0.7796 -0.5727 -0.0121
13775TIP3    H262817   5.559   3.649   3.848 -1.2512 -0.9824  1.7886
13776TIP3   OH262818   6.855   3.788  11.565  0.2392  0.3667 -0.1366
13776TIP3    H162819   6.889   3.724  11.629 -0.2208 -1.4340 -1.6125
13776TIP3    H262820   6.857   3.741  11.482 -0.5263  2.1783 -1.2122
13777TIP3   OH262821   6.013   2.633   0.418  0.0174 -0.0734 -0.0060
13777TIP3    H162822   5.995   2.543   0.391 -0.6345  0.3406 -1.0126
13777TIP3    H262823   6.047   2.625   0.507 -1.8459 -1.1669  0.6578
13778TIP3   OH262824   4.277   5.722  15.130 -0.1543 -0.0178 -0.4313
13778TIP3    H162825   4.293   5.771  15.049  0.6185 -1.0301 -0.9285
13778TIP3    H262826   4.289   5.786  15.200  0.7254  0.5270 -1.0575
13779TIP3   OH262827   1.489   3.398  16.921 -0.0768 -0.4014  0.1207
13779TIP3    H162828   1.453   3.323  16.873  0.7064 -0.5365 -0.2850
13779TIP3    H262829   1.583   3.380  16.925  0.0469  0.3041  0.4806
13780TIP3   OH262830   2.847   1.674  13.246 -0.4199  0.0962 -0.4431
13780TIP3    H162831   2.906   1.746  13.225 -0.1825 -0.2532 -0.9941
13780TIP3    H262832   2.836   1.628  13.163 -0.1651 -0.8064  0.0168
13781TIP3   OH262833   1.178   4.198   6.478  0.2564  0.3931  0.5717
13781TIP3    H162834   1.132   4.280   6.457 -0.4427  0.2213  1.3845
13781TIP3    H262835   1.206   4.164   6.394 -3.8892 -1.1407 -0.4032
13782TIP3   OH262836   5.640   1.422  15.319  0.4938 -0.4116  0.5229
13782TIP3    H162837   5.569   1.358  15.318  0.6371 -0.5765 -0.5208
13782TIP3    H262838   5.623   1.477  15.395 -1.4500  0.3357 -0.3981
13783TIP3   OH262839   3.784   5.406   1.133  0.7254 -0.1765 -0.4630
13783TIP3    H162840   3.874   5.409   1.166  0.7802 -0.5438 -0.5779
13783TIP3    H262841   3.760   5.313   1.135  0.3058 -0.0716 -0.3163
13784TIP3   OH262842   6.591   1.531   2.386  0.3867  0.0505  0.0813
13784TIP3    H162843   6.670   1.585   2.388  1.1352 -1.0322  0.7257
13784TIP3    H262844   6.593   1.488   2.300 -1.3303  2.5640 -1.3674
13785TIP3   OH262845   3.289   4.116  14.279  0.1637 -0.0345 -0.0287
13785TIP3    H162846   3.347   4.151  14.211  1.7767 -0.1147  1.2384
13785TIP3    H262847   3.278   4.023  14.257  1.1053 -0.1815  0.0905
13786TIP3   OH262848   6.491   5.991  11.771 -0.0386  0.1437 -0.3117
13786TIP3    H162849   6.563   6.049  11.747  0.3242 -0.7226 -1.3754
13786TIP3    H262850   6.428   6.048  11.817  0.9911  1.0426  0.0195
13787TIP3   OH262851   1.121   6.168  15.483 -0.1521 -0.2770  0.0256
13787TIP3    H162852   1.038   6.127  15.510  0.4734 -0.2898  2.0699
13787TIP3    H262853   1.175   6.166  15.562  2.1603 -1.0959 -1.4905
13788TIP3   OH262854   2.118   3.557   0.636  0.0797 -0.6744  0.7971
13788TIP3    H162855   2.185   3.600   0.582 -1.3083 -1.3333 -1.6169
13788TIP3    H262856   2.036   3.596   0.606 -0.9171 -2.5641  0.9539
13789TIP3   OH262857   0.409   3.585   5.069 -1.1769 -0.3331 -0.2142
13789TIP3    H162858   0.421   3.496   5.103 -1.6851 -0.7846 -1.1386
13789TIP3    H262859   0.423   3.576   4.975 -3.5242  0.0602 -0.6832
13790TIP3   OH262860   2.756   6.817  14.015  0.1681  0.1402  0.0202
13790TIP3    H162861   2.675   6.766  14.015  0.5922 -0.5527  0.8765
13790TIP3    H262862   2.739   6.888  13.953 -1.0549 -0.0467  0.1126
13791TIP3   OH262863   3.370   0.776  14.272 -0.0880  0.4539  0.5179
13791TIP3    H162864   3.405   0.808  14.188 -2.0910 -2.5614 -1.6997
13791TIP3    H262865   3.410   0.690  14.284 -0.2469  0.6081  2.4214
13792TIP3   OH262866   0.511   1.922   2.593  0.3784 -0.7536 -0.0294
13792TIP3    H162867   0.530   2.016   2.589  0.0549 -0.6682  0.3464
13792TIP3    H262868   0.541   1.895   2.679 -1.5899 -0.5071  0.7840
13793TIP3   OH262869   4.131   5.719  12.076 -0.0611  0.1893 -0.0309
13793TIP3    H162870   4.100   5.745  11.990  2.1302  2.3512 -0.2843
13793TIP3    H262871   4.173   5.634  12.062 -3.3738 -1.6073 -0.1259
13794TIP3   OH262872   3.919   6.588  15.704  0.5843  0.2230  0.1407
13794TIP3    H162873   3.953   6.578  15.793 -0.1458  1.9970  0.6498
13794TIP3    H262874   3.843   6.530  15.700  2.1508 -1.9250 -0.2398
13795TIP3   OH262875   1.545   3.618  10.375  0.4639  0.0099  0.2108
13795TIP3    H162876   1.525   3.558  10.447 -0.0600  0.4080  0.4009
13795TIP3    H262877   1.566   3.701  10.419  0.2675  0.2173 -0.0892
13796TIP3   OH262878   1.790   3.428  12.612 -0.5435 -0.4061 -0.4082
13796TIP3    H162879   1.752   3.414  12.525  0.8471  0.2848 -1.1554
13796TIP3    H262880   1.776   3.522  12.628  1.9442  0.1852 -1.2952
13797TIP3   OH262881   5.169   2.127   1.903  0.0058 -0.6920 -0.2958
13797TIP3    H162882   5.224   2.088   1.835  2.0197  2.0741 -0.4110
13797TIP3    H262883   5.087   2.147   1.859  0.4696 -0.9472 -1.3157
13798TIP3   OH262884   2.552   1.701  12.828  0.6392 -0.0514  0.2049
13798TIP3    H162885   2.639   1.742  12.831  0.9263 -0.5744 -0.5794
13798TIP3    H262886   2.491   1.772  12.850  1.1631  0.6596 -0.5686
13799TIP3   OH262887   3.230   4.541   3.067  0.0006  0.0959 -0.3207
13799TIP3    H162888   3.286   4.490   3.008 -0.2915 -0.6619  0.0394
13799TIP3    H262889   3.173   4.476   3.108  0.9257  0.4443  1.6302
13800TIP3   OH262890   3.389   3.176   2.276  0.0187 -0.3766  0.2746
13800TIP3    H162891   3.319   3.238   2.299  0.4407 -0.2193  1.1867
13800TIP3    H262892   3.369   3.150   2.186  0.3042  1.7591 -0.4674
13801TIP3   OH262893   0.172   1.595   5.002 -0.2449 -0.9650 -0.0540
13801TIP3    H162894   0.158   1.689   4.989  0.9303 -0.8561 -0.6286
13801TIP3    H262895   0.084   1.560   5.016 -0.9911 -0.1696 -2.3042
13802TIP3   OH262896   2.601   0.034  13.208 -0.0419  0.2255 -0.2657
13802TIP3    H162897   2.677   0.091  13.219 -1.0129  1.4491  0.3087
13802TIP3    H262898   2.634  -0.040  13.157  1.3559  1.0756 -0.6501
13803TIP3   OH262899   5.711   1.858   3.617 -0.0540  0.4022 -0.7838
13803TIP3    H162900   5.641   1.922   3.627 -1.9508 -1.6623 -0.1843
13803TIP3    H262901   5.717   1.842   3.523 -1.6714 -0.6764 -0.7423
13804TIP3   OH262902   1.212   0.877  14.728 -0.5000 -0.0765  0.0666
13804TIP3    H162903   1.288   0.907  14.679 -1.1299 -0.6874 -1.3308
13804TIP3    H262904   1.151   0.844  14.662 -1.5090 -0.6645  1.2327
13805TIP3   OH262905   4.733   3.408   1.225  0.7062  0.2146 -0.1573
13805TIP3    H162906   4.749   3.316   1.203 -0.3087  0.2461 -1.0791
13805TIP3    H262907   4.821   3.446   1.234  1.1371 -0.8667  0.3750
13806TIP3   OH262908   2.229   1.980  14.339 -0.3957  0.5355 -0.4908
13806TIP3    H162909   2.198   2.017  14.422 -0.5149  0.6880 -0.6013
13806TIP3    H262910   2.175   1.903  14.325  0.1383  0.0743 -0.0483
13807TIP3   OH262911   5.116   1.216  10.695  0.1311  0.4290  0.2897
13807TIP3    H162912   5.138   1.279  10.763  0.5271  0.2988  0.2836
13807TIP3    H262913   5.021   1.224  10.684  0.0665  0.4579  0.8474
13808TIP3   OH262914   6.448   3.421   2.454 -0.3732  0.0339 -0.6625
13808TIP3    H162915   6.474   3.433   2.363  1.6380  0.0293 -0.1307
13808TIP3    H262916   6.499   3.485   2.503 -2.2292  0.7920  0.3864
13809TIP3   OH262917   5.747   4.037  15.010  0.2481  0.3687 -0.1539
13809TIP3    H162918   5.795   3.985  14.946  0.7559 -0.4065  0.8319
13809TIP3    H262919   5.658   4.045  14.974  0.3428 -0.6305 -0.6247
13810TIP3   OH262920   3.085   2.738   4.807 -0.0789 -0.2379 -0.0226
13810TIP3    H162921   3.108   2.718   4.898 -1.9736  1.8307  1.0157
13810TIP3    H262922   2.996   2.705   4.797 -0.2145  0.3410 -0.8308
13811TIP3   OH262923   0.505   1.142   4.428 -0.2422 -0.1287  0.1686
13811TIP3    H162924   0.569   1.211   4.447 -2.1144  1.8993 -0.3491
13811TIP3    H262925   0.467   1.120   4.513  1.3355 -1.6531  0.5408
13812TIP3   OH262926   6.734   4.599  14.065 -0.0799 -0.2094  0.1468
13812TIP3    H162927   6.819   4.568  14.032 -0.3947  0.3860 -1.2996
13812TIP3    H262928   6.671   4.571  13.999 -0.7380  1.0688  0.1981
13813TIP3   OH262929   1.009   5.083   3.363 -0.3239 -0.2064  0.3627
13813TIP3    H162930   1.065   5.153   3.328  1.4066 -0.8211  1.7103
13813TIP3    H262931   0.920   5.112   3.346  0.3325  0.1053 -3.3377
13814TIP3   OH262932   2.433   5.438  15.625  0.0914 -0.2877  0.6819
13814TIP3    H162933   2.377   5.446  15.702  0.5595  1.4892  0.8794
13814TIP3    H262934   2.461   5.528  15.606  1.5926 -0.9283 -0.3606
13815TIP3   OH262935   1.874   2.743   1.670 -0.4101 -0.2569  0.1177
13815TIP3    H162936   1.911   2.827   1.697  0.6045 -0.5539 -0.3302
13815TIP3    H262937   1.949   2.690   1.645 -1.0917 -1.0855 -0.2208
13816TIP3   OH262938   0.397   5.619  14.932  0.0577 -0.4598  0.4922
13816TIP3    H162939   0.344   5.698  14.947  0.4280  0.3334 -1.9760
13816TIP3    H262940   0.450   5.611  15.012 -1.1439  0.8306  1.4754
13817TIP3   OH262941   6.567   0.782  17.047 -0.0192 -0.1343 -0.2363
13817TIP3    H162942   6.530   0.736  17.122 -2.2515  0.2169 -1.0266
13817TIP3    H262943   6.547   0.874  17.062 -0.6780 -0.0770 -1.3117
13818TIP3   OH262944   6.817   1.828   5.531  0.0399 -0.2929  0.0395
13818TIP3    H162945   6.762   1.796   5.603  0.3823 -1.1872 -0.0941
13818TIP3    H262946   6.809   1.761   5.463  0.6292 -0.0142 -0.3105
13819TIP3   OH262947   5.098   6.772  16.736 -0.0764 -0.6202 -0.1482
13819TIP3    H162948   5.055   6.837  16.793 -0.4218  1.4874 -2.6077
13819TIP3    H262949   5.191   6.795  16.739 -0.0622 -0.6642 -0.2486
13820TIP3   OH262950   6.055   4.386  14.065  0.7109 -0.0479  0.0109
13820TIP3    H162951   6.013   4.423  14.143  0.1427  0.5987 -0.5799
13820TIP3    H262952   6.122   4.328  14.098 -1.0295 -1.5857  1.0324
13821TIP3   OH262953   4.218   5.171   0.682 -1.2820 -0.1460 -0.2709
13821TIP3    H162954   4.261   5.131   0.758 -1.9995  1.9849  1.3472
13821TIP3    H262955   4.241   5.114   0.609  2.9814 -0.0005  0.7266
13822TIP3   OH262956   0.556   5.676   0.715  0.0530  0.5332  0.6201
13822TIP3    H162957   0.481   5.619   0.703 -0.7080  1.9509 -2.3162
13822TIP3    H262958   0.609   5.663   0.637  1.1984  1.9084  1.1245
13823TIP3   OH262959   3.605   4.115   4.332  0.6073  0.0010 -0.3362
13823TIP3    H162960   3.679   4.097   4.390 -0.5833 -1.1087  0.9008
13823TIP3    H262961   3.613   4.208   4.311  1.9896  0.0427  0.2856
13824TIP3   OH262962   6.367   2.982   4.089  0.9481  0.2535  0.4717
13824TIP3    H162963   6.333   2.976   3.999  1.1504  0.8746  0.3516
13824TIP3    H262964   6.372   2.891   4.118  0.4406  0.0750  0.0186
13825TIP3   OH262965   1.764   5.905   2.113 -0.3894 -0.1365  0.4533
13825TIP3    H162966   1.811   5.824   2.132 -1.0787 -0.5113  0.5760
13825TIP3    H262967   1.672   5.883   2.127 -0.8939 -0.2074 -2.5107
13826TIP3   OH262968   1.979   1.547  12.677 -0.1065 -0.0420 -0.4178
13826TIP3    H162969   1.938   1.612  12.734  0.9279  0.1778  0.0968
13826TIP3    H262970   2.069   1.578  12.665  0.2552 -1.1099 -0.5823
13827TIP3   OH262971   0.053   5.766   0.810 -0.3898 -0.3907 -0.1137
13827TIP3    H162972   0.097   5.770   0.725 -0.0656 -2.1387 -0.0622
13827TIP3    H262973   0.118   5.799   0.872  0.2400 -1.3066 -0.2656
13828TIP3   OH262974   6.710   3.237  15.087 -0.0153 -0.0238  0.4458
13828TIP3    H162975   6.783   3.299  15.081  0.3181 -0.5634 -1.7837
13828TIP3    H262976   6.718   3.200  15.175  1.7163  0.7552  0.6723
13829TIP3   OH262977   3.862   3.824  16.867 -0.0601 -0.6076 -0.3345
13829TIP3    H162978   3.802   3.753  16.891  0.5112 -1.4808 -1.4128
13829TIP3    H262979   3.805   3.897  16.844 -0.7107 -1.2909 -0.9457
13830TIP3   OH262980   5.759   4.702  14.869 -0.2776  0.1094  0.2106
13830TIP3    H162981   5.684   4.759  14.888 -1.2317 -1.0650  0.1385
13830TIP3    H262982   5.796   4.737  14.788 -2.4943 -0.8734 -1.3547
13831TIP3   OH262983   1.422   2.393   1.305 -0.1403 -0.0188  0.0779
13831TIP3    H162984   1.353   2.366   1.245 -0.0907  0.7243 -0.3225
13831TIP3    H262985   1.425   2.488   1.297  0.3189  0.0339  0.7650
13832TIP3   OH262986   6.018   2.019  11.274  0.1406 -0.4942 -0.5609
13832TIP3    H162987   5.963   1.944  11.252 -1.4985  0.6994 -0.7167
13832TIP3    H262988   5.997   2.038  11.365  0.1771  0.0761 -0.6710
13833TIP3   OH262989   0.148   5.163   2.358  0.0989  0.4708 -0.0047
13833TIP3    H162990   0.148   5.126   2.270  1.3955  0.2669  0.0560
13833TIP3    H262991   0.068   5.215   2.362 -0.2219  0.1000 -1.1329
13834TIP3   OH262992   0.535   2.715  12.515  0.1080 -0.4013  0.1062
13834TIP3    H162993   0.501   2.705  12.426  1.7777 -0.1358 -0.6109
13834TIP3    H262994   0.486   2.789  12.551  0.3335  0.3563 -1.0891
13835TIP3   OH262995   1.104   0.628  17.086  0.0727  0.8648  0.2253
13835TIP3    H162996   1.019   0.654  17.121 -0.0109  0.8762  0.0160
13835TIP3    H262997   1.135   0.705  17.038 -1.0284  0.0084 -2.0090
13836TIP3   OH262998   0.079   5.857  13.117 -0.0162  0.3212  0.2661
13836TIP3    H162999   0.162   5.810  13.121  0.0840  0.2631 -1.4884
13836TIP3    H263000   0.013   5.788  13.108 -0.0099  0.4423 -0.7930
13837TIP3   OH263001   5.654   1.575   1.298  0.3035 -0.2547  0.7891
13837TIP3    H163002   5.735   1.627   1.297  0.4364 -0.4433 -0.5800
13837TIP3    H263003   5.621   1.582   1.208 -2.0609  1.1422  1.6729
13838TIP3   OH263004   1.101   6.058   3.967 -0.3920  0.1464  0.3060
13838TIP3    H163005   1.060   6.046   4.052  1.3393 -0.5392  1.0844
13838TIP3    H263006   1.190   6.086   3.986  0.3800 -1.0801 -1.2122
13839TIP3   OH263007   6.260   4.336   1.812  0.3011  0.5747  0.0680
13839TIP3    H163008   6.206   4.409   1.784 -0.5662  0.5878  1.6397
13839TIP3    H263009   6.320   4.374   1.876 -0.3479 -0.1131  1.1093
13840TIP3   OH263010   4.736   6.814   4.344  0.0802 -0.2528  0.1892
13840TIP3    H163011   4.793   6.876   4.388 -0.7971  0.8367 -0.1715
13840TIP3    H263012   4.789   6.781   4.271  1.2545 -1.4822  1.5381
13841TIP3   OH263013   0.850   5.654  11.054  0.0256 -0.0307  0.1209
13841TIP3    H163014   0.875   5.746  11.051  2.0946 -0.5855 -1.4746
13841TIP3    H263015   0.788   5.644  10.981 -2.0612  0.5104  1.7100
13842TIP3   OH263016   3.227   3.909  11.940  0.6574  1.1198  0.1047
13842TIP3    H163017   3.200   3.817  11.943  1.4258  0.8651 -0.4029
13842TIP3    H263018   3.183   3.945  11.864 -0.0654  1.3233  0.6066
13843TIP3   OH263019   3.280   3.335  16.825  0.1872 -0.1215  0.0549
13843TIP3    H163020   3.268   3.429  16.816  0.1124 -0.0179  1.0512
13843TIP3    H263021   3.231   3.296  16.753 -0.1479  0.5873 -0.0987
13844TIP3   OH263022   4.016   5.036  11.471 -0.0786  0.0707 -0.6546
13844TIP3    H163023   4.060   4.959  11.438  1.3040  0.3766  0.3844
13844TIP3    H263024   4.086   5.095  11.498 -1.0759  0.4293  1.3906
13845TIP3   OH263025   1.504   2.656   1.129  0.1823 -0.0344  0.4937
13845TIP3    H163026   1.596   2.631   1.133  0.5078  0.6288 -1.6630
13845TIP3    H263027   1.499   2.739   1.177  0.5362 -0.4467  1.2609
13846TIP3   OH263028   6.274   6.124   1.551 -0.2524  0.2737 -0.1138
13846TIP3    H163029   6.225   6.043   1.541  1.1115 -0.6605  0.4732
13846TIP3    H263030   6.264   6.147   1.643  0.9436 -0.3088  0.1803
13847TIP3   OH263031   2.717   0.351  13.022 -0.3024  0.7189  0.3135
13847TIP3    H163032   2.726   0.272  13.074 -3.5061  0.9714  1.4885
13847TIP3    H263033   2.673   0.323  12.942  0.8060  0.9920 -0.4250
13848TIP3   OH263034   2.008   1.688   3.958  0.4110 -0.6937  0.1942
13848TIP3    H163035   2.065   1.638   4.016 -1.4737  1.0975  3.9000
13848TIP3    H263036   2.042   1.777   3.962  0.0392 -0.4642 -1.2556
13849TIP3   OH263037   4.636   2.041  10.404  0.2536 -0.2025  0.0159
13849TIP3    H163038   4.550   2.082  10.398  0.0396 -0.5655  0.4771
13849TIP3    H263039   4.698   2.114  10.404 -0.0811  0.0823  0.0795
13850TIP3   OH263040   0.630   6.447  15.660  0.4080 -0.1028 -0.3259
13850TIP3    H163041   0.700   6.383  15.644  0.9907 -0.4680  2.9115
13850TIP3    H263042   0.567   6.400  15.715 -1.4031  0.8571 -1.4767
13851TIP3   OH263043   1.937   5.290   6.603  0.2817  0.5703  0.0093
13851TIP3    H163044   1.960   5.376   6.638 -0.9840  1.1571 -0.5258
13851TIP3    H263045   2.009   5.268   6.544  1.3039  0.6070  1.1994
13852TIP3   OH263046   6.480   0.081  14.148 -0.1030  0.2770  0.4782
13852TIP3    H163047   6.434   0.010  14.105 -0.0401 -0.0380  0.9241
13852TIP3    H263048   6.559   0.094  14.095  0.1860 -0.3893  0.7316
13853TIP3   OH263049   5.966   3.803   3.966 -0.2201  0.1616  0.1629
13853TIP3    H163050   6.061   3.803   3.955 -0.1778 -0.5183  0.4680
13853TIP3    H263051   5.939   3.716   3.938 -1.0582  1.1286 -2.3455
13854TIP3   OH263052   5.736   1.465   2.333  0.3596 -0.1525 -0.2218
13854TIP3    H163053   5.825   1.499   2.338  0.9624 -1.5414 -1.0720
13854TIP3    H263054   5.719   1.454   2.239 -1.2199  1.3307 -0.1676
13855TIP3   OH263055   6.161   4.352   5.782 -0.5538  0.2710  0.3233
13855TIP3    H163056   6.207   4.304   5.851 -1.6704  0.4232  1.2156
13855TIP3    H263057   6.171   4.444   5.805  1.3635  0.5236 -1.2467
13856TIP3   OH263058   6.709   1.224   0.298  0.4881  0.0318  0.1227
13856TIP3    H163059   6.646   1.248   0.230  1.5871 -0.6435 -1.1983
13856TIP3    H263060   6.751   1.307   0.322  0.3826  0.2192 -0.3279
13857TIP3   OH263061   3.256   0.748  12.981  0.4614 -0.3587 -0.5332
13857TIP3    H163062   3.190   0.694  12.939 -1.2785  3.8986 -3.9833
13857TIP3    H263063   3.208   0.800  13.046  0.8169  1.0655 -1.3644
13858TIP3   OH263064   2.395   2.390  14.932  0.5400  0.0574  0.2299
13858TIP3    H163065   2.412   2.297  14.947  2.8333  0.3757 -0.1377
13858TIP3    H263066   2.347   2.392  14.849 -0.1295 -0.8054  0.5713
13859TIP3   OH263067   1.710   2.018  14.105  0.0840 -0.1848 -0.4670
13859TIP3    H163068   1.641   2.058  14.159 -0.2454  0.2249 -1.1812
13859TIP3    H263069   1.776   2.088  14.097  0.5175 -0.5181  0.0720
13860TIP3   OH263070   1.843   3.374  16.024  0.1423  0.0245 -0.2482
13860TIP3    H163071   1.804   3.329  16.099 -0.1402  0.2343 -0.2674
13860TIP3    H263072   1.877   3.304  15.969  0.3936 -0.1297  0.0986
13861TIP3   OH263073   2.215   5.243  13.754  0.3440  0.5341 -0.3579
13861TIP3    H163074   2.202   5.297  13.832  1.1980 -0.8340  0.7814
13861TIP3    H263075   2.170   5.161  13.775  3.4689 -1.1783  0.2217
13862TIP3   OH263076   3.120   4.784  10.448  0.1172  0.0001 -0.4744
13862TIP3    H163077   3.156   4.864  10.409  1.4102 -0.6795 -0.6939
13862TIP3    H263078   3.196   4.735  10.478 -0.6437 -1.2679 -0.5500
13863TIP3   OH263079   4.939   5.285   0.314 -0.0725 -0.2988 -0.2204
13863TIP3    H163080   4.976   5.352   0.257  0.0987  0.0836  0.3344
13863TIP3    H263081   4.942   5.323   0.402 -0.6993 -0.7243 -0.0071
13864TIP3   OH263082   5.484   0.579   5.186  0.0668  0.3554 -0.2748
13864TIP3    H163083   5.467   0.487   5.164 -0.5447  0.1913  0.7796
13864TIP3    H263084   5.429   0.629   5.125  0.5875  0.0415 -1.0155
13865TIP3   OH263085   5.971   0.846   3.372 -0.2013 -0.1687 -0.4045
13865TIP3    H163086   5.958   0.936   3.401 -0.3791 -0.4131  0.3025
13865TIP3    H263087   6.011   0.854   3.286 -0.9723  0.5801 -0.6963
13866TIP3   OH263088   1.282   0.172   0.840  0.1904 -0.2256 -0.0484
13866TIP3    H163089   1.264   0.242   0.777 -0.5535  0.0701  0.4724
13866TIP3    H263090   1.280   0.092   0.789 -0.9117 -0.0378 -0.3248
13867TIP3   OH263091   3.995   2.381   5.511 -0.4470  1.1773  0.6872
13867TIP3    H163092   3.925   2.346   5.566 -0.6605 -0.8271 -0.7320
13867TIP3    H263093   4.074   2.374   5.565 -0.6960 -0.4758  0.9004
13868TIP3   OH263094   0.574   5.420   2.617  0.4916 -0.0377  0.5595
13868TIP3    H163095   0.531   5.357   2.560 -0.7520  1.6121 -0.4238
13868TIP3    H263096   0.547   5.395   2.705  1.3212 -1.7933  0.3489
13869TIP3   OH263097   2.256   0.968   4.476  0.2109  0.0307 -0.1461
13869TIP3    H163098   2.242   1.004   4.389 -0.3651  0.7052  0.2099
13869TIP3    H263099   2.191   1.012   4.531 -0.3877 -1.4124  0.3623
13870TIP3   OH263100   1.638   0.829   0.950  0.0704 -0.3831  0.0354
13870TIP3    H163101   1.579   0.790   0.886  2.1514 -0.6261 -1.8945
13870TIP3    H263102   1.624   0.778   1.030 -0.8741 -1.7699 -0.9675
13871TIP3   OH263103   6.851   5.000  12.473 -0.0679 -0.3481  0.1799
13871TIP3    H163104   6.791   5.071  12.450 -1.3175 -1.2303  0.5572
13871TIP3    H263105   6.868   4.956  12.389 -2.2806 -1.7881  0.3718
13872TIP3   OH263106   4.330   3.208   6.020  0.3532  0.0243  0.3608
13872TIP3    H163107   4.244   3.246   6.002  0.4525 -0.4022 -1.2291
13872TIP3    H263108   4.345   3.148   5.946  2.3299  0.6459  0.2011
13873TIP3   OH263109   5.181   2.830   4.821 -0.0576  0.0834  0.3825
13873TIP3    H163110   5.176   2.900   4.755  3.8040  0.2468  0.0266
13873TIP3    H263111   5.188   2.750   4.770  1.4324  0.0704  0.5646
13874TIP3   OH263112   6.427   4.492  10.363 -0.4745 -0.6383 -0.4827
13874TIP3    H163113   6.421   4.403  10.399  1.5699 -0.9168 -0.7254
13874TIP3    H263114   6.521   4.512  10.363 -0.8666  1.4312 -0.6926
13875TIP3   OH263115   0.673   2.473   1.399  0.0626  0.2051  0.4226
13875TIP3    H163116   0.639   2.520   1.323  1.2274  0.2111 -0.1220
13875TIP3    H263117   0.732   2.536   1.441  0.9331 -0.4388  0.2009
13876TIP3   OH263118   0.451   1.844   5.025  0.1924 -0.5425 -0.3476
13876TIP3    H163119   0.357   1.836   5.037  0.2196  0.5909  0.8812
13876TIP3    H263120   0.487   1.765   5.064 -0.2100 -0.7080 -0.3061
13877TIP3   OH263121   0.808   4.004   2.943  0.7408 -0.2031  0.5406
13877TIP3    H163122   0.844   3.915   2.943 -3.0960 -2.0175 -1.5470
13877TIP3    H263123   0.774   4.015   3.032  3.4966  0.3949  1.6342
13878TIP3   OH263124   6.118   6.560  11.310 -0.5722 -0.1474  0.1059
13878TIP3    H163125   6.156   6.626  11.252 -1.0759  0.0260 -0.0289
13878TIP3    H263126   6.056   6.513  11.254 -0.6825 -0.3173  0.3722
13879TIP3   OH263127   6.329   0.670   4.328 -0.0369 -0.2013 -0.0076
13879TIP3    H163128   6.281   0.752   4.315  0.9346  0.4827  0.6376
13879TIP3    H263129   6.352   0.641   4.240  0.4834  0.7525 -0.1986
13880TIP3   OH263130   2.770   1.827   4.720  0.1249 -0.3940 -0.7900
13880TIP3    H163131   2.858   1.864   4.730  1.0247 -2.4151 -0.5962
13880TIP3    H263132   2.774   1.777   4.639 -0.4206 -1.5528 -0.1361
13881TIP3   OH263133   3.160   5.767   2.412  0.0577 -0.1691  0.2068
13881TIP3    H163134   3.224   5.757   2.482  0.8110  0.0097 -0.4367
13881TIP3    H263135   3.113   5.684   2.411  0.2450 -0.2856  0.7213
13882TIP3   OH263136   0.733   6.663   5.703  0.2645  0.4112 -0.1532
13882TIP3    H163137   0.814   6.615   5.725  0.4729  1.3540  1.2318
13882TIP3    H263138   0.752   6.702   5.618  0.4201 -1.2106 -0.9022
13883TIP3   OH263139   2.734   1.898   4.426 -0.0790  0.2027 -0.2666
13883TIP3    H163140   2.808   1.944   4.386  0.3135  1.2600  1.6150
13883TIP3    H263141   2.675   1.967   4.455 -1.3152 -0.6108 -0.7658
13884TIP3   OH263142   2.013   4.641   2.261  0.4018 -0.7151 -0.2451
13884TIP3    H163143   2.042   4.555   2.290  2.1432  0.4724  1.7788
13884TIP3    H263144   2.057   4.654   2.177  0.4947 -1.5619 -0.3384
13885TIP3   OH263145   6.116   3.202  12.546 -0.5388 -0.1763  0.6787
13885TIP3    H163146   6.207   3.171  12.549 -1.3463 -2.7496  2.5424
13885TIP3    H263147   6.080   3.162  12.467 -0.3560 -0.0888  0.5490
13886TIP3   OH263148   1.441   3.217  11.720 -0.6438  0.5730  0.7649
13886TIP3    H163149   1.434   3.123  11.738  2.6854  0.4911  2.3414
13886TIP3    H263150   1.395   3.228  11.637  2.3486 -3.2968 -1.7901
13887TIP3   OH263151   3.247   4.708   0.552  0.0974 -0.2011  0.0111
13887TIP3    H163152   3.273   4.783   0.606  0.7846  0.6147 -1.3683
13887TIP3    H263153   3.183   4.744   0.491  0.6541 -0.6439 -0.8623
13888TIP3   OH263154   2.275   1.117   2.368 -0.0575  0.0965  0.3508
13888TIP3    H163155   2.362   1.077   2.370 -0.6795 -1.3788 -0.5887
13888TIP3    H263156   2.228   1.068   2.301 -0.8301  2.5190 -1.0024
13889TIP3   OH263157   0.135   4.496  14.010 -0.4539 -0.1403 -0.0044
13889TIP3    H163158   0.128   4.403  14.034  1.4671 -0.1392  0.7376
13889TIP3    H263159   0.116   4.498  13.916 -1.8087 -1.0809  0.2251
13890TIP3   OH263160   0.045   4.895   1.717  0.4422  0.1635 -0.9245
13890TIP3    H163161  -0.002   4.877   1.636  1.8056 -0.3940 -1.6297
13890TIP3    H263162   0.083   4.811   1.742  2.5117  0.8854 -1.3791
13891TIP3   OH263163   5.243   0.467   0.252  0.3153  0.5158 -0.3401
13891TIP3    H163164   5.294   0.543   0.224 -0.0614  0.9234  0.0537
13891TIP3    H263165   5.293   0.391   0.222  2.2038  0.8336  1.7285
13892TIP3   OH263166   0.165   3.554   3.717  0.3396  0.5722 -0.0528
13892TIP3    H163167   0.200   3.479   3.765 -2.6135 -0.0183  1.4207
13892TIP3    H263168   0.157   3.524   3.626 -0.1442 -0.6989  0.3870
13893TIP3   OH263169   3.405   3.756  13.960 -0.2402  0.3886 -0.3299
13893TIP3    H163170   3.486   3.775  14.008 -0.2847 -0.2679  0.0099
13893TIP3    H263171   3.365   3.842  13.945 -0.1871  0.6105  0.7525
13894TIP3   OH263172   3.191   4.932  16.110 -0.1188  0.0423 -0.5685
13894TIP3    H163173   3.210   5.024  16.132 -1.1485  0.5431 -1.6770
13894TIP3    H263174   3.166   4.934  16.018 -1.1963 -1.1987 -0.3302
13895TIP3   OH263175   2.953   6.133   3.244  0.1920 -0.3074  0.4790
13895TIP3    H163176   2.972   6.080   3.166 -0.0685 -0.4477  0.5119
13895TIP3    H263177   2.938   6.221   3.210 -1.0632 -0.5937  0.2442
13896TIP3   OH263178   4.598   2.125  17.056  0.2415  0.4920 -0.1268
13896TIP3    H163179   4.686   2.121  17.093  0.0991 -1.3123  0.0648
13896TIP3    H263180   4.610   2.109  16.962  0.0724 -0.4394  0.0003
13897TIP3   OH263181   0.848   5.622   5.920  1.0052  0.0849  0.9435
13897TIP3    H163182   0.831   5.620   5.826 -2.2037  1.1884  1.3728
13897TIP3    H263183   0.882   5.535   5.940 -0.3687 -0.9509 -0.9366
13898TIP3   OH263184   0.897   1.792   4.862 -0.7555 -0.5251 -0.6999
13898TIP3    H163185   0.813   1.748   4.856 -1.2113  0.1009  0.6405
13898TIP3    H263186   0.877   1.877   4.901  0.5606 -0.6088  0.2333
13899TIP3   OH263187   5.111   4.353   1.737 -0.3164 -0.0637 -0.3147
13899TIP3    H163188   5.050   4.377   1.807 -0.4868  0.4998 -0.6528
13899TIP3    H263189   5.078   4.398   1.659  0.0121 -0.4882 -0.7076
13900TIP3   OH263190   5.450   5.848  12.295 -0.6440  0.3874 -0.1511
13900TIP3    H163191   5.457   5.943  12.289 -2.0749  0.4798 -0.9477
13900TIP3    H263192   5.537   5.816  12.273 -0.4602  1.4893 -1.1219
13901TIP3   OH263193   6.429   3.267   3.902 -0.7583 -0.2072 -0.1093
13901TIP3    H163194   6.422   3.310   3.817 -1.4568 -1.1875 -0.5677
13901TIP3    H263195   6.370   3.317   3.959  0.3381  0.9578  0.0321
13902TIP3   OH263196   4.989   6.331   3.595  0.3259  0.1462 -0.3704
13902TIP3    H163197   5.063   6.386   3.571 -0.5248  0.0853 -3.5606
13902TIP3    H263198   4.988   6.262   3.528 -1.7425 -0.7077  0.4578
13903TIP3   OH263199   2.569   4.650   2.210 -0.0683 -0.2523 -0.2018
13903TIP3    H163200   2.646   4.602   2.181  0.2604  0.4950 -0.5899
13903TIP3    H263201   2.510   4.649   2.134 -1.2707 -2.4165  0.6588
13904TIP3   OH263202   2.599   3.311  15.966 -0.2013  0.1083  0.2447
13904TIP3    H163203   2.558   3.396  15.948 -0.7053  0.1016  1.2669
13904TIP3    H263204   2.629   3.318  16.057  0.0606 -0.6867  0.2227
13905TIP3   OH263205   3.593   3.699  12.754  0.0308  0.4504 -0.2847
13905TIP3    H163206   3.618   3.772  12.697  1.0316 -0.4142 -0.9850
13905TIP3    H263207   3.629   3.722  12.839  0.2570  0.8186 -0.4791
13906TIP3   OH263208   5.903   3.854  15.453  0.2602 -0.2645 -0.1709
13906TIP3    H163209   5.829   3.797  15.433 -0.4227  0.9789 -1.3036
13906TIP3    H263210   5.905   3.918  15.381 -0.8139  2.9400  2.3767
13907TIP3   OH263211   1.327   0.692   2.843  0.3961 -0.2989  0.1947
13907TIP3    H163212   1.318   0.709   2.749  1.4865  1.9945  0.4346
13907TIP3    H263213   1.246   0.649   2.867 -0.6856  0.6827 -1.4774
13908TIP3   OH263214   1.926   3.466  14.967 -0.3181 -0.5872 -0.7026
13908TIP3    H163215   1.899   3.547  15.010 -1.3207  0.3119 -2.8684
13908TIP3    H263216   1.971   3.495  14.887  0.5099 -2.1667 -0.8440
13909TIP3   OH263217   1.860   2.781  15.871  0.3956 -0.7740  0.0426
13909TIP3    H163218   1.939   2.810  15.826  0.0704 -0.6901 -0.4885
13909TIP3    H263219   1.791   2.786  15.804 -0.1118 -0.5820  0.5711
13910TIP3   OH263220   6.585   2.399  11.251 -0.4754 -0.1331 -0.1030
13910TIP3    H163221   6.611   2.309  11.233 -0.7013 -0.2725  0.2489
13910TIP3    H263222   6.649   2.453  11.206 -1.2129 -0.4624 -1.6110
13911TIP3   OH263223   0.194   5.967  12.663 -0.1335  0.2649 -0.2379
13911TIP3    H163224   0.150   5.882  12.674 -1.6009  1.0866  0.4718
13911TIP3    H263225   0.165   6.019  12.738  0.1523  1.6555 -1.0554
13912TIP3   OH263226   5.985   0.808   6.293  0.2137 -0.1141  0.2220
13912TIP3    H163227   6.011   0.869   6.224 -2.3743  0.0650 -0.7315
13912TIP3    H263228   5.894   0.832   6.313  0.0251 -1.9051  1.7793
13913TIP3   OH263229   3.538   5.793  15.651 -0.0291  0.4192 -0.0927
13913TIP3    H163230   3.490   5.872  15.677  0.3315  0.7315 -0.3709
13913TIP3    H263231   3.557   5.805  15.558  1.6444  0.8651  0.2761
13914TIP3   OH263232   5.696   2.128   2.943 -0.2105  0.1814  0.2658
13914TIP3    H163233   5.777   2.176   2.961  1.1529 -1.4256 -1.2284
13914TIP3    H263234   5.690   2.063   3.013 -0.4283  0.5227  0.5716
13915TIP3   OH263235   5.187   3.135   3.392  0.5492 -0.3234 -0.0052
13915TIP3    H163236   5.154   3.079   3.463  1.9136  0.7121  1.5228
13915TIP3    H263237   5.278   3.107   3.380  0.2587 -0.6674 -1.5774
13916TIP3   OH263238   5.753   5.911   3.059 -0.0906  0.1611 -0.7585
13916TIP3    H163239   5.824   5.945   3.114 -0.4190  0.9869 -0.8184
13916TIP3    H263240   5.740   5.979   2.992 -0.7553 -0.1028 -0.9088
13917TIP3   OH263241   4.761   2.308  11.441  0.0011  0.3109 -0.3021
13917TIP3    H163242   4.757   2.212  11.440  1.4114  0.2126  0.7499
13917TIP3    H263243   4.669   2.335  11.445 -0.4274 -0.9842 -0.7091
13918TIP3   OH263244   6.031   4.002   5.672 -0.2878  1.0359  0.6625
13918TIP3    H163245   5.993   3.925   5.630  0.0416  1.8651 -1.2588
13918TIP3    H263246   6.125   3.996   5.655 -0.1526  1.4448  1.2174
13919TIP3   OH263247   3.381   6.382   4.347 -0.6747 -0.3636  0.1408
13919TIP3    H163248   3.322   6.340   4.409  0.5819 -1.2176  0.8186
13919TIP3    H263249   3.366   6.336   4.264 -1.5401 -0.0035  0.0938
13920TIP3   OH263250   4.676   0.356   3.128  0.8077  0.2572  0.1464
13920TIP3    H163251   4.757   0.400   3.155  0.7001  2.3974 -2.5305
13920TIP3    H263252   4.658   0.293   3.198  2.0202  3.1621  3.3591
13921TIP3   OH263253   0.778   2.779   3.648  0.2406 -0.0105  0.3744
13921TIP3    H163254   0.818   2.692   3.646  0.1308 -0.1095  1.6991
13921TIP3    H263255   0.694   2.768   3.604 -0.2362 -0.8372  1.4615
13922TIP3   OH263256   5.287   4.424  16.481 -0.0474 -0.0181 -0.1147
13922TIP3    H163257   5.360   4.388  16.430  0.5123  0.2147  0.4975
13922TIP3    H263258   5.220   4.356  16.479  0.3550 -0.4133 -0.3391
13923TIP3   OH263259   2.002   2.787  17.063 -0.0531  0.3806 -0.0753
13923TIP3    H163260   1.917   2.789  17.108 -0.7010  2.4511 -1.2698
13923TIP3    H263261   2.064   2.764  17.132 -1.4834 -0.6960  0.9456
13924TIP3   OH263262   2.061   3.421   1.207 -0.3957 -0.7433 -0.9915
13924TIP3    H163263   2.147   3.464   1.203  0.0319 -1.4461  0.2648
13924TIP3    H263264   2.012   3.472   1.271 -0.7519 -0.6506 -1.3346
13925TIP3   OH263265   0.486   0.968  14.199 -0.1674 -0.6601  0.1317
13925TIP3    H163266   0.444   0.889  14.233 -0.2087 -0.3753  0.7498
13925TIP3    H263267   0.525   0.940  14.116  0.6366 -1.5660  0.7886
13926TIP3   OH263268   4.035   3.138  15.215 -0.2682 -0.2728  0.0344
13926TIP3    H163269   4.044   3.080  15.291  0.9529  1.2531  1.1323
13926TIP3    H263270   3.982   3.211  15.247  0.0544  0.2708 -0.6421
13927TIP3   OH263271   3.899   4.725   5.755 -0.0572  0.0756  0.1344
13927TIP3    H163272   3.809   4.739   5.785  0.0192  0.3052  0.2499
13927TIP3    H263273   3.893   4.647   5.699 -0.6629  1.1379 -1.3537
13928TIP3   OH263274   2.227   4.931   3.626  0.3591  0.3801  0.5726
13928TIP3    H163275   2.238   4.836   3.620 -0.4344  0.3318 -0.1492
13928TIP3    H263276   2.199   4.946   3.716 -2.5307 -0.4022 -0.1023
13929TIP3   OH263277   3.742   5.884   2.073  0.1838  0.0781  0.1086
13929TIP3    H163278   3.725   5.881   1.979  0.0101 -1.1894  0.1669
13929TIP3    H263279   3.829   5.924   2.080  0.1871  0.2024 -0.5850
13930TIP3   OH263280   0.994   2.894  14.525 -0.3299  0.5232 -0.2042
13930TIP3    H163281   1.073   2.916  14.576 -0.3301  0.3427 -0.1251
13930TIP3    H263282   0.958   2.979  14.499  0.4849  0.5876 -1.1656
13931TIP3   OH263283   1.677   4.867  13.619 -0.0006 -0.1691 -0.3109
13931TIP3    H163284   1.746   4.812  13.655 -0.3961  0.0817  0.8734
13931TIP3    H263285   1.613   4.805  13.584  0.2259 -0.4304 -0.2640
13932TIP3   OH263286   1.515   6.165  10.994  0.1530  0.1178  0.6313
13932TIP3    H163287   1.561   6.085  10.968  2.2904  1.2307  0.7730
13932TIP3    H263288   1.468   6.193  10.916 -0.0162 -0.8427  0.3704
13933TIP3   OH263289   4.616   1.351  14.661 -0.3747  0.5770 -0.1809
13933TIP3    H163290   4.532   1.314  14.635 -0.3799  0.5003 -0.0582
13933TIP3    H263291   4.594   1.436  14.700 -0.2370  1.3637 -1.7661
13934TIP3   OH263292   4.514   6.080   4.536  0.1222 -0.5974  0.1217
13934TIP3    H163293   4.576   6.153   4.537 -0.9141  0.3313 -0.6757
13934TIP3    H263294   4.527   6.036   4.620 -0.3455  1.4777  1.3370
13935TIP3   OH263295   1.701   3.556   0.620  0.0854  0.3451 -0.6060
13935TIP3    H163296   1.643   3.627   0.646 -0.6798  0.1687 -1.7406
13935TIP3    H263297   1.775   3.599   0.577  0.7837  0.5683  0.7870
13936TIP3   OH263298   4.408   3.018   1.546 -0.1174  0.4599 -0.4630
13936TIP3    H163299   4.319   3.054   1.547 -0.5929 -0.6159  1.3691
13936TIP3    H263300   4.462   3.088   1.510 -1.7962  0.8543 -2.4059
13937TIP3   OH263301   2.214   6.534   3.794 -0.5644 -0.2240 -0.3073
13937TIP3    H163302   2.187   6.566   3.708 -2.6201 -0.1099  0.3302
13937TIP3    H263303   2.223   6.439   3.782  1.8292  0.0404 -1.2542
13938TIP3   OH263304   3.630   6.739  15.828 -0.2156 -0.2872 -0.1136
13938TIP3    H163305   3.624   6.707  15.918  0.6074  0.9327  0.4062
13938TIP3    H263306   3.708   6.695  15.792 -0.4469 -0.6455 -0.1826
13939TIP3   OH263307   5.328   4.913   1.319  0.1921  0.5130 -0.1115
13939TIP3    H163308   5.313   4.981   1.254 -0.7182 -1.1462 -1.7368
13939TIP3    H263309   5.281   4.836   1.286  1.3666 -1.0029  1.4889
13940TIP3   OH263310   1.311   3.432   1.553  0.2505 -0.2853  0.1995
13940TIP3    H163311   1.230   3.436   1.503  0.1434 -2.1093  0.1545
13940TIP3    H263312   1.289   3.470   1.638  0.1766  1.9498 -0.7591
13941TIP3   OH263313   4.125   0.381   0.711 -0.6116 -0.2980 -0.2157
13941TIP3    H163314   4.133   0.473   0.737  0.4111 -0.0586 -1.3009
13941TIP3    H263315   4.125   0.333   0.794  0.4420  0.5832  0.3296
13942TIP3   OH263316   1.622   4.808   2.559 -0.7555  0.3085  0.1978
13942TIP3    H163317   1.630   4.764   2.474  1.4118  0.0793  0.4518
13942TIP3    H263318   1.646   4.899   2.541 -1.5835  0.5714  0.3600
13943TIP3   OH263319   0.958   3.249   3.699 -0.7456 -0.9980  0.5208
13943TIP3    H163320   1.013   3.282   3.628 -0.7005  1.1169  1.4637
13943TIP3    H263321   0.925   3.165   3.666 -1.3420  0.2174 -2.3119
13944TIP3   OH263322   1.785   1.352  15.560 -0.3961 -0.3354  0.2408
13944TIP3    H163323   1.833   1.339  15.479 -1.8701  3.1001 -1.3763
13944TIP3    H263324   1.698   1.318  15.543 -0.4224 -0.5473  0.7716
13945TIP3   OH263325   2.118   4.936  16.057  0.1068  0.0718 -0.3561
13945TIP3    H163326   2.049   4.996  16.087 -0.2508 -0.1741 -0.6809
13945TIP3    H263327   2.071   4.863  16.018  0.5503 -0.2638 -0.2694
13946TIP3   OH263328   6.606   0.716  10.689 -0.1708  0.0514 -0.1162
13946TIP3    H163329   6.695   0.700  10.720 -1.1418 -2.1759  1.7554
13946TIP3    H263330   6.596   0.659  10.613  0.2811  1.0840 -0.9833
13947TIP3   OH263331   5.001   3.335   3.608 -0.2473 -0.0989  0.1697
13947TIP3    H163332   5.076   3.311   3.553  0.8152  1.0627  1.0434
13947TIP3    H263333   4.992   3.429   3.595 -0.3781  0.0858  1.4853
13948TIP3   OH263334   6.531   4.705   1.772  0.0507 -0.3668  0.0653
13948TIP3    H163335   6.442   4.713   1.738 -0.0924  1.9563  0.8478
13948TIP3    H263336   6.520   4.706   1.867  0.9132 -0.2922  0.1669
13949TIP3   OH263337   4.353   2.919  14.311 -0.0466 -0.3458 -0.2722
13949TIP3    H163338   4.432   2.869  14.335  0.1586  0.0603 -0.0858
13949TIP3    H263339   4.299   2.917  14.391 -0.6471 -1.4079 -0.6908
13950TIP3   OH263340   5.603   6.630  16.148 -0.6410 -0.5209  0.2254
13950TIP3    H163341   5.530   6.685  16.177 -0.6751 -0.2255 -0.3859
13950TIP3    H263342   5.679   6.664  16.195 -0.3978  1.0131 -1.1606
13951TIP3   OH263343   3.789   1.084   3.289  0.0459  0.0694  0.2347
13951TIP3    H163344   3.858   1.045   3.235 -0.1878 -0.5898  0.4074
13951TIP3    H263345   3.779   1.024   3.362 -0.8302  0.0725  0.1285
13952TIP3   OH263346   0.364   3.641  15.465 -0.5196  0.1847 -0.9690
13952TIP3    H163347   0.439   3.605  15.417 -1.9745 -1.7314 -1.9281
13952TIP3    H263348   0.354   3.582  15.540 -1.0623  0.4281 -0.8451
13953TIP3   OH263349   2.413   4.969  14.559 -0.1492  0.1885 -0.0560
13953TIP3    H163350   2.504   4.998  14.551 -0.0665 -0.3572 -1.3534
13953TIP3    H263351   2.361   5.050  14.554  0.2443  0.4838  0.5114
13954TIP3   OH263352   3.868   4.959  16.167 -0.7411  0.6049  0.9181
13954TIP3    H163353   3.832   5.045  16.188  1.1512  1.6076  0.2237
13954TIP3    H263354   3.890   4.920  16.251 -0.0022  1.5288  1.1602
13955TIP3   OH263355   3.363   6.221   5.573 -0.2440  0.3361 -0.5809
13955TIP3    H163356   3.332   6.298   5.620  0.9302  1.4361 -1.5328
13955TIP3    H263357   3.307   6.215   5.496 -1.1171 -0.5097  0.0924
13956TIP3   OH263358   6.066   0.107  11.400 -0.2875  0.4242  0.5470
13956TIP3    H163359   6.031   0.167  11.466 -2.1607  2.4310 -2.0576
13956TIP3    H263360   6.155   0.138  11.384 -0.8132  1.7805  0.1379
13957TIP3   OH263361   5.967   3.721   5.563 -0.0537  0.0499  0.2857
13957TIP3    H163362   5.970   3.626   5.572  0.6476  0.0697  0.3184
13957TIP3    H263363   5.874   3.741   5.556 -0.1885 -0.6747 -0.1303
13958TIP3   OH263364   3.264   1.042  13.510  0.3462  0.1777  0.0882
13958TIP3    H163365   3.359   1.031  13.513  0.3331  0.3400  1.1362
13958TIP3    H263366   3.230   0.953  13.506  0.5467  0.1266 -1.1363
13959TIP3   OH263367   1.904   5.522  13.288  0.2067  0.0570 -0.0534
13959TIP3    H163368   1.910   5.465  13.212 -1.5340  0.9310 -0.9020
13959TIP3    H263369   1.984   5.574  13.286  0.0396  0.2855 -1.4801
13960TIP3   OH263370   5.643   2.851  13.766 -0.0764 -0.4394 -0.3461
13960TIP3    H163371   5.669   2.836  13.857  2.2027 -0.2535 -0.8880
13960TIP3    H263372   5.672   2.773  13.719  0.6779  0.3248 -1.2119
13961TIP3   OH263373   5.669   3.633  14.319  0.2473 -0.4088  0.3729
13961TIP3    H163374   5.711   3.630  14.233 -0.7164 -1.7817 -0.0807
13961TIP3    H263375   5.714   3.564  14.370  0.8043  0.3853  0.9838
13962TIP3   OH263376   2.033   1.329  13.510  0.7955 -0.0253 -0.2611
13962TIP3    H163377   2.043   1.422  13.490 -0.5068  0.1656 -0.0865
13962TIP3    H263378   1.974   1.326  13.585  1.2887 -0.9826  0.1129
13963TIP3   OH263379   0.578   1.162   0.563  0.3205 -0.0852 -0.4533
13963TIP3    H163380   0.504   1.133   0.510  0.3227  1.0072 -1.0754
13963TIP3    H263381   0.566   1.117   0.647 -1.1064  0.1666 -0.5023
13964TIP3   OH263382   1.791   6.106   1.591  0.4304 -0.6164 -0.5706
13964TIP3    H163383   1.730   6.178   1.604 -0.2020 -1.0137 -1.2844
13964TIP3    H263384   1.777   6.049   1.667 -0.1945 -0.7820 -0.8068
13965TIP3   OH263385   1.229   0.595  14.148  0.6578  0.2164  0.1447
13965TIP3    H163386   1.298   0.650  14.112  2.4841 -1.4745  0.8247
13965TIP3    H263387   1.261   0.505  14.136 -1.7010 -0.6789  0.0016
13966TIP3   OH263388   5.657   2.625  13.612 -0.3050  0.0087 -0.0814
13966TIP3    H163389   5.708   2.575  13.549 -1.5766 -0.3333 -0.8711
13966TIP3    H263390   5.596   2.562  13.649 -1.1735  0.7204 -0.2716
13967TIP3   OH263391   4.178   4.729  10.936 -0.1972  0.5643 -0.0871
13967TIP3    H163392   4.240   4.676  10.887 -1.6066  0.6921 -2.1959
13967TIP3    H263393   4.213   4.818  10.930  0.6615  0.3043  0.9032
13968TIP3   OH263394   6.071   4.188  16.162 -1.0766 -0.6468 -0.1389
13968TIP3    H163395   6.104   4.186  16.072  0.9584  1.1440  0.4958
13968TIP3    H263396   6.124   4.124  16.209  0.2009  0.7753  0.4447
13969TIP3   OH263397   4.150   4.465  16.675 -0.5523 -0.0092 -0.0994
13969TIP3    H163398   4.184   4.443  16.762 -2.4067 -0.7707  0.4715
13969TIP3    H263399   4.103   4.547  16.688  1.5316  1.4288 -1.0375
13970TIP3   OH263400   3.479   1.542   6.013 -0.0031 -0.0456  0.0150
13970TIP3    H163401   3.555   1.592   6.042  0.3607 -0.8483  0.4858
13970TIP3    H263402   3.514   1.478   5.951 -0.2550 -0.5654  0.3997
13971TIP3   OH263403   0.214   2.910   3.017  0.1734 -0.2131  0.5395
13971TIP3    H163404   0.129   2.951   2.999  0.5502  1.3474  2.0414
13971TIP3    H263405   0.194   2.816   3.022 -0.9509 -0.1673 -1.7632
13972TIP3   OH263406   4.244   2.201   4.411 -0.2117  0.6319 -0.3089
13972TIP3    H163407   4.219   2.291   4.433  1.9699  1.2110  0.0183
13972TIP3    H263408   4.261   2.203   4.317 -0.9571  0.3443 -0.4548
13973TIP3   OH263409   5.390   4.067   2.910 -1.0915 -0.6670 -0.0572
13973TIP3    H163410   5.331   4.139   2.931 -0.2469  0.6455 -1.9295
13973TIP3    H263411   5.477   4.098   2.936 -0.8745 -1.5774  0.3734
13974TIP3   OH263412   5.412   4.727  15.377 -0.2169 -0.2155 -0.0348
13974TIP3    H163413   5.324   4.753  15.350 -0.6618 -0.7988  0.8331
13974TIP3    H263414   5.435   4.789  15.446 -0.0119 -0.1900 -0.1229
13975TIP3   OH263415   0.494   2.348  12.434 -0.1812 -0.3032  0.6679
13975TIP3    H163416   0.537   2.341  12.349 -1.8370  0.9900 -0.3157
13975TIP3    H263417   0.551   2.407  12.484  0.0574  0.0713 -0.0356
13976TIP3   OH263418   2.035   1.780  14.341 -0.0046 -0.3115  0.2029
13976TIP3    H163419   1.962   1.776  14.279 -0.5842 -0.5336  0.8925
13976TIP3    H263420   2.081   1.697  14.328 -0.3036 -0.4917  0.2867
13977TIP3   OH263421   4.879   4.348  16.757  1.0576 -0.6085  0.5906
13977TIP3    H163422   4.790   4.328  16.730  1.3734 -0.5854 -0.5168
13977TIP3    H263423   4.881   4.444  16.762  0.8586 -0.6341  1.2082
13978TIP3   OH263424   4.911   1.724   5.129  0.2784 -0.2969  0.7666
13978TIP3    H163425   4.870   1.757   5.049  0.1970 -1.8242  0.1508
13978TIP3    H263426   5.005   1.736   5.114  0.2761 -0.7955  0.3388
13979TIP3   OH263427   5.445   0.515  17.072 -0.8925  0.4451 -0.6179
13979TIP3    H163428   5.461   0.546  16.983 -0.4548  1.2747 -0.2636
13979TIP3    H263429   5.475   0.587  17.128  0.5523 -0.8000  0.2668
13980TIP3   OH263430   2.116   2.161  11.125 -0.2703 -0.4432  0.6518
13980TIP3    H163431   2.153   2.136  11.040 -1.9641 -0.3807 -0.1525
13980TIP3    H263432   2.080   2.079  11.160  0.7354 -0.5414  1.5046
13981TIP3   OH263433   5.422   5.957   0.043 -0.0751  0.0080  0.5873
13981TIP3    H163434   5.416   5.900  -0.033  2.7605 -0.8550  0.8733
13981TIP3    H263435   5.419   6.046   0.006 -0.3394 -0.3677 -0.3359
13982TIP3   OH263436   3.434   1.645   0.988 -0.1301 -0.9405 -0.3111
13982TIP3    H163437   3.493   1.682   1.053  1.0714 -0.6398 -1.5220
13982TIP3    H263438   3.487   1.638   0.909 -1.8077 -0.3788 -1.5487
13983TIP3   OH263439   6.330   5.432  15.851  0.2624  1.1577 -0.6326
13983TIP3    H163440   6.383   5.361  15.887 -1.1261  0.2083 -0.4029
13983TIP3    H263441   6.257   5.441  15.911 -1.2313  0.6692 -2.3052
13984TIP3   OH263442   5.904   6.629   4.043  0.2978  0.2149  0.0325
13984TIP3    H163443   5.906   6.681   4.123  0.7157  0.9687 -0.4526
13984TIP3    H263444   5.954   6.681   3.980 -1.3758  0.4279 -1.1896
13985TIP3   OH263445   4.113   6.817   2.624  0.4904  0.2744 -0.0340
13985TIP3    H163446   4.136   6.795   2.534  0.7851 -0.1948  0.1541
13985TIP3    H263447   4.156   6.900   2.640  2.4218 -0.7587  0.4398
13986TIP3   OH263448   5.710   6.401   1.314 -0.0309 -0.5337 -0.0789
13986TIP3    H163449   5.620   6.373   1.334 -0.4342  0.1688 -0.8567
13986TIP3    H263450   5.764   6.329   1.346 -0.9694 -1.6666 -0.9212
13987TIP3   OH263451   2.790   5.655  11.348  0.1352 -0.5354 -0.1198
13987TIP3    H163452   2.731   5.668  11.274  0.7043 -0.0227 -0.4953
13987TIP3    H263453   2.849   5.731  11.346  0.3482 -0.6659  0.6773
13988TIP3   OH263454   5.744   3.469   2.713 -0.4969  0.4509  0.3735
13988TIP3    H163455   5.724   3.424   2.631 -1.6562  0.8422  0.4294
13988TIP3    H263456   5.679   3.538   2.718 -0.7105  0.1568  1.8489
13989TIP3   OH263457   4.661   5.225  15.093 -0.1202 -0.6556 -0.0989
13989TIP3    H163458   4.569   5.201  15.095 -1.1220  2.7689  0.6754
13989TIP3    H263459   4.672   5.273  15.011  0.5844  0.1999  0.4765
13990TIP3   OH263460   5.162   2.873  16.424  0.1605  0.0416  0.3886
13990TIP3    H163461   5.205   2.838  16.502 -1.4418 -2.2779  0.3027
13990TIP3    H263462   5.132   2.960  16.451  1.5886  0.2002  1.6029
13991TIP3   OH263463   0.474   1.674   1.947 -0.1350 -0.1135  1.0849
13991TIP3    H163464   0.553   1.670   2.001  0.6970 -1.3743 -0.1531
13991TIP3    H263465   0.507   1.682   1.858 -1.4370 -0.0483  0.5887
13992TIP3   OH263466   2.697   6.421  11.265 -0.6036  0.4837 -0.8517
13992TIP3    H163467   2.687   6.326  11.256  0.6385  0.3554 -1.0549
13992TIP3    H263468   2.789   6.437  11.248 -0.6992  1.6842 -0.3481
13993TIP3   OH263469   2.920   3.520  13.984  0.0213  0.2797  0.1872
13993TIP3    H163470   2.907   3.471  13.903 -0.8412  2.0715 -0.8393
13993TIP3    H263471   2.833   3.551  14.008  0.5558  1.6443  0.5130
13994TIP3   OH263472   0.338   5.896   4.037  0.0040 -0.1104  0.3193
13994TIP3    H163473   0.260   5.926   3.990  0.4530 -0.8516 -0.9768
13994TIP3    H263474   0.343   5.951   4.115 -0.8504  1.0987 -0.4484
13995TIP3   OH263475   3.773   4.414  11.076  0.0025  0.0789  0.0022
13995TIP3    H163476   3.755   4.367  11.157  0.3173 -0.1075 -0.0363
13995TIP3    H263477   3.857   4.457  11.091  0.1030 -0.0271 -0.2560
13996TIP3   OH263478   4.387   3.086   4.699  0.2542  0.3486 -0.3166
13996TIP3    H163479   4.470   3.096   4.653  1.6676 -1.4206  1.6488
13996TIP3    H263480   4.353   3.001   4.670 -0.7766  0.9411 -0.9128
13997TIP3   OH263481   3.202   4.232  13.178  0.2787 -0.7392  0.2048
13997TIP3    H163482   3.194   4.282  13.259  0.0524 -0.6522  0.1280
13997TIP3    H263483   3.116   4.239  13.136 -0.0842 -2.0603  0.6976
13998TIP3   OH263484   6.741   6.758  14.596 -0.5143 -0.1437 -0.2896
13998TIP3    H163485   6.815   6.819  14.594 -0.5355 -0.1291 -1.1768
13998TIP3    H263486   6.746   6.712  14.512 -1.1041 -0.6394 -0.0631
13999TIP3   OH263487   5.188   3.881   3.212  0.6812 -0.7218 -0.6545
13999TIP3    H163488   5.177   3.948   3.144  0.7236 -1.3206 -1.2691
13999TIP3    H263489   5.282   3.879   3.228  0.4584  1.2840  1.3817
14000TIP3   OH263490   6.047   4.615  13.929  0.1433  0.6568  0.6597
14000TIP3    H163491   6.049   4.525  13.960  0.7685  0.3313 -0.2914
14000TIP3    H263492   5.967   4.620  13.876  1.1747  0.0401 -1.0271
14001TIP3   OH263493   6.163   1.991  16.256 -0.2504  0.3123  0.2304
14001TIP3    H163494   6.212   1.965  16.178 -1.1904  1.6340 -0.8381
14001TIP3    H263495   6.107   1.916  16.276  0.3012 -0.1949 -0.1137
14002TIP3   OH263496   1.819   1.355  14.091  0.4714 -0.4846 -0.0170
14002TIP3    H163497   1.913   1.363  14.077  0.2183  0.1530 -1.5649
14002TIP3    H263498   1.809   1.275  14.142  1.7846 -1.1413 -0.7389
14003TIP3   OH263499   3.133   6.561  12.281  0.0306  0.0411 -0.2020
14003TIP3    H163500   3.071   6.552  12.353  0.0172  0.4659 -0.1573
14003TIP3    H263501   3.105   6.641  12.235  1.2937  0.9478  0.5554
14004TIP3   OH263502   3.312   2.609  11.929  0.0676 -0.3328  0.3485
14004TIP3    H163503   3.407   2.607  11.942  0.0458  0.9450  0.8578
14004TIP3    H263504   3.281   2.681  11.986 -0.9577  0.5436 -1.2377
14005TIP3   OH263505   2.138   2.199  12.570 -0.4636  0.0923 -0.0869
14005TIP3    H163506   2.165   2.287  12.594  1.7327 -1.0706  2.1909
14005TIP3    H263507   2.169   2.188  12.480 -1.0231  1.6888 -0.5052
14006TIP3   OH263508   1.430   0.204   4.856  0.1548  0.5372  0.3428
14006TIP3    H163509   1.442   0.203   4.951 -0.6933  0.3105  0.4590
14006TIP3    H263510   1.337   0.187   4.844  0.4695 -0.6974 -0.5746
14007TIP3   OH263511   3.366   2.818  12.877 -0.0109 -0.1797  0.2107
14007TIP3    H163512   3.394   2.773  12.956 -0.4104 -0.7514  0.0337
14007TIP3    H263513   3.321   2.896  12.908  0.9797  0.2971  0.5166
14008TIP3   OH263514   1.663   3.740   6.078  0.0477 -0.0771  0.5394
14008TIP3    H163515   1.591   3.720   6.018  0.4890  0.0019 -0.0152
14008TIP3    H263516   1.630   3.713   6.164  0.1214 -1.9744  0.0147
14009TIP3   OH263517   4.421   1.614   4.750 -0.6634 -0.1178 -0.2120
14009TIP3    H163518   4.355   1.666   4.705  0.2843  1.3517  0.0315
14009TIP3    H263519   4.424   1.651   4.838 -0.1346 -0.7492  0.0417
14010TIP3   OH263520   3.536   4.051  13.868  0.0265 -0.5371 -0.1295
14010TIP3    H163521   3.515   4.078  13.957  0.4385  0.5305 -0.3361
14010TIP3    H263522   3.628   4.075  13.857 -0.6514  1.7564 -1.6500
14011TIP3   OH263523   0.760   5.870  11.732  0.1779 -0.4620 -0.4534
14011TIP3    H163524   0.804   5.837  11.810  0.4424 -2.7778 -1.4988
14011TIP3    H263525   0.831   5.894  11.672 -0.0202  0.5408 -0.3024
14012TIP3   OH263526   4.869   3.582   3.076  0.5883 -0.5550 -0.1026
14012TIP3    H163527   4.937   3.615   3.017 -0.1565  1.2145 -0.0512
14012TIP3    H263528   4.790   3.578   3.021  0.6985 -2.6702 -0.1900
14013TIP3   OH263529   1.069   5.808   0.573  0.4102  0.2562 -0.3951
14013TIP3    H163530   1.022   5.846   0.647  3.3018  1.6897  0.8683
14013TIP3    H263531   1.009   5.816   0.499 -2.3198 -0.5855  1.5679
14014TIP3   OH263532   4.230   0.730  15.439  0.2372  0.1738 -0.4092
14014TIP3    H163533   4.289   0.655  15.436  0.6242  0.4743 -0.5750
14014TIP3    H263534   4.223   0.758  15.348 -1.1632 -0.6078 -0.5689
14015TIP3   OH263535   1.078   6.689   1.871  0.3860  0.1539 -0.1251
14015TIP3    H163536   1.037   6.606   1.847  1.1216 -0.1179 -0.4716
14015TIP3    H263537   1.005   6.745   1.895 -0.1454 -0.5000 -0.1762
14016TIP3   OH263538   2.865   3.679  14.385  0.7366 -0.5561 -0.6241
14016TIP3    H163539   2.812   3.643  14.314  1.2787  0.9793 -1.8643
14016TIP3    H263540   2.862   3.774  14.371  2.5820 -0.3511  0.1533
14017TIP3   OH263541   6.538   6.407  10.752  0.5126 -0.4482 -0.4677
14017TIP3    H163542   6.443   6.414  10.759  0.6408  3.8014 -0.3702
14017TIP3    H263543   6.554   6.318  10.719 -3.4586 -1.1111 -1.0206
14018TIP3   OH263544   5.627   1.678  10.379 -1.2465 -0.1101 -0.0814
14018TIP3    H163545   5.684   1.749  10.409  0.6290 -1.2791 -0.7482
14018TIP3    H263546   5.637   1.678  10.284 -1.1176 -1.3273 -0.0837
14019TIP3   OH263547   5.896   1.423   1.411 -0.1704  0.7894 -0.5015
14019TIP3    H163548   5.941   1.482   1.471 -1.0870  0.9038  0.0770
14019TIP3    H263549   5.960   1.352   1.395 -0.2703  0.2101  1.4061
14020TIP3   OH263550   4.683   2.369   4.540  0.2135 -0.9338  0.3094
14020TIP3    H163551   4.707   2.295   4.484 -0.6774 -1.2018  0.2660
14020TIP3    H263552   4.592   2.353   4.563 -0.2271  0.5506 -0.3084
14021TIP3   OH263553   0.618   1.422  12.422 -0.0740  0.4872  0.0597
14021TIP3    H163554   0.527   1.429  12.450 -0.3899  0.0344 -0.8115
14021TIP3    H263555   0.619   1.458  12.333  1.0060  2.3935  0.7708
14022TIP3   OH263556   4.329   1.923  16.833  0.0371  0.1272 -0.0227
14022TIP3    H163557   4.250   1.876  16.860  0.3675 -0.4872 -0.1045
14022TIP3    H263558   4.303   2.015  16.832 -0.9825 -0.1462 -1.0598
14023TIP3   OH263559   3.778   6.461  14.082  0.7958 -0.4012 -0.5364
14023TIP3    H163560   3.845   6.450  14.015  0.2750 -1.3383 -0.9141
14023TIP3    H263561   3.767   6.556  14.090 -0.4718 -0.2549 -3.1580
14024TIP3   OH263562   0.388   1.072   6.583  0.5434  0.0954  0.4243
14024TIP3    H163563   0.342   1.144   6.540  1.1475 -1.5212 -3.2408
14024TIP3    H263564   0.481   1.089   6.567  0.7550 -0.9113  0.5118
14025TIP3   OH263565   5.166   5.741  14.403  0.3008  0.0745 -0.0007
14025TIP3    H163566   5.233   5.811  14.397 -0.3713  0.7156 -0.1927
14025TIP3    H263567   5.208   5.672  14.453  1.0285  0.5758  0.1014
14026TIP3   OH263568   0.921   4.351  14.986 -0.0066  0.3857 -0.4006
14026TIP3    H163569   1.007   4.369  15.026 -0.6307  0.8555  0.7867
14026TIP3    H263570   0.922   4.400  14.904  0.1592  1.9895  0.5155
14027TIP3   OH263571   1.466   5.752   3.263 -0.3584 -0.4998 -0.1463
14027TIP3    H163572   1.423   5.830   3.299  0.7385  0.2668 -0.4550
14027TIP3    H263573   1.468   5.690   3.336  1.3755  0.8507  1.0419
14028TIP3   OH263574   2.852   5.039   5.809  0.4667  0.0413 -0.4057
14028TIP3    H163575   2.854   5.132   5.786 -0.0545  0.6510  1.7816
14028TIP3    H263576   2.882   5.036   5.900 -0.4449 -1.8116 -0.1183
14029TIP3   OH263577   2.564   1.548  15.763  0.2446 -0.1123 -0.1513
14029TIP3    H163578   2.477   1.586  15.770 -0.6113 -1.7763 -1.1808
14029TIP3    H263579   2.599   1.551  15.852 -0.6735  0.9667  0.1951
14030TIP3   OH263580   0.311   3.356   4.100  0.3181  0.1125 -0.1107
14030TIP3    H163581   0.296   3.261   4.104 -0.1472  0.0991 -1.4856
14030TIP3    H263582   0.223   3.393   4.086  0.4232  0.8022  0.9263
14031TIP3   OH263583   5.407   5.331  17.126  0.2225  0.0936  0.5106
14031TIP3    H163584   5.358   5.402  17.085  0.3611 -0.5178 -0.7509
14031TIP3    H263585   5.459   5.293  17.055  0.6055 -0.8834  1.2884
14032TIP3   OH263586   5.596   2.510   6.163  0.6889 -0.3030  0.1002
14032TIP3    H163587   5.688   2.505   6.190  0.7165  2.4288  0.8300
14032TIP3    H263588   5.547   2.496   6.244  0.5283  0.0334  0.0626
14033TIP3   OH263589   2.038   6.387  12.062 -0.1141  0.1376 -0.0208
14033TIP3    H163590   2.104   6.322  12.037  0.3915  0.1911  1.1230
14033TIP3    H263591   2.087   6.469  12.065  0.0352  0.0198  1.8365
14034TIP3   OH263592   4.942   6.023   0.888  0.4093 -0.2589  0.5104
14034TIP3    H163593   4.969   6.114   0.879  2.1889 -0.7156  0.7577
14034TIP3    H263594   4.892   6.020   0.969  0.0789  0.5381  0.3462
14035TIP3   OH263595   2.378   2.277  14.474  0.6682 -0.6223  0.0379
14035TIP3    H163596   2.447   2.213  14.491 -0.3976 -1.6622  0.5882
14035TIP3    H263597   2.332   2.286  14.557 -0.0749 -0.2174 -0.4001
14036TIP3   OH263598   6.375   3.861  14.854  0.0384 -0.0677 -0.1620
14036TIP3    H163599   6.411   3.821  14.934  2.0273 -1.8288 -1.8318
14036TIP3    H263600   6.310   3.798  14.824  0.9800 -0.5914 -1.1576
14037TIP3   OH263601   0.161   4.381   0.114  0.1470  0.1637 -0.1920
14037TIP3    H163602   0.157   4.476   0.103  0.9067  0.4215  1.4604
14037TIP3    H263603   0.096   4.347   0.053 -1.4833  1.8643  0.4897
14038TIP3   OH263604   6.348   2.559  13.882 -0.3360 -0.5337  0.0357
14038TIP3    H163605   6.335   2.586  13.791  2.5918  1.7045  0.1198
14038TIP3    H263606   6.270   2.509  13.904 -3.3961  2.7353 -2.2641
14039TIP3   OH263607   5.356   3.963   4.056 -0.7807 -0.7082  0.4396
14039TIP3    H163608   5.427   4.025   4.041  0.0067 -1.9728 -1.3748
14039TIP3    H263609   5.382   3.916   4.135  0.1059 -0.7294  0.1475
14040TIP3   OH263610   6.350   5.461  14.301 -0.1318 -0.0105  0.3133
14040TIP3    H163611   6.285   5.439  14.367  1.2863  0.3626  1.9172
14040TIP3    H263612   6.407   5.383  14.298 -1.8030 -1.2865 -2.6950
14041TIP3   OH263613   4.378   1.480  14.601 -0.0618 -0.2977 -0.0924
14041TIP3    H163614   4.424   1.552  14.558 -0.2785 -1.0818 -1.7237
14041TIP3    H263615   4.289   1.512  14.614 -0.1362 -0.2236 -0.7354
14042TIP3   OH263616   5.525   6.842  11.669 -0.2971  0.1678 -0.5087
14042TIP3    H163617   5.468   6.808  11.738  1.5473 -0.6531  0.6822
14042TIP3    H263618   5.609   6.800  11.684  0.3404  0.3902 -2.9535
14043TIP3   OH263619   2.220   3.758  12.596  0.1716 -0.6402 -0.0075
14043TIP3    H163620   2.225   3.784  12.505 -0.7148 -1.2650 -0.2472
14043TIP3    H263621   2.311   3.764  12.628  0.1809  1.7487 -0.2848
14044TIP3   OH263622   1.389   0.841  13.043 -0.1787  0.1282 -0.1345
14044TIP3    H163623   1.372   0.921  12.993 -0.5627 -0.3400 -0.7609
14044TIP3    H263624   1.311   0.788  13.031  0.1616 -0.4341  0.0998
14045TIP3   OH263625   3.075   2.846   1.195 -0.5345  0.7263 -0.0621
14045TIP3    H163626   3.155   2.877   1.154  1.3708 -1.1923  1.9670
14045TIP3    H263627   3.056   2.912   1.263  0.9491 -0.1582  1.2673
14046TIP3   OH263628   2.600   3.319  11.813  0.0159  0.7262  0.2062
14046TIP3    H163629   2.641   3.328  11.727 -2.5041 -1.0062 -1.3193
14046TIP3    H263630   2.666   3.275  11.866  1.6783  1.9325 -0.7489
14047TIP3   OH263631   1.262   3.265   5.868  0.1778  0.3631 -0.3652
14047TIP3    H163632   1.322   3.331   5.904  1.0211  0.2218 -1.4600
14047TIP3    H263633   1.307   3.182   5.882 -0.9259 -0.0317  1.1061
14048TIP3   OH263634   0.475   5.400   1.831 -0.2629  0.1818  0.4071
14048TIP3    H163635   0.552   5.456   1.825  0.9041 -1.3693  0.4016
14048TIP3    H263636   0.409   5.444   1.777  1.3870  0.3215 -1.6256
14049TIP3   OH263637   0.746   5.080   3.787 -0.2962 -0.1457  0.6035
14049TIP3    H163638   0.699   5.143   3.841 -0.8917  0.8592 -1.0077
14049TIP3    H263639   0.695   5.074   3.707  1.0223 -0.8853 -0.2235
14050TIP3   OH263640   3.545   5.104  11.680 -0.0008 -0.1792 -0.1313
14050TIP3    H163641   3.554   5.197  11.700 -0.9923 -0.4821  2.0849
14050TIP3    H263642   3.450   5.091  11.672  0.0772 -1.1372  0.4107
14051TIP3   OH263643   1.733   4.284   2.215  0.4283 -0.3330 -0.1288
14051TIP3    H163644   1.752   4.329   2.132  0.1571 -0.2802 -0.1624
14051TIP3    H263645   1.659   4.227   2.195 -1.3533  1.5631  0.7010
14052TIP3   OH263646   2.649   2.859  11.853 -0.2063 -0.0693  0.2499
14052TIP3    H163647   2.599   2.905  11.785 -1.5683 -1.2718  0.3793
14052TIP3    H263648   2.730   2.832  11.809 -0.2554  0.7529 -0.3667
14053TIP3   OH263649   4.433   6.056   1.761 -0.1439 -0.1807  0.4921
14053TIP3    H163650   4.447   6.150   1.770 -0.1729 -0.2124  0.8696
14053TIP3    H263651   4.466   6.019   1.843 -1.4774 -0.3673  0.9623
14054TIP3   OH263652   3.323   6.136  12.510  0.0464 -0.8127  0.1500
14054TIP3    H163653   3.387   6.204  12.487 -0.9880  0.0292 -0.2886
14054TIP3    H263654   3.247   6.155  12.455 -0.7913 -1.4755  1.0543
14055TIP3   OH263655   0.600   1.955  11.135  0.1348 -0.5288  0.6414
14055TIP3    H163656   0.599   1.934  11.229  1.9658  0.3265  0.8998
14055TIP3    H263657   0.552   2.038  11.129  0.0414 -0.5667  0.8401
14056TIP3   OH263658   3.776   5.505  12.739 -0.0802  0.5821 -0.0502
14056TIP3    H163659   3.839   5.478  12.806 -1.3053 -1.9886  0.1985
14056TIP3    H263660   3.816   5.477  12.656  0.2436  1.3284 -0.1516
14057TIP3   OH263661   0.848   6.071   1.163 -0.2910 -0.8577  0.1250
14057TIP3    H163662   0.780   6.081   1.097  0.6272 -1.3512 -0.9117
14057TIP3    H263663   0.801   6.038   1.240 -1.1412 -1.8164 -0.7769
14058TIP3   OH263664   2.039   2.518  16.709  0.5582 -0.5478 -0.2119
14058TIP3    H163665   1.961   2.464  16.696  0.2064  0.0072 -0.4260
14058TIP3    H263666   2.006   2.602  16.740  1.0292 -0.1393 -0.7801
14059TIP3   OH263667   3.312   6.016  14.760 -0.1926 -0.0113 -0.3865
14059TIP3    H163668   3.400   5.995  14.790 -0.1221 -0.6708 -1.0127
14059TIP3    H263669   3.325   6.074  14.685 -0.3126  0.3426 -0.1359
14060TIP3   OH263670   0.940   5.629   4.530  0.1251  0.0475  0.1656
14060TIP3    H163671   1.028   5.666   4.522  0.8535 -1.5193  0.6137
14060TIP3    H263672   0.954   5.541   4.564 -1.6518 -0.0951  0.6147
14061TIP3   OH263673   4.410   2.220   0.112 -0.5568 -0.0157  0.1197
14061TIP3    H163674   4.377   2.307   0.088  0.4651  0.7731  1.4172
14061TIP3    H263675   4.425   2.177   0.028 -0.9360  1.1195 -0.5616
14062TIP3   OH263676   4.989   2.752  12.425 -0.1800  0.0400 -0.0176
14062TIP3    H163677   4.937   2.775  12.348 -1.1451 -0.2074  0.5437
14062TIP3    H263678   5.057   2.820  12.429  1.1170 -1.0243 -2.1871
14063TIP3   OH263679   1.925   4.217  15.352  0.3705 -0.6070  0.0997
14063TIP3    H163680   1.973   4.145  15.395  0.3252 -0.8213 -0.2066
14063TIP3    H263681   1.843   4.178  15.324 -0.2566 -0.0907  1.1538
14064TIP3   OH263682   1.328   3.103   5.065  0.0545  0.0916  0.3903
14064TIP3    H163683   1.344   3.116   4.972  1.0893 -0.1336  0.5217
14064TIP3    H263684   1.251   3.048   5.070 -0.1045  0.2486 -0.3289
14065TIP3   OH263685   5.109   1.237   6.391 -0.4046 -0.6116 -0.2828
14065TIP3    H163686   5.137   1.326   6.367 -0.7958 -0.3086  0.3675
14065TIP3    H263687   5.028   1.224   6.343  0.7638 -1.4739 -2.1358
14066TIP3   OH263688   1.249   4.152   5.674 -0.0790  0.0627 -0.0200
14066TIP3    H163689   1.317   4.208   5.636 -0.5449 -0.5213 -1.8566
14066TIP3    H263690   1.211   4.106   5.598 -2.1401 -0.0411  1.0013
14067TIP3   OH263691   3.974   2.933   2.564  0.3924 -0.1172 -0.2181
14067TIP3    H163692   3.891   2.910   2.522 -1.5950 -1.7135  3.9734
14067TIP3    H263693   4.037   2.872   2.526 -1.4861 -2.2075 -0.2399
14068TIP3   OH263694   2.845   3.008  12.402 -0.0324 -0.2822  0.1308
14068TIP3    H163695   2.881   2.949  12.336 -2.4007 -0.9344 -0.6934
14068TIP3    H263696   2.806   2.950  12.468  0.9822  0.3740  1.3582
14069TIP3   OH263697   4.148   2.533   0.954 -0.1239  0.1566  0.2300
14069TIP3    H163698   4.172   2.626   0.951 -3.1564  1.0148 -1.7575
14069TIP3    H263699   4.182   2.497   0.872  0.0342 -0.2291  0.4605
14070TIP3   OH263700   5.484   2.209  10.064 -0.4127 -0.0799 -0.8258
14070TIP3    H163701   5.493   2.304  10.073 -0.4057 -0.1247 -0.2958
14070TIP3    H263702   5.408   2.187  10.118 -0.0361 -0.4533 -0.4317
14071TIP3   OH263703   1.043   1.868   1.303 -0.1471  0.1579 -0.1640
14071TIP3    H163704   1.039   1.953   1.258  1.1032  0.3388  0.0404
14071TIP3    H263705   1.136   1.855   1.322 -0.2689 -1.4311 -0.5159
14072TIP3   OH263706   2.457   6.131   0.621  0.2676  0.2912 -0.4809
14072TIP3    H163707   2.424   6.057   0.569 -2.1489 -0.0129  1.2944
14072TIP3    H263708   2.401   6.205   0.596 -0.7552  0.2043  1.3607
14073TIP3   OH263709   0.922   3.061   0.948 -0.3996  0.6671  0.5366
14073TIP3    H163710   0.903   3.138   1.003 -0.1864  0.7927  0.4356
14073TIP3    H263711   0.837   3.018   0.938 -0.6873  1.3466 -0.0965
14074TIP3   OH263712   2.525   0.359   0.746  0.4000 -0.1167 -0.0904
14074TIP3    H163713   2.541   0.356   0.651  0.4968  1.6942 -0.1591
14074TIP3    H263714   2.471   0.437   0.759  0.5645 -0.2215  1.3799
14075TIP3   OH263715   5.029   1.343   1.359  0.1910 -0.1717  0.5667
14075TIP3    H163716   5.036   1.355   1.264 -1.2183 -0.5661  0.3952
14075TIP3    H263717   5.088   1.270   1.378  2.3576  1.4201  0.3915
14076TIP3   OH263718   0.833   5.571   2.589 -0.5052 -0.4173  0.0238
14076TIP3    H163719   0.754   5.521   2.609 -0.3319 -0.9007 -0.4710
14076TIP3    H263720   0.844   5.560   2.494 -0.6010  0.7649 -0.1404
14077TIP3   OH263721   1.018   3.359   5.288  0.2804  0.3716  0.3170
14077TIP3    H163722   1.053   3.289   5.234 -0.1505 -0.3700  0.9777
14077TIP3    H263723   1.072   3.359   5.367  1.0132  1.5566 -0.1510
14078TIP3   OH263724   4.343   3.362  10.733  0.0416 -0.7276  0.3295
14078TIP3    H163725   4.253   3.394  10.729  0.9038  1.9497  0.3802
14078TIP3    H263726   4.335   3.267  10.732 -2.7208 -0.5678 -0.7557
14079TIP3   OH263727   4.123   1.981  13.787  0.0193 -0.2783 -0.1169
14079TIP3    H163728   4.114   2.071  13.820  2.3314 -0.4148  1.0877
14079TIP3    H263729   4.216   1.963  13.795 -0.1610 -2.2278 -1.9178
14080TIP3   OH263730   1.371   1.892  15.171 -0.5268 -0.2693 -0.1398
14080TIP3    H163731   1.420   1.941  15.237  0.0100 -0.0999 -0.6499
14080TIP3    H263732   1.283   1.883  15.207 -0.1428 -0.5127  0.7652
14081TIP3   OH263733   2.029   4.077   1.275 -0.3424  0.0652  0.2942
14081TIP3    H163734   2.100   4.032   1.230 -0.6442  0.0413 -0.1587
14081TIP3    H263735   1.980   4.121   1.206 -1.1373 -0.4307  0.5253
14082TIP3   OH263736   1.841   6.541   3.655  0.1266  0.2809 -0.4441
14082TIP3    H163737   1.866   6.451   3.636  1.1204  0.1284  1.3020
14082TIP3    H263738   1.752   6.534   3.690 -0.2910  0.1550 -1.4928
14083TIP3   OH263739   1.864   0.904  17.108 -0.2092  0.1022 -0.1295
14083TIP3    H163740   1.956   0.894  17.132 -0.4245  2.4604  2.1557
14083TIP3    H263741   1.835   0.816  17.086  2.4489 -0.7824 -0.4612
14084TIP3   OH263742   6.607   4.880  14.628  0.3964 -0.0821  0.3112
14084TIP3    H163743   6.701   4.890  14.612  0.0610  0.6259 -1.3558
14084TIP3    H263744   6.577   4.968  14.651 -0.3238  0.3122 -1.9367
14085TIP3   OH263745   4.543   5.411   5.214 -0.4607 -0.5837 -0.2677
14085TIP3    H163746   4.582   5.410   5.127 -0.2825 -0.9133 -0.1872
14085TIP3    H263747   4.471   5.473   5.208 -2.6512 -3.0586 -1.6176
14086TIP3   OH263748   4.461   1.668   1.741  0.2292 -0.2221  0.3302
14086TIP3    H163749   4.374   1.632   1.725 -0.4403  1.3404  0.2766
14086TIP3    H263750   4.512   1.594   1.775 -1.4590 -0.8876  1.5653
14087TIP3   OH263751   6.315   6.551   1.624  0.0853  0.1226  0.4811
14087TIP3    H163752   6.265   6.499   1.561  0.4548 -0.6880  0.8429
14087TIP3    H263753   6.316   6.498   1.704  0.7201  0.5485  0.7618
14088TIP3   OH263754   0.370   4.450  11.147  0.0204  0.2040  0.3348
14088TIP3    H163755   0.342   4.359  11.139 -0.3275  0.3435 -0.0689
14088TIP3    H263756   0.384   4.479  11.057 -0.6129  0.7744  0.4089
14089TIP3   OH263757   0.194   1.881  13.736  0.2379  0.0626  0.3445
14089TIP3    H163758   0.194   1.963  13.785  1.0937  0.5035 -0.3752
14089TIP3    H263759   0.174   1.814  13.802 -0.2572  0.8190  0.9752
14090TIP3   OH263760   4.377   4.417   4.727  0.0115 -0.3470  0.4085
14090TIP3    H163761   4.310   4.364   4.683  2.0646 -2.9938  0.1811
14090TIP3    H263762   4.361   4.405   4.820 -0.5704  0.0438  0.3577
14091TIP3   OH263763   5.701   1.943  15.148  0.8057 -0.0178  0.2634
14091TIP3    H163764   5.739   1.931  15.061  1.1816  0.4172  0.3622
14091TIP3    H263765   5.758   1.892  15.206  0.9398  0.2173  0.3412
14092TIP3   OH263766   1.668   5.950  10.865 -0.2594  0.0053  0.4024
14092TIP3    H163767   1.601   5.912  10.809 -1.0407  1.1543  0.5274
14092TIP3    H263768   1.732   5.987  10.804 -0.7960  0.7139  0.2626
14093TIP3   OH263769   2.148   2.297   0.601  0.4218 -0.4896 -0.6517
14093TIP3    H163770   2.175   2.358   0.533 -1.4800  1.1941 -0.0020
14093TIP3    H263771   2.201   2.321   0.678 -1.0519  1.1463 -0.0889
14094TIP3   OH263772   5.436   0.139   4.026 -0.0842 -0.1309 -0.0136
14094TIP3    H163773   5.461   0.073   4.090  1.5233 -0.7307 -1.2088
14094TIP3    H263774   5.510   0.199   4.023 -1.7719  2.2200  1.5568
14095TIP3   OH263775   6.781   0.183   2.421  0.2224  0.1741  0.2188
14095TIP3    H163776   6.805   0.271   2.392 -1.1798  0.3357 -0.5548
14095TIP3    H263777   6.836   0.125   2.367 -0.8335  0.5319 -1.3059
14096TIP3   OH263778   4.928   5.652  14.020 -0.0662 -0.1792 -0.1957
14096TIP3    H163779   4.964   5.740  14.015 -1.8211  0.5101 -1.6437
14096TIP3    H263780   4.912   5.639  14.114 -2.2075  2.1263 -0.1432
14097TIP3   OH263781   4.255   1.584  15.520  0.3835 -0.3480 -1.0133
14097TIP3    H163782   4.266   1.489  15.532 -1.4452 -0.3858  1.0367
14097TIP3    H263783   4.343   1.620  15.526  0.9901 -1.8170 -0.5883
14098TIP3   OH263784   4.577   2.761  11.306 -0.1796  0.5391  0.9519
14098TIP3    H163785   4.605   2.701  11.374  0.3217 -1.8402 -1.2162
14098TIP3    H263786   4.652   2.768  11.247 -0.0777  3.6731  1.2853
14099TIP3   OH263787   4.800   5.599   2.964 -0.0168 -0.0191 -0.5068
14099TIP3    H163788   4.759   5.535   3.022 -0.4233 -1.1522 -1.9819
14099TIP3    H263789   4.777   5.684   3.001 -0.6181 -0.7034  0.7305
14100TIP3   OH263790   2.183   5.924   0.193 -0.0978  0.0171 -0.2019
14100TIP3    H163791   2.183   5.830   0.208 -1.4046  0.0112 -0.0835
14100TIP3    H263792   2.129   5.936   0.115  0.7020  0.6176 -0.6813
14101TIP3   OH263793   3.288   3.256   5.376 -0.7123  0.3513  0.1981
14101TIP3    H163794   3.242   3.203   5.440  1.2505 -1.4366  0.2427
14101TIP3    H263795   3.380   3.232   5.387 -0.2115  0.5614 -2.7174
14102TIP3   OH263796   5.735   0.390  13.490  0.1747 -0.4221  0.2840
14102TIP3    H163797   5.733   0.294  13.492  1.1614 -0.4396  1.6114
14102TIP3    H263798   5.755   0.415  13.580 -3.5281  1.1795  0.8255
14103TIP3   OH263799   6.780   2.669   3.062  0.6002 -0.1616  0.1125
14103TIP3    H163800   6.716   2.598   3.066 -0.3018  0.6821  2.1878
14103TIP3    H263801   6.766   2.709   2.976  0.4683 -1.8620 -0.6950
14104TIP3   OH263802   2.970   0.686   0.343  0.0850  0.0693 -0.4573
14104TIP3    H163803   3.061   0.659   0.331  0.7773  1.7935  0.5690
14104TIP3    H263804   2.932   0.684   0.255  1.2943 -0.0648 -0.9881
14105TIP3   OH263805   4.061   1.917  11.832  0.2122  0.3270 -0.4177
14105TIP3    H163806   3.991   1.868  11.791  0.0915 -0.5847  0.8161
14105TIP3    H263807   4.056   2.005  11.793  0.0304 -0.4380 -2.1878
14106TIP3   OH263808   3.664   3.230  15.234  0.1012 -0.4780 -0.0438
14106TIP3    H163809   3.749   3.221  15.277  0.3611  0.0299 -0.4448
14106TIP3    H263810   3.678   3.295  15.166 -0.5266 -0.6456 -0.3400
14107TIP3   OH263811   4.899   5.638  15.814  0.3662  0.0555 -0.3161
14107TIP3    H163812   4.823   5.664  15.865  0.0221 -0.0125 -0.7901
14107TIP3    H263813   4.960   5.712  15.823 -0.4540  0.8884 -1.3417
14108TIP3   OH263814   6.543   0.998  12.620 -0.2784 -0.0885  0.5681
14108TIP3    H163815   6.465   0.945  12.636 -1.9009  1.7412 -0.8288
14108TIP3    H263816   6.511   1.074  12.572  2.3750  0.7869  0.0237
14109TIP3   OH263817   3.167   3.282   2.769  0.5884 -0.4242 -0.3693
14109TIP3    H163818   3.208   3.271   2.855  0.1912 -0.1462 -0.1392
14109TIP3    H263819   3.228   3.337   2.720  0.7619 -0.4883 -0.2274
14110TIP3   OH263820   2.281   4.063  16.181 -0.2585  0.1160  0.6189
14110TIP3    H163821   2.357   4.067  16.238 -0.2580 -0.9168  0.7044
14110TIP3    H263822   2.289   4.141  16.125  1.5649 -0.6336 -0.2490
14111TIP3   OH263823   1.727   4.926  14.468 -0.1511  0.3079 -0.3609
14111TIP3    H163824   1.776   4.844  14.475 -0.9407 -0.2391 -1.0466
14111TIP3    H263825   1.694   4.927  14.378 -0.1388  1.3999 -0.3757
14112TIP3   OH263826   2.002   5.081   4.555  0.5242  0.1801  0.2153
14112TIP3    H163827   1.914   5.067   4.589  0.2005 -0.8632 -0.9739
14112TIP3    H263828   1.990   5.090   4.460  1.6493  0.4412  0.0796
14113TIP3   OH263829   1.465   4.943   4.641  0.7382 -0.1764  0.3852
14113TIP3    H163830   1.536   4.897   4.598 -0.1736 -2.0770  0.8013
14113TIP3    H263831   1.491   4.947   4.733  0.3353 -0.8181  0.5273
14114TIP3   OH263832   0.892   1.782   5.859 -0.5064  0.5429 -0.5567
14114TIP3    H163833   0.869   1.871   5.885 -1.8164 -0.3137  1.4529
14114TIP3    H263834   0.808   1.742   5.834 -0.4273 -0.9256  1.3184
14115TIP3   OH263835   6.763   6.101   1.088  0.2296 -0.1384  0.0860
14115TIP3    H163836   6.845   6.149   1.075  0.8849 -1.0920  0.6261
14115TIP3    H263837   6.715   6.114   1.007  0.7932  0.6607 -0.1356
14116TIP3   OH263838   4.774   6.001  15.047 -0.5770  0.1430  0.2886
14116TIP3    H163839   4.810   5.914  15.033 -0.8558  0.1369 -0.4059
14116TIP3    H263840   4.826   6.037  15.119 -0.1265 -0.3992  0.2406
14117TIP3   OH263841   6.601   2.340   4.792  0.1840 -0.0805 -0.2221
14117TIP3    H163842   6.513   2.309   4.771 -0.5124  0.2808  1.9369
14117TIP3    H263843   6.588   2.403   4.863  1.8847  2.5629 -2.0869
14118TIP3   OH263844   4.533   1.230  14.132 -0.0842 -0.0432 -0.2108
14118TIP3    H163845   4.457   1.287  14.129  1.4334  2.3367  1.7566
14118TIP3    H263846   4.545   1.211  14.225  2.0107  0.1476 -0.3914
14119TIP3   OH263847   0.761   0.874   4.973 -0.2387 -0.6334  0.4916
14119TIP3    H163848   0.701   0.800   4.960 -2.0348  0.5988  1.3317
14119TIP3    H263849   0.803   0.856   5.057  0.2590 -1.3029  0.1037
14120TIP3   OH263850   0.900   5.695   3.008 -0.6009 -0.6148 -0.2731
14120TIP3    H163851   0.813   5.661   3.026 -0.4788 -0.7991 -0.0136
14120TIP3    H263852   0.892   5.741   2.925 -1.5449  1.5279  0.9175
14121TIP3   OH263853   1.665   2.577   1.624  0.7678  0.2432 -0.0067
14121TIP3    H163854   1.703   2.521   1.693 -0.4913  0.4635  0.8930
14121TIP3    H263855   1.715   2.658   1.629  1.6476 -0.2598 -0.3476
14122TIP3   OH263856   5.414   1.611  16.551 -0.1057 -0.0027 -0.6838
14122TIP3    H163857   5.482   1.547  16.576 -0.8349 -0.5296  0.0002
14122TIP3    H263858   5.378   1.577  16.469 -0.9501 -0.8534  0.0223
14123TIP3   OH263859   4.106   3.123   4.433 -0.2372  0.0434  0.3934
14123TIP3    H163860   4.102   3.183   4.358  0.8935 -0.6736 -0.2739
14123TIP3    H263861   4.199   3.108   4.446 -0.4751 -0.8720  1.1154
14124TIP3   OH263862   1.612   1.859   4.859 -0.6501  0.0518  0.0861
14124TIP3    H163863   1.635   1.885   4.948 -0.0931 -2.8515  0.8740
14124TIP3    H263864   1.518   1.846   4.861 -1.0626  2.4385 -0.5158
14125TIP3   OH263865   2.406   2.961  12.045  0.2182  0.3369  0.5226
14125TIP3    H163866   2.440   2.966  11.955  2.1322  1.4635  1.2517
14125TIP3    H263867   2.315   2.991  12.037  0.0586 -0.4412 -1.1506
14126TIP3   OH263868   6.431   1.757  13.095  0.2047  0.2585 -0.7263
14126TIP3    H163869   6.439   1.671  13.052 -0.7079  0.0160 -0.4245
14126TIP3    H263870   6.521   1.780  13.119  0.4448 -0.6791 -0.6919
14127TIP3   OH263871   4.661   1.187   3.760 -0.5140  0.4338  0.0931
14127TIP3    H163872   4.605   1.223   3.829 -0.1486 -0.6105  0.9711
14127TIP3    H263873   4.720   1.259   3.738 -1.6264  1.2768 -0.2459
14128TIP3   OH263874   5.161   1.985   5.400  0.1261 -0.6295 -0.3113
14128TIP3    H163875   5.226   2.029   5.346 -0.8445  0.4990 -0.6189
14128TIP3    H263876   5.171   2.024   5.487 -0.4596 -0.0524 -0.4863
14129TIP3   OH263877   5.973   3.106   4.421 -0.1691 -0.3991  0.3657
14129TIP3    H163878   5.943   3.128   4.510  0.1278  0.5453  0.2364
14129TIP3    H263879   6.053   3.056   4.435 -0.7889 -1.3511  0.6553
14130TIP3   OH263880   0.107   2.104  16.782  0.1164  0.6344  0.5480
14130TIP3    H163881   0.090   2.195  16.805  0.2071  0.4445  1.3972
14130TIP3    H263882   0.075   2.054  16.857 -0.9903 -0.1176 -0.3965
14131TIP3   OH263883   1.020   4.051   1.281  0.1360  0.6003 -0.5857
14131TIP3    H163884   1.050   3.968   1.243  0.7546  0.9273 -0.8320
14131TIP3    H263885   1.047   4.117   1.217 -0.0764  1.0214 -0.2414
14132TIP3   OH263886   5.283   2.646   5.457 -0.5061  0.2668  0.0363
14132TIP3    H163887   5.325   2.685   5.381 -1.4830  1.6860  0.1997
14132TIP3    H263888   5.330   2.682   5.532  0.6277 -1.3275  0.1589
14133TIP3   OH263889   6.146   0.120  12.013 -0.2757  0.0993 -0.3164
14133TIP3    H163890   6.169   0.113  11.920 -0.9076  0.7797 -0.5412
14133TIP3    H263891   6.108   0.035  12.035  0.2226 -0.1951 -0.5770
14134TIP3   OH263892   4.928   5.618  12.300  0.0236 -0.1689 -0.4271
14134TIP3    H163893   4.996   5.604  12.235 -0.6602  1.1303 -1.4659
14134TIP3    H263894   4.976   5.628  12.383  1.0248 -0.1410 -0.9919
14135TIP3   OH263895   0.085   2.715  16.894 -0.0289  0.0006 -0.0455
14135TIP3    H163896   0.087   2.629  16.935 -1.8382 -0.4863 -0.9130
14135TIP3    H263897   0.080   2.776  16.968 -3.0057 -0.8513  0.5901
14136TIP3   OH263898   5.430   2.946  11.156  0.6873  0.2759 -0.1676
14136TIP3    H163899   5.407   3.039  11.145  0.7106  0.4233  0.9331
14136TIP3    H263900   5.523   2.942  11.136  0.4769  0.2884 -1.2433
14137TIP3   OH263901   2.666   6.462  13.227 -0.5160 -0.4256 -0.3734
14137TIP3    H163902   2.651   6.501  13.142  0.7291  0.7196 -0.0918
14137TIP3    H263903   2.706   6.377  13.208  0.6758  0.2402 -0.9299
14138TIP3   OH263904   4.128   4.912  16.308  0.2668  0.0719 -0.4556
14138TIP3    H163905   4.085   4.911  16.393  1.8650 -1.9142  0.4235
14138TIP3    H263906   4.212   4.955  16.324  1.1029 -1.4031 -0.6894
14139TIP3   OH263907   4.228   4.276   5.292  0.2369  0.0152  0.5684
14139TIP3    H163908   4.230   4.369   5.313  0.8510  0.2085 -0.3051
14139TIP3    H263909   4.185   4.272   5.206  2.6942 -0.2259 -0.7216
14140TIP3   OH263910   2.514   6.423   3.144  0.4422  0.7546  0.2471
14140TIP3    H163911   2.555   6.470   3.217 -0.9464  2.7041 -0.1516
14140TIP3    H263912   2.479   6.492   3.087 -2.4884 -0.7086  0.0695
14141TIP3   OH263913   2.802   6.397   6.496  0.1078  0.6998  0.4155
14141TIP3    H163914   2.825   6.307   6.521  1.4691  0.4802 -1.3883
14141TIP3    H263915   2.781   6.440   6.578 -1.8147 -1.5771  1.2278
14142TIP3   OH263916   5.260   0.449   0.540 -0.9179  0.4765 -0.2635
14142TIP3    H163917   5.269   0.468   0.447 -0.4166  1.2667 -0.0659
14142TIP3    H263918   5.267   0.534   0.583  1.3698 -0.0803  0.6541
14143TIP3   OH263919   5.880   6.364  12.837 -0.2173  0.2168 -0.5393
14143TIP3    H163920   5.785   6.366  12.846 -0.0657  0.3931  1.3290
14143TIP3    H263921   5.904   6.272  12.850 -0.1367  0.1304 -1.2529
14144TIP3   OH263922   6.352   3.264   3.111  0.5837  0.8761 -0.3865
14144TIP3    H163923   6.344   3.182   3.062 -1.0514  0.6774  0.1386
14144TIP3    H263924   6.277   3.316   3.083 -0.2154  0.8955  1.5924
14145TIP3   OH263925   0.891   1.090   5.300  0.4846  0.1245  0.2159
14145TIP3    H163926   0.801   1.101   5.269  0.0434  0.5050  1.5697
14145TIP3    H263927   0.925   1.016   5.250  0.2096  1.3854 -1.9870
14146TIP3   OH263928   1.700   4.164   0.172 -0.1588 -0.0175 -0.1357
14146TIP3    H163929   1.607   4.156   0.193  0.1513 -3.6027  0.5678
14146TIP3    H263930   1.704   4.149   0.077 -0.2794 -0.0604 -0.1341
14147TIP3   OH263931   5.985   0.358  13.392 -0.0379 -0.1790  0.4263
14147TIP3    H163932   5.892   0.377  13.405  0.1752  1.1904  0.1130
14147TIP3    H263933   6.012   0.315  13.473 -0.6432  0.6553  1.0869
14148TIP3   OH263934   2.915   2.293  16.287 -0.5094 -0.0166 -0.0205
14148TIP3    H163935   2.857   2.220  16.308  0.0276 -0.6362 -0.6454
14148TIP3    H263936   2.906   2.305  16.193  1.2530 -0.9203 -0.3490
14149TIP3   OH263937   6.173   0.645   6.711 -0.1030  0.1392  0.3436
14149TIP3    H163938   6.172   0.667   6.617 -0.3362 -0.0187  0.3097
14149TIP3    H263939   6.187   0.729   6.755 -1.2911  0.4064  0.2272
14150TIP3   OH263940   3.519   4.462   6.325 -0.6770  0.5352 -0.5088
14150TIP3    H163941   3.484   4.424   6.244  1.6325  0.5828 -1.6172
14150TIP3    H263942   3.472   4.545   6.334 -1.5639  0.1419 -1.3507
14151TIP3   OH263943   4.550   2.155   2.868 -0.8440  0.1148  0.3556
14151TIP3    H163944   4.596   2.157   2.784  0.2915  5.8645  0.7559
14151TIP3    H263945   4.457   2.153   2.845 -0.5942 -2.2599 -0.7571
14152TIP3   OH263946   2.229   2.763   1.308  0.2792  0.3300 -0.3579
14152TIP3    H163947   2.189   2.839   1.351  1.7159  0.8690  0.0936
14152TIP3    H263948   2.266   2.798   1.227 -0.3105 -0.2007 -0.8683
14153TIP3   OH263949   4.957   1.770  17.032 -0.0716  0.2095  0.8948
14153TIP3    H163950   4.944   1.714  16.955  0.6424  2.6111 -1.1071
14153TIP3    H263951   4.871   1.773  17.074 -1.0136  0.3386 -0.9264
14154TIP3   OH263952   3.720   4.630  14.210  0.0169  0.2173  0.0265
14154TIP3    H163953   3.727   4.709  14.157 -2.0275 -0.3905 -1.2851
14154TIP3    H263954   3.805   4.588  14.203 -0.1757  0.1532 -2.8629
14155TIP3   OH263955   1.437   0.262  13.053 -0.4006  0.3700  0.3211
14155TIP3    H163956   1.353   0.218  13.043 -0.0581  0.0764 -1.9443
14155TIP3    H263957   1.433   0.335  12.990  1.6490 -0.7199 -1.2226
14156TIP3   OH263958   1.477   6.468  13.374  0.2050  0.3018  0.4518
14156TIP3    H163959   1.564   6.507  13.369 -0.1087  1.2266  1.5975
14156TIP3    H263960   1.492   6.374  13.373  1.0864  0.4302 -1.0624
14157TIP3   OH263961   1.988   2.680   2.128  0.2873  0.0534 -0.2901
14157TIP3    H163962   1.974   2.637   2.212 -2.6209  1.9947  0.3569
14157TIP3    H263963   2.066   2.735   2.141  0.2371 -0.1481  0.9053
14158TIP3   OH263964   5.996   5.061   6.028 -0.0477 -0.0079  0.5344
14158TIP3    H163965   5.931   5.058   6.098 -2.2536  2.9483 -1.1181
14158TIP3    H263966   6.066   5.115   6.063 -0.1108 -0.3485  1.1977
14159TIP3   OH263967   0.322   6.197  13.767  0.2751  0.1605  0.1458
14159TIP3    H163968   0.307   6.104  13.748  0.0018  0.1920  0.2101
14159TIP3    H263969   0.282   6.244  13.694 -0.6969  0.2764  0.7417
14160TIP3   OH263970   2.556   3.788   3.884 -0.1226  0.3061 -0.0127
14160TIP3    H163971   2.583   3.727   3.816  0.2614  0.7890 -0.2993
14160TIP3    H263972   2.475   3.752   3.919 -1.1363  0.8164 -1.7429
14161TIP3   OH263973   3.975   1.459  13.295 -1.0318  0.0066 -0.1016
14161TIP3    H163974   4.049   1.431  13.348 -0.4998 -1.1875 -1.4060
14161TIP3    H263975   3.903   1.471  13.358 -0.3492 -1.0562  0.9101
14162TIP3   OH263976   0.642   2.965   0.212  0.4069  0.4125  0.1048
14162TIP3    H163977   0.553   2.962   0.179  0.2936 -1.1015  0.5100
14162TIP3    H263978   0.665   3.058   0.208 -1.6488  1.0360  1.2559
14163TIP3   OH263979   2.615   6.746  16.631 -0.4306 -0.7400 -0.4026
14163TIP3    H163980   2.645   6.836  16.645  1.4992 -1.1284 -1.7466
14163TIP3    H263981   2.681   6.692  16.675 -1.9639 -1.5401  1.0468
14164TIP3   OH263982   6.810   3.277  13.181 -0.3184 -0.1975 -0.0575
14164TIP3    H163983   6.745   3.321  13.237 -0.0717 -0.5774  0.5343
14164TIP3    H263984   6.759   3.216  13.128 -0.6820  0.8626 -0.9674
14165TIP3   OH263985   0.132   0.568   4.645 -0.6695 -1.0654 -0.8448
14165TIP3    H163986   0.187   0.529   4.577 -0.4274 -1.0310 -0.6686
14165TIP3    H263987   0.055   0.512   4.648 -0.4782 -1.3294 -0.8342
14166TIP3   OH263988   5.750   5.939  16.369 -0.2506 -0.3218  0.0745
14166TIP3    H163989   5.693   5.912  16.441  0.5542  0.7687  1.1615
14166TIP3    H263990   5.838   5.923  16.401  0.0997 -1.7343 -1.4845
14167TIP3   OH263991   0.262   6.117   2.159  0.5852  0.4529 -0.2013
14167TIP3    H163992   0.313   6.040   2.133  0.7709  0.5103 -0.0092
14167TIP3    H263993   0.185   6.116   2.102  0.2874 -0.2038  0.2082
14168TIP3   OH263994   6.482   4.709   6.531  0.5460 -0.5262  0.1676
14168TIP3    H163995   6.525   4.795   6.534  0.0585 -0.2877  0.3459
14168TIP3    H263996   6.522   4.665   6.456 -0.6579  0.6278 -1.2135
14169TIP3   OH263997   3.339   3.128  11.311 -0.2908  0.1270 -0.0096
14169TIP3    H163998   3.347   3.038  11.345 -1.1045 -0.1239 -0.4559
14169TIP3    H263999   3.259   3.126  11.258 -0.0685  1.0067 -0.3833
14170TIP3   OH264000   3.355   1.343  14.197 -0.7896  0.0850  0.2625
14170TIP3    H164001   3.290   1.382  14.139 -0.0682  1.8643  0.5641
14170TIP3    H264002   3.433   1.333  14.143 -0.5784  0.3002  0.5237
14171TIP3   OH264003   1.545   0.777   1.252 -0.2784 -0.4372 -0.5816
14171TIP3    H164004   1.586   0.699   1.291 -0.1745 -1.1125 -1.9782
14171TIP3    H264005   1.451   0.759   1.256 -0.2092 -1.3944 -2.3306
14172TIP3   OH264006   3.537   5.132  16.215 -0.3056 -0.2291 -0.0492
14172TIP3    H164007   3.546   5.065  16.282 -0.4286 -0.1827  0.0139
14172TIP3    H264008   3.444   5.157  16.218  0.2044  1.7007  1.6296
14173TIP3   OH264009   5.143   3.487  10.876 -0.3009  0.1898 -0.2390
14173TIP3    H164010   5.099   3.404  10.859 -0.5112  0.3051 -0.2666
14173TIP3    H264011   5.234   3.471  10.853  0.3588 -1.0073  2.7917
14174TIP3   OH264012   3.409   5.382  15.996  0.5879 -0.2938  0.0697
14174TIP3    H164013   3.428   5.474  15.976 -0.3422 -0.0152  0.4122
14174TIP3    H264014   3.449   5.367  16.082  2.3338 -0.7511 -0.7813
14175TIP3   OH264015   2.784   6.657  12.221  0.9214 -0.3421 -0.4522
14175TIP3    H164016   2.740   6.742  12.221  1.0387 -0.2490 -2.0170
14175TIP3    H264017   2.874   6.677  12.246  0.9618  0.0145 -0.8607
14176TIP3   OH264018   0.078   2.813   6.030 -0.2231  0.1717  0.2849
14176TIP3    H164019   0.156   2.784   6.077 -0.2574 -1.3009 -0.5243
14176TIP3    H264020   0.030   2.865   6.094  1.7890  1.8435  0.5599
14177TIP3   OH264021   4.528   0.171  16.234  0.1636 -0.8044 -0.3047
14177TIP3    H164022   4.440   0.199  16.259  0.7667  2.1868 -1.1505
14177TIP3    H264023   4.517   0.131  16.148 -0.2959  0.2355 -0.7429
14178TIP3   OH264024   6.028   5.906  14.026  0.2640  0.5771  0.0717
14178TIP3    H164025   6.017   5.816  14.058 -2.3817  0.7337 -0.1368
14178TIP3    H264026   6.119   5.928  14.045  0.4098 -1.3943  2.0674
14179TIP3   OH264027   1.787   3.622  13.269  0.0599  0.5141 -0.2752
14179TIP3    H164028   1.818   3.709  13.294 -0.1796  0.6619 -0.4988
14179TIP3    H264029   1.750   3.586  13.350  1.4208  0.0674  0.1785
14180TIP3   OH264030   4.358   0.531  16.024  0.0161  0.3118 -0.2381
14180TIP3    H164031   4.409   0.524  16.104 -1.0286 -0.6031  0.3794
14180TIP3    H264032   4.405   0.595  15.971 -0.6033  2.9073  2.1104
14181TIP3   OH264033   5.611   4.750  10.934  0.4949 -0.0639  0.0327
14181TIP3    H164034   5.521   4.765  10.963  0.1271 -2.2017  0.0865
14181TIP3    H264035   5.624   4.656  10.941  3.1771  0.2856  1.2768
14182TIP3   OH264036   3.374   1.721   1.841 -0.5301 -0.3560  0.4629
14182TIP3    H164037   3.350   1.671   1.920 -2.6497  0.1774  0.2318
14182TIP3    H264038   3.407   1.804   1.874 -0.5943 -0.4699  0.8174
14183TIP3   OH264039   6.613   6.840   6.562  0.6710  0.2780 -0.0158
14183TIP3    H164040   6.526   6.819   6.597  0.8726  0.0514  0.3647
14183TIP3    H264041   6.634   6.925   6.600  0.7447  0.1901  0.1418
14184TIP3   OH264042   4.430   1.856   5.043 -0.8757 -0.7464  0.2814
14184TIP3    H164043   4.498   1.851   5.110 -2.0756  2.6953  1.9728
14184TIP3    H264044   4.350   1.828   5.088 -1.3123 -0.5706 -0.3697
14185TIP3   OH264045   5.479   1.593  15.074  0.4186  0.5700  0.4099
14185TIP3    H164046   5.566   1.632  15.070  1.0302 -0.7360  0.4007
14185TIP3    H264047   5.462   1.580  15.167  1.6907 -2.1676  0.3722
14186TIP3   OH264048   0.229   1.476   2.438 -0.3528  0.1460 -0.5380
14186TIP3    H164049   0.196   1.451   2.351  1.2385 -0.8637 -0.9103
14186TIP3    H264050   0.324   1.486   2.425 -0.2867  1.5781  0.7513
14187TIP3   OH264051   6.603   1.177   2.619 -0.0133 -0.1330  0.1525
14187TIP3    H164052   6.696   1.167   2.639  0.2446  0.6006 -0.6062
14187TIP3    H264053   6.561   1.187   2.704  0.8580  1.4871  0.4336
14188TIP3   OH264054   0.085   1.921   0.506  0.1076 -0.1565 -0.3873
14188TIP3    H164055  -0.003   1.949   0.531 -0.4036 -1.8627 -0.1222
14188TIP3    H264056   0.144   1.981   0.551 -0.9072  0.8319 -0.3353
14189TIP3   OH264057   0.246   3.830  11.864 -0.5770  0.4381 -0.3545
14189TIP3    H164058   0.151   3.823  11.855 -0.4190 -0.3654 -1.7311
14189TIP3    H264059   0.269   3.764  11.929 -0.8393 -0.3156 -1.0097
14190TIP3   OH264060   6.791   6.425  13.837 -0.3505 -0.0853  0.2965
14190TIP3    H164061   6.876   6.467  13.852 -0.6122 -0.2227  2.3449
14190TIP3    H264062   6.780   6.429  13.742  1.2979  1.1993  0.1027
14191TIP3   OH264063   5.717   1.934   4.799 -0.5849 -0.9058  0.8082
14191TIP3    H164064   5.665   1.856   4.818 -3.5314  0.5239 -0.6636
14191TIP3    H264065   5.701   1.992   4.874 -1.2940 -0.3943  0.2706
14192TIP3   OH264066   2.836   1.411  16.845  1.2186 -0.2199 -0.5396
14192TIP3    H164067   2.754   1.456  16.826  0.0212 -2.0006  0.0782
14192TIP3    H264068   2.894   1.479  16.877 -0.1716  1.0302 -0.5719
14193TIP3   OH264069   5.758   4.567  13.252 -0.0706 -0.9557  0.4895
14193TIP3    H164070   5.834   4.621  13.228  0.5076 -1.5323  0.9827
14193TIP3    H264071   5.776   4.482  13.213  1.5387 -2.3476  3.8398
14194TIP3   OH264072   3.309   6.745   0.272  0.7029 -0.2280 -0.2148
14194TIP3    H164073   3.249   6.673   0.294  0.3455 -0.1873 -0.9824
14194TIP3    H264074   3.259   6.798   0.209  0.8006  0.9372  0.6633
14195TIP3   OH264075   5.025   0.666   3.619  0.7239 -0.0231 -0.0693
14195TIP3    H164076   5.005   0.758   3.640 -0.0770 -0.6977  2.5921
14195TIP3    H264077   5.001   0.656   3.527 -0.0051  2.2099 -0.1772
14196TIP3   OH264078   6.852   0.967  15.563  0.3232  0.2579  0.3050
14196TIP3    H164079   6.916   0.962  15.492 -0.2133 -0.0513 -0.1638
14196TIP3    H264080   6.807   1.050  15.548 -1.8040 -1.0956 -1.5050
14197TIP3   OH264081   1.268   2.704   4.255 -0.8270  0.1381  0.3356
14197TIP3    H164082   1.344   2.727   4.309 -1.0031 -1.6845  1.4720
14197TIP3    H264083   1.306   2.663   4.177 -0.5347 -2.4536  1.7033
14198TIP3   OH264084   5.381   5.031   3.951  0.1252  0.3398 -0.0458
14198TIP3    H164085   5.400   5.109   3.898 -1.1673  0.1697 -0.7921
14198TIP3    H264086   5.423   5.049   4.035 -0.3068  1.9603 -0.1343
14199TIP3   OH264087   4.700   4.366   6.565  0.8148  0.3927 -0.2250
14199TIP3    H164088   4.648   4.424   6.509  1.7211  1.5509  0.0941
14199TIP3    H264089   4.790   4.376   6.534  1.0509 -0.5319  0.1198
14200TIP3   OH264090   0.478   0.902  11.727 -0.6355  0.6309 -0.3659
14200TIP3    H164091   0.491   0.992  11.699 -2.5793  1.1696  0.3330
14200TIP3    H264092   0.563   0.860  11.714  0.8188  2.9977  1.0015
14201TIP3   OH264093   1.728   6.288  16.872 -0.0063  0.3781  0.0125
14201TIP3    H164094   1.662   6.222  16.850  0.3601  0.0790 -0.2067
14201TIP3    H264095   1.757   6.323  16.788 -0.3327  0.9625  0.1349
14202TIP3   OH264096   0.722   4.939   3.401  0.1990  0.1846  0.0140
14202TIP3    H164097   0.734   4.982   3.316  2.1072 -0.4606 -0.0930
14202TIP3    H264098   0.811   4.930   3.436 -0.5385  0.5571  2.1632
14203TIP3   OH264099   4.603   4.394   3.204 -0.4297 -0.4111  0.2789
14203TIP3    H164100   4.534   4.387   3.138 -2.2875  0.1643  2.0505
14203TIP3    H264101   4.595   4.483   3.238  0.8224 -0.5225  0.9074
14204TIP3   OH264102   6.622   6.818   3.761 -0.1669 -0.1736  0.1183
14204TIP3    H164103   6.528   6.798   3.764 -0.5678  1.5328  1.6072
14204TIP3    H264104   6.647   6.805   3.670 -1.6718 -1.4014 -0.1599
14205TIP3   OH264105   4.689   2.549  13.637 -0.1451 -0.0932 -0.0878
14205TIP3    H164106   4.605   2.583  13.669  0.5130  0.3778  1.1925
14205TIP3    H264107   4.666   2.505  13.555 -1.7576 -0.5754  0.5635
14206TIP3   OH264108   4.150   4.472   2.436 -0.0629 -0.4197  0.3735
14206TIP3    H164109   4.172   4.553   2.390  2.3533  0.0817  2.1824
14206TIP3    H264110   4.232   4.446   2.479 -1.2916 -2.7252  1.5214
14207TIP3   OH264111   5.710   5.169  13.472  0.2253  0.6000  0.2299
14207TIP3    H164112   5.734   5.256  13.505 -1.2266  1.9629 -2.0920
14207TIP3    H264113   5.654   5.186  13.397 -3.9913 -2.3138  2.2925
14208TIP3   OH264114   1.905   5.150  16.114  0.0819  0.4397  0.2046
14208TIP3    H164115   1.900   5.191  16.200 -4.1254 -2.3731  1.6336
14208TIP3    H264116   1.835   5.192  16.063 -1.7197 -2.0359  0.4490
14209TIP3   OH264117   2.748   1.574  12.402 -1.0383 -0.0818 -0.1174
14209TIP3    H164118   2.818   1.546  12.343 -0.5579 -0.1627  0.4763
14209TIP3    H264119   2.790   1.577  12.488 -1.8854 -0.5915  0.3256
14210TIP3   OH264120   3.435   3.776   0.952  0.5214 -0.6349  0.2859
14210TIP3    H164121   3.352   3.811   0.921  0.9898 -0.9756 -1.4691
14210TIP3    H264122   3.448   3.816   1.038 -1.3007 -0.3677  0.4742
14211TIP3   OH264123   6.300   0.627   3.916  0.1842 -0.1011  0.0012
14211TIP3    H164124   6.209   0.656   3.923 -0.0064 -1.0589  3.1078
14211TIP3    H264125   6.328   0.655   3.829 -3.0755  0.1830 -1.0780
14212TIP3   OH264126   1.690   0.726  12.466  0.5587  0.3380 -0.5937
14212TIP3    H164127   1.733   0.716  12.551  0.8968 -1.4260 -0.9362
14212TIP3    H264128   1.633   0.803  12.477 -2.9405 -2.3374  2.7988
14213TIP3   OH264129   0.255   0.609   3.992  0.1413 -0.2500 -0.0446
14213TIP3    H164130   0.161   0.595   4.006 -0.0214  1.5944  0.9857
14213TIP3    H264131   0.261   0.637   3.901 -0.0541 -2.0810 -0.6677
14214TIP3   OH264132   1.713   6.423  10.290  0.6627  0.0787  0.6171
14214TIP3    H164133   1.803   6.390  10.293  1.2688  1.4822 -0.7882
14214TIP3    H264134   1.718   6.509  10.332 -0.3917 -0.5256  2.0493
14215TIP3   OH264135   0.048   4.274   0.598  0.1009 -0.2191 -0.4024
14215TIP3    H164136  -0.016   4.345   0.604 -1.1606 -1.3076 -0.4463
14215TIP3    H264137   0.031   4.234   0.513 -0.6094 -1.8350  0.4676
14216TIP3   OH264138   2.681   5.096  14.585  0.1904 -0.1133  0.5145
14216TIP3    H164139   2.738   5.126  14.655 -0.0905 -1.4891  1.3802
14216TIP3    H264140   2.741   5.071  14.514  0.5439  0.2333  0.6898
14217TIP3   OH264141   5.446   1.415   1.554 -0.4527  0.0088  0.1672
14217TIP3    H164142   5.415   1.448   1.639 -1.5280  2.5490 -1.0735
14217TIP3    H264143   5.398   1.333   1.541 -1.8136  0.5931  1.1687
14218TIP3   OH264144   2.197   2.324  14.708  0.1610 -0.4323 -0.5331
14218TIP3    H164145   2.126   2.262  14.691  0.6419 -0.9727 -0.6073
14218TIP3    H264146   2.170   2.405  14.664 -0.1146 -0.8245 -1.0863
14219TIP3   OH264147   4.736   6.434  13.320 -0.1525  0.2168 -0.0520
14219TIP3    H164148   4.768   6.400  13.404  0.5551  0.6115 -0.1601
14219TIP3    H264149   4.709   6.524  13.339 -0.9624 -0.0224 -0.0227
14220TIP3   OH264150   5.869   6.446   2.065  0.9068 -0.7197 -1.0223
14220TIP3    H164151   5.933   6.448   2.136  0.7838 -2.7946 -0.8097
14220TIP3    H264152   5.792   6.405   2.103  0.5906 -1.2053 -2.1549
14221TIP3   OH264153   3.672   3.646   3.711  0.5329  0.1004  0.1711
14221TIP3    H164154   3.722   3.698   3.774  1.1939 -2.3252  1.8086
14221TIP3    H264155   3.736   3.585   3.675 -0.5531 -0.7874 -0.3053
14222TIP3   OH264156   6.678   0.639   4.806  0.6216 -0.5171  0.0826
14222TIP3    H164157   6.596   0.655   4.759 -0.4570 -0.9454  1.7536
14222TIP3    H264158   6.697   0.546   4.792  0.8696 -0.4062 -0.3466
14223TIP3   OH264159   2.534   2.732   1.852  0.6520  0.2220 -0.1770
14223TIP3    H164160   2.505   2.752   1.763 -2.9063  0.8401  0.9601
14223TIP3    H264161   2.549   2.637   1.851  0.5240  0.1931 -1.3901
14224TIP3   OH264162   1.826   4.350  10.875  0.4271 -0.1013  0.1326
14224TIP3    H164163   1.795   4.300  10.799 -1.9227  0.6036  0.5237
14224TIP3    H264164   1.810   4.293  10.949 -0.5064  0.4792  0.3972
14225TIP3   OH264165   5.677   5.028  15.050 -0.0698  0.1173  0.1954
14225TIP3    H164166   5.674   5.112  15.005 -0.1868  0.5058  0.9096
14225TIP3    H264167   5.589   4.991  15.039 -0.5546  0.8789  1.3305
14226TIP3   OH264168   5.516   4.163   3.450  0.0636 -0.0291  0.0173
14226TIP3    H164169   5.468   4.082   3.468 -0.0658  0.3125  1.3465
14226TIP3    H264170   5.484   4.191   3.364 -0.6834 -0.8226  0.0187
14227TIP3   OH264171   1.274   3.092   2.541  0.4055 -0.3246 -0.1345
14227TIP3    H164172   1.205   3.108   2.476  0.8561 -1.5012 -0.9460
14227TIP3    H264173   1.232   3.106   2.625 -0.2232  1.1785 -0.6641
14228TIP3   OH264174   3.461   2.534  15.349  0.3772 -0.3933  0.2469
14228TIP3    H164175   3.382   2.520  15.402  1.2728  1.0015  2.0624
14228TIP3    H264176   3.528   2.557  15.413  1.6979  0.6823 -1.4597
14229TIP3   OH264177   6.085   2.175   4.430 -0.2633  0.5472 -0.2367
14229TIP3    H164178   5.992   2.197   4.429 -0.6322 -0.8873 -2.0116
14229TIP3    H264179   6.128   2.252   4.392 -0.5845  1.5529  1.3305
14230TIP3   OH264180   4.051   2.474  10.624  0.3708 -0.1457  0.2506
14230TIP3    H164181   4.001   2.499  10.546  0.6106  2.6800  0.9285
14230TIP3    H264182   4.129   2.431  10.589  1.1912  2.3348 -1.2185
14231TIP3   OH264183   5.823   3.599   1.423  0.3294 -0.5919 -0.2139
14231TIP3    H164184   5.914   3.579   1.399  0.9580 -2.1020  2.8762
14231TIP3    H264185   5.816   3.694   1.413  2.0453 -0.5081 -1.0962
14232TIP3   OH264186   2.430   2.036   0.941  0.1234  0.4428 -0.5769
14232TIP3    H164187   2.394   2.109   0.992  1.2126  0.8909 -0.4304
14232TIP3    H264188   2.391   1.958   0.981  1.7491  0.7020  1.6725
14233TIP3   OH264189   5.834   5.374  12.654  0.3159  0.0444 -0.0383
14233TIP3    H164190   5.876   5.440  12.600  1.9313 -1.0969 -0.2565
14233TIP3    H264191   5.855   5.291  12.611  0.3817 -0.7768  1.5044
14234TIP3   OH264192   6.369   4.989  15.847 -0.1989 -0.4525 -0.1899
14234TIP3    H164193   6.362   5.052  15.918 -0.3787  0.9616 -1.4245
14234TIP3    H264194   6.444   4.934  15.871  0.4920  0.7568  0.5024
14235TIP3   OH264195   5.025   3.185  10.103  0.0440 -0.1845 -0.0708
14235TIP3    H164196   5.063   3.106  10.064  0.9697 -1.3372  2.9012
14235TIP3    H264197   4.948   3.154  10.150  0.5293  0.6109  1.3047
14236TIP3   OH264198   4.878   6.533   3.104 -0.0879  0.3644 -0.3833
14236TIP3    H164199   4.824   6.539   3.025  2.1621  3.1617 -1.9354
14236TIP3    H264200   4.941   6.463   3.084 -0.8339 -0.3841 -0.1403
14237TIP3   OH264201   4.798   2.036  12.121  0.0161  0.2812 -0.8701
14237TIP3    H164202   4.720   2.011  12.169  0.6154 -2.2392 -1.0619
14237TIP3    H264203   4.871   2.001  12.172  0.8031 -0.3815 -2.3594
14238TIP3   OH264204   4.356   5.911  14.500 -0.2996  0.1516  0.6057
14238TIP3    H164205   4.354   5.931  14.406 -0.8773 -1.5001  0.2272
14238TIP3    H264206   4.439   5.866  14.513 -1.0749 -1.3834  0.4563
14239TIP3   OH264207   5.695   1.995  14.149  0.1108  0.3424 -0.2266
14239TIP3    H164208   5.784   1.966  14.166  0.1392  0.8795  0.6584
14239TIP3    H264209   5.705   2.082  14.109  0.0002  0.8169  0.7247
14240TIP3   OH264210   3.915   5.082  13.228 -0.3789  0.5718  0.2065
14240TIP3    H164211   3.942   5.000  13.186 -2.3274 -1.5759  2.7495
14240TIP3    H264212   3.872   5.132  13.159  1.2984 -0.3133 -1.5338
14241TIP3   OH264213   1.424   0.007  13.243 -0.4247  0.1057 -0.3048
14241TIP3    H164214   1.352   0.057  13.281  0.2643  0.6173  0.3632
14241TIP3    H264215   1.498   0.067  13.245  0.4666 -0.9760  0.6654
14242TIP3   OH264216   1.906   6.713   1.032  0.1482  0.3495  0.5244
14242TIP3    H164217   1.852   6.778   0.987  3.1443  0.7958 -2.9213
14242TIP3    H264218   1.898   6.634   0.979  0.4693 -0.5376  1.7585
14243TIP3   OH264219   1.285   5.978   3.283 -0.0390 -0.5723 -0.1748
14243TIP3    H164220   1.271   5.992   3.190  1.0014  0.5597 -0.1787
14243TIP3    H264221   1.211   6.023   3.325 -0.0777 -0.4048 -0.4211
14244TIP3   OH264222   1.596   3.684  13.963 -0.7192 -0.2061  0.1592
14244TIP3    H164223   1.544   3.605  13.980 -0.9529  0.1506  1.1579
14244TIP3    H264224   1.685   3.660  13.990 -0.9210  0.0766  1.1147
14245TIP3   OH264225   0.658   3.494  11.694  0.5132  0.4741 -0.4647
14245TIP3    H164226   0.747   3.472  11.666  0.7076  0.3501  0.2326
14245TIP3    H264227   0.611   3.411  11.693  0.2283  0.6321 -1.4206
14246TIP3   OH264228   0.639   5.285  14.825 -0.3542 -0.1664 -0.0379
14246TIP3    H164229   0.589   5.359  14.790 -0.3710  0.4689  1.2716
14246TIP3    H264230   0.575   5.233  14.873 -0.4440 -1.3459 -1.3854
14247TIP3   OH264231   2.377   5.525   2.024  0.4262 -0.0433  0.0079
14247TIP3    H164232   2.371   5.609   1.980  0.6003 -1.2934 -2.5599
14247TIP3    H264233   2.328   5.464   1.968  0.1851 -1.6464  1.8434
14248TIP3   OH264234   0.753   5.506   3.555  0.6629  0.0305  0.8260
14248TIP3    H164235   0.819   5.440   3.576  0.5073  0.0955  1.5396
14248TIP3    H264236   0.803   5.580   3.520  0.7412 -0.9472 -1.3051
14249TIP3   OH264237   4.778   6.071   1.094  0.5563 -0.4914  0.2747
14249TIP3    H164238   4.685   6.093   1.086  0.4929 -0.1876  1.6283
14249TIP3    H264239   4.789   6.045   1.186  1.8092 -0.5427  0.1306
14250TIP3   OH264240   5.904   4.066  15.288 -0.0808 -0.6372  0.1653
14250TIP3    H164241   5.971   4.122  15.248 -0.1299 -1.0929 -0.5845
14250TIP3    H264242   5.822   4.092  15.245 -0.4643  0.1750  1.3435
14251TIP3   OH264243   5.608   5.519  12.899 -0.1057  0.0669 -0.2910
14251TIP3    H164244   5.642   5.449  12.843 -1.5842 -0.4634 -0.5825
14251TIP3    H264245   5.594   5.593  12.839 -1.6916 -0.5015 -0.6764
14252TIP3   OH264246   1.872   2.260   3.050  0.1372  0.4649 -0.0616
14252TIP3    H164247   1.798   2.273   2.991 -0.1972  0.5940  0.3816
14252TIP3    H264248   1.901   2.349   3.073  0.1883  0.4170  0.0628
14253TIP3   OH264249   2.591   0.568   5.577  0.0710 -0.3193  0.1304
14253TIP3    H164250   2.571   0.599   5.489  1.1165 -0.2487 -0.0949
14253TIP3    H264251   2.662   0.625   5.607 -0.4984 -0.1288  1.1506
14254TIP3   OH264252   3.988   1.458   4.918 -0.1194  0.3340  0.1591
14254TIP3    H164253   3.899   1.438   4.950 -0.6752  1.2328 -0.7622
14254TIP3    H264254   3.993   1.414   4.833  0.3068  0.3352  0.1818
14255TIP3   OH264255   4.340   1.908  11.405  0.2056 -0.6689 -0.3847
14255TIP3    H164256   4.266   1.968  11.409  2.0212  1.6558 -0.0427
14255TIP3    H264257   4.326   1.858  11.324 -1.2461  0.3473 -0.7909
14256TIP3   OH264258   5.366   1.541   5.288 -0.7895  0.0346  0.2159
14256TIP3    H164259   5.399   1.532   5.198  1.7698 -1.1828  1.1660
14256TIP3    H264260   5.324   1.627   5.289  0.4358  0.7535 -1.7887
14257TIP3   OH264261   3.467   0.556   0.387 -0.0393  0.4243 -0.7447
14257TIP3    H164262   3.446   0.646   0.363  0.4144  1.3428  1.9377
14257TIP3    H264263   3.563   0.555   0.395 -0.0686 -0.1486 -0.3543
14258TIP3   OH264264   5.062   5.293  15.564 -0.0567 -0.1697  0.0355
14258TIP3    H164265   5.152   5.322  15.578 -0.4616  0.7136  0.9220
14258TIP3    H264266   5.040   5.244  15.644 -0.1432 -0.9626 -0.4681
14259TIP3   OH264267   6.005   0.243  11.673  0.2027  0.4982  0.2106
14259TIP3    H164268   5.930   0.183  11.675  1.0170 -0.5904 -0.8228
14259TIP3    H264269   5.966   0.330  11.664 -0.9340 -0.0666 -0.4535
14260TIP3   OH264270   6.650   5.942   4.383  0.2988  0.1185 -0.0925
14260TIP3    H164271   6.580   5.935   4.448  0.6564  0.2102  0.3082
14260TIP3    H264272   6.609   5.917   4.301  0.0178 -0.7236  0.2855
14261TIP3   OH264273   5.792   5.064   6.195 -0.1940 -0.1178 -0.9864
14261TIP3    H164274   5.742   5.013   6.131 -0.3752  0.6733 -1.4942
14261TIP3    H264275   5.740   5.062   6.275 -0.8827  0.4247 -1.4151
14262TIP3   OH264276   5.971   0.878   5.781  0.1652 -0.1836  0.8274
14262TIP3    H164277   5.956   0.949   5.719 -1.8009 -0.3246  1.1063
14262TIP3    H264278   5.967   0.919   5.867  1.9227 -0.1658  0.9522
14263TIP3   OH264279   1.993   4.842   3.194 -0.1711  0.5502  0.2892
14263TIP3    H164280   1.933   4.882   3.130  0.4009 -0.0043 -0.6166
14263TIP3    H264281   2.034   4.917   3.237 -0.3161  0.9469 -0.2397
14264TIP3   OH264282   1.250   3.364   2.055  0.3622  0.5266  0.0080
14264TIP3    H164283   1.198   3.290   2.023 -0.0767  0.0284  1.7299
14264TIP3    H264284   1.191   3.439   2.048  0.2064  0.3897 -0.1700
14265TIP3   OH264285   6.761   4.876  15.828 -0.6787  0.5138  0.3298
14265TIP3    H164286   6.687   4.839  15.875 -0.1053  0.0837  0.9154
14265TIP3    H264287   6.836   4.859  15.884  0.1503 -0.6269 -1.0367
14266TIP3   OH264288   6.821   4.750   1.120 -0.0161  0.0298  0.1857
14266TIP3    H164289   6.892   4.703   1.076 -0.6455 -0.4872 -0.2803
14266TIP3    H264290   6.821   4.715   1.209 -0.2711 -0.6326 -0.0678
14267TIP3   OH264291   4.716   6.763   3.606 -0.2770 -0.0243  0.5312
14267TIP3    H164292   4.678   6.702   3.542 -0.9094 -0.0279  0.8979
14267TIP3    H264293   4.800   6.724   3.629 -0.5083 -0.5649  0.4754
14268TIP3   OH264294   4.702   2.626  15.862 -0.4741 -0.3499 -0.1101
14268TIP3    H164295   4.771   2.622  15.795 -1.0177 -1.1647 -0.6360
14268TIP3    H264296   4.636   2.684  15.824 -1.0687 -1.3118 -0.5622
14269TIP3   OH264297   2.907   0.891  13.750  0.2613 -0.1282 -0.7405
14269TIP3    H164298   2.939   0.809  13.788 -1.6481 -0.3453  0.5522
14269TIP3    H264299   2.965   0.958  13.786  0.1303 -0.6385  0.5089
14270TIP3   OH264300   2.214   5.481   3.900  0.0494  0.2232  0.4585
14270TIP3    H164301   2.290   5.528   3.933  0.9142 -0.8326  0.0502
14270TIP3    H264302   2.193   5.417   3.968 -0.7203  0.7427  0.7306
14271TIP3   OH264303   0.851   5.951   2.465  0.0986  0.0490  0.0209
14271TIP3    H164304   0.761   5.948   2.433  0.0885 -0.5078  0.0806
14271TIP3    H264305   0.856   6.032   2.516  0.3744  1.4331 -2.0985
14272TIP3   OH264306   4.727   4.117  10.451  0.2918 -0.2076 -0.1147
14272TIP3    H164307   4.714   4.025  10.472 -2.2580 -0.0043 -0.5136
14272TIP3    H264308   4.684   4.164  10.522  0.8231  0.6599 -0.3532
14273TIP3   OH264309   4.428   0.543  11.491 -0.2262 -0.0144 -0.1255
14273TIP3    H164310   4.397   0.495  11.414 -1.9862  0.0830  0.4725
14273TIP3    H264311   4.360   0.528  11.557  1.0420  0.2442  1.2843
14274TIP3   OH264312   6.141   0.488  14.715  0.0222  0.2150 -0.0374
14274TIP3    H164313   6.153   0.513  14.806 -0.3408  0.0261  0.0622
14274TIP3    H264314   6.223   0.444  14.692  0.5032  1.1348 -0.1011
14275TIP3   OH264315   2.306   6.207  10.703 -0.0950 -0.3065 -0.0945
14275TIP3    H164316   2.321   6.247  10.617  0.3716  0.6585  0.4132
14275TIP3    H264317   2.300   6.113  10.686  1.8767 -0.3253 -0.9760
14276TIP3   OH264318   5.550   1.566  11.577 -0.0880 -0.4916  0.3451
14276TIP3    H164319   5.584   1.644  11.621 -0.0579 -0.2268 -0.1337
14276TIP3    H264320   5.509   1.600  11.497 -0.0153 -0.9732  0.0991
14277TIP3   OH264321   0.584   0.456   0.669  0.3301  0.1377 -0.6165
14277TIP3    H164322   0.489   0.447   0.678  0.1126  1.5446 -1.2320
14277TIP3    H264323   0.597   0.483   0.578  1.0295  2.8682  0.1959
14278TIP3   OH264324   0.558   4.140  15.806  0.1776  0.2057 -0.6703
14278TIP3    H164325   0.648   4.145  15.774  0.9655  0.6190  1.3978
14278TIP3    H264326   0.508   4.199  15.750  1.0735 -0.4393 -2.1846
14279TIP3   OH264327   0.868   3.620   5.325  0.6779  0.8784 -0.4734
14279TIP3    H164328   0.919   3.556   5.277 -1.0008 -0.4896 -0.5471
14279TIP3    H264329   0.827   3.569   5.395 -0.1739  2.0030 -0.1337
14280TIP3   OH264330   3.914   2.191  16.418  0.5256 -0.8661  0.5160
14280TIP3    H164331   3.822   2.169  16.433  0.0225  1.3474  1.0072
14280TIP3    H264332   3.932   2.159  16.330 -1.8766  1.8462 -1.1422
14281TIP3   OH264333   4.913   3.638   3.632 -0.5172 -0.0647 -0.1959
14281TIP3    H164334   4.828   3.661   3.594 -1.3009 -1.8329  0.3768
14281TIP3    H264335   4.894   3.624   3.725  0.9628  2.1731  0.5128
14282TIP3   OH264336   6.492   1.525   5.874 -0.1419  0.8095  0.0146
14282TIP3    H164337   6.452   1.444   5.907 -1.2492  1.8695  1.4045
14282TIP3    H264338   6.586   1.514   5.891 -0.1391 -0.5765 -0.7541
14283TIP3   OH264339   4.170   1.760  13.425 -0.3893  0.3718  0.3196
14283TIP3    H164340   4.131   1.725  13.345  0.3882  0.0318  0.0803
14283TIP3    H264341   4.125   1.714  13.496  0.6528 -1.1918  0.0084
14284TIP3   OH264342   2.043   5.578   4.865  0.0023  0.8163 -0.4535
14284TIP3    H164343   2.061   5.563   4.957  0.0003  1.4781 -0.3407
14284TIP3    H264344   2.013   5.493   4.832  1.3183  0.2226 -0.1803
14285TIP3   OH264345   5.499   6.403   0.994 -0.1403 -0.5130 -0.0795
14285TIP3    H164346   5.492   6.486   1.041 -1.1279  0.0295 -1.1320
14285TIP3    H264347   5.593   6.387   0.986  0.0590  0.5445  0.0720
14286TIP3   OH264348   3.642   6.528   2.732 -0.0258  0.0464 -0.8125
14286TIP3    H164349   3.658   6.619   2.756  1.0944 -0.6086  1.1034
14286TIP3    H264350   3.575   6.497   2.792 -0.7355 -0.2941 -1.7474
14287TIP3   OH264351   3.288   3.676   6.128 -0.4937 -0.1777 -0.0555
14287TIP3    H164352   3.253   3.670   6.039  0.2514 -1.6820 -0.2905
14287TIP3    H264353   3.248   3.602   6.174 -1.2633  0.8742  1.0334
14288TIP3   OH264354   3.487   5.529   1.892 -0.5206 -0.1613 -0.3586
14288TIP3    H164355   3.408   5.476   1.877 -0.5910  0.3544 -2.1613
14288TIP3    H264356   3.453   5.615   1.917 -0.3956 -1.0667  3.4025
14289TIP3   OH264357   5.255   4.483  16.036 -0.3328 -0.6855  0.5522
14289TIP3    H164358   5.295   4.402  16.002 -2.1618 -1.3138 -0.2220
14289TIP3    H264359   5.325   4.525  16.086  0.6646 -2.7952  1.0473
14290TIP3   OH264360   0.653   4.239  13.083 -0.2847  0.4080 -1.0034
14290TIP3    H164361   0.560   4.247  13.102 -0.1995  2.0469 -1.1810
14290TIP3    H264362   0.688   4.190  13.158 -1.3871 -0.9456 -1.3188
14291TIP3   OH264363   5.394   3.697   1.082 -0.1159 -0.0865  0.3868
14291TIP3    H164364   5.432   3.759   1.144  2.1033 -1.0030  0.0341
14291TIP3    H264365   5.450   3.619   1.089 -0.0045 -0.3515 -2.4503
14292TIP3   OH264366   5.646   4.464  14.375  0.3209  0.0854 -0.0860
14292TIP3    H164367   5.576   4.519  14.339 -0.1123  0.6326  1.5035
14292TIP3    H264368   5.609   4.428  14.456  2.1013  0.9804  1.2000
14293TIP3   OH264369   6.179   1.296  13.379  0.6107 -0.4274  0.2897
14293TIP3    H164370   6.090   1.262  13.390 -0.0415  1.3661  0.8969
14293TIP3    H264371   6.182   1.374  13.434  2.5402 -0.3852  0.1849
14294TIP3   OH264372   4.716   6.066   3.740 -0.5741 -0.0765  0.0864
14294TIP3    H164373   4.807   6.051   3.717 -0.5304  0.0120  0.2078
14294TIP3    H264374   4.691   6.143   3.689 -1.0890 -1.1286 -1.3324
14295TIP3   OH264375   0.085   0.750   1.125 -0.1693  0.6985 -0.3920
14295TIP3    H164376   0.178   0.772   1.126  0.2373 -0.9017  1.4328
14295TIP3    H264377   0.077   0.684   1.056  0.8895 -2.0766  1.9324
14296TIP3   OH264378   0.651   1.500   0.190  0.0805  0.1069  0.4326
14296TIP3    H164379   0.709   1.441   0.238 -0.6269 -0.3672  0.7210
14296TIP3    H264380   0.617   1.447   0.118  0.3432  0.5123  0.0064
14297TIP3   OH264381   0.690   3.141   4.146  0.2547  0.2030 -0.3552
14297TIP3    H164382   0.627   3.068   4.148 -0.7710  0.9930 -1.7693
14297TIP3    H264383   0.715   3.148   4.054  0.0826  1.8381 -0.2948
14298TIP3   OH264384   5.233   1.508  14.614 -0.2030 -0.1528 -0.1157
14298TIP3    H164385   5.281   1.508  14.532  0.7990 -1.0227  0.4415
14298TIP3    H264386   5.183   1.426  14.613 -0.8115  0.2082 -0.1927
14299TIP3   OH264387   3.400   4.621   0.312 -0.0271 -0.0309  0.0028
14299TIP3    H164388   3.401   4.531   0.346  0.5436  1.0547  3.2294
14299TIP3    H264389   3.334   4.665   0.365  2.0883  2.2307  0.9261
14300TIP3   OH264390   0.175   1.303  10.493 -0.1029  0.3135 -0.1159
14300TIP3    H164391   0.114   1.232  10.472 -0.9289  1.2379 -0.9235
14300TIP3    H264392   0.134   1.381  10.456  0.9259  1.1727  0.5210
14301TIP3   OH264393   5.468   0.492  12.771  0.6206  0.2361 -0.1558
14301TIP3    H164394   5.394   0.461  12.719  1.4668  0.0297 -1.2805
14301TIP3    H264395   5.445   0.470  12.861 -2.2001  3.1069  0.0309
14302TIP3   OH264396   5.778   0.775  13.815  0.5298  0.1164 -0.2684
14302TIP3    H164397   5.871   0.780  13.837  1.0829 -0.2877 -2.3199
14302TIP3    H264398   5.767   0.836  13.743 -0.8759  0.3733  0.1415
14303TIP3   OH264399   4.320   5.799   0.244 -0.1821 -0.0157 -0.6256
14303TIP3    H164400   4.386   5.848   0.196 -0.0426  0.4072 -0.0217
14303TIP3    H264401   4.368   5.734   0.294  0.1261  1.9561  1.8645
14304TIP3   OH264402   3.614   2.036  11.629  0.6784  0.1001 -0.3864
14304TIP3    H164403   3.593   2.100  11.561  0.3984 -1.7449 -2.1118
14304TIP3    H264404   3.682   1.982  11.591  1.7296  0.0191  1.4762
14305TIP3   OH264405   5.473   6.667   1.087 -0.2026 -0.0147 -0.3872
14305TIP3    H164406   5.474   6.706   1.175 -1.1542  1.2095 -0.8924
14305TIP3    H264407   5.512   6.734   1.031 -2.2718  0.4544 -1.3511
14306TIP3   OH264408   0.431   4.848   0.973 -1.0627  0.6700  0.4815
14306TIP3    H164409   0.351   4.894   0.947 -0.6294  0.9970 -0.3115
14306TIP3    H264410   0.439   4.865   1.067 -1.2164  1.7554  0.3159
14307TIP3   OH264411   4.913   3.675   2.569 -0.0932 -0.4378 -0.2782
14307TIP3    H164412   4.952   3.744   2.623  0.2368 -0.5421 -0.3811
14307TIP3    H264413   4.893   3.718   2.486  2.0937 -0.9328 -1.1453
14308TIP3   OH264414   5.913   2.055   0.025  0.5843  0.3403 -0.2869
14308TIP3    H164415   5.950   1.980   0.072 -1.2432 -0.6445 -0.3443
14308TIP3    H264416   5.919   2.128   0.088  1.3736 -0.1038  0.1673
14309TIP3   OH264417   2.542   0.189   0.953  0.1345 -0.0055  0.1005
14309TIP3    H164418   2.632   0.163   0.974  0.0399 -0.9682 -0.5990
14309TIP3    H264419   2.551   0.249   0.880  0.3209  1.6058  1.3857
14310TIP3   OH264420   4.783   1.388   1.669  0.0089 -0.2720 -0.3644
14310TIP3    H164421   4.766   1.307   1.718 -0.5150 -0.2461 -0.4950
14310TIP3    H264422   4.769   1.458   1.733  3.1189 -0.3069  0.5472
14311TIP3   OH264423   1.343   6.581  16.023  0.0345 -0.2968  0.4135
14311TIP3    H164424   1.307   6.555  15.938 -1.6720 -0.3866  1.1197
14311TIP3    H264425   1.365   6.498  16.066  3.1334 -0.2228 -0.7645
14312TIP3   OH264426   2.336   4.799  16.964  0.1740 -0.1962  0.5109
14312TIP3    H164427   2.422   4.840  16.981 -0.1659  1.3361 -1.1377
14312TIP3    H264428   2.275   4.873  16.960 -0.9764 -1.1356  0.2019
14313TIP3   OH264429   5.516   1.658   4.449  0.0680 -0.0991 -0.6964
14313TIP3    H164430   5.555   1.682   4.365 -0.3051 -0.0298 -0.8532
14313TIP3    H264431   5.530   1.563   4.456 -0.0446 -0.1319 -0.9126
14314TIP3   OH264432   0.393   1.542  14.234 -1.1834 -0.0687 -0.2310
14314TIP3    H164433   0.335   1.509  14.303 -1.4619 -1.6368 -1.1641
14314TIP3    H264434   0.443   1.465  14.206 -1.0118  0.5526 -1.7046
14315TIP3   OH264435   3.176   0.903  11.924  0.4135  0.3878 -0.4270
14315TIP3    H164436   3.182   0.821  11.876 -1.2352  0.2851 -0.5263
14315TIP3    H264437   3.257   0.949  11.904  1.7050 -1.5027  0.2198
14316TIP3   OH264438   1.819   0.366   5.087 -0.5080 -0.0900  0.3833
14316TIP3    H164439   1.801   0.319   5.168 -0.1299 -1.7302 -0.4516
14316TIP3    H264440   1.853   0.300   5.027 -3.0985  0.5049 -1.9607
14317TIP3   OH264441   2.820   1.784  11.985  0.6801 -0.1733  0.5530
14317TIP3    H164442   2.912   1.769  11.962  0.3532 -1.6522  0.1515
14317TIP3    H264443   2.776   1.703  11.963 -0.6578  0.3538  1.1919
14318TIP3   OH264444   0.196   3.713   5.177 -0.5927  0.7566 -0.4560
14318TIP3    H164445   0.232   3.772   5.244 -2.2471 -0.7613  1.9436
14318TIP3    H264446   0.268   3.655   5.155 -0.0783  1.1217  0.2223
14319TIP3   OH264447   4.771   3.198  13.859 -0.6284  0.4624 -0.1259
14319TIP3    H164448   4.782   3.291  13.838  0.4277  0.5948  0.9555
14319TIP3    H264449   4.698   3.196  13.921 -0.1342  0.6694  0.4726
14320TIP3   OH264450   4.224   5.910  16.104  1.1301 -0.1563  0.3284
14320TIP3    H164451   4.247   5.846  16.037  1.6335 -1.0382  1.3065
14320TIP3    H264452   4.228   5.994  16.060 -0.3482 -0.8466 -1.2080
14321TIP3   OH264453   0.661   6.447   5.907  0.3159 -0.1187 -0.3556
14321TIP3    H164454   0.718   6.452   5.984 -0.5758 -1.6479  0.4427
14321TIP3    H264455   0.653   6.538   5.878  3.7129  0.1110 -0.9548
14322TIP3   OH264456   0.356   4.942   2.469  0.1562  0.0473 -0.7663
14322TIP3    H164457   0.328   5.025   2.506 -2.3227 -1.0164 -0.0457
14322TIP3    H264458   0.286   4.881   2.490  1.2538 -1.9404 -2.4294
14323TIP3   OH264459   6.017   6.474  11.030 -0.1151  0.1697 -0.4131
14323TIP3    H164460   5.933   6.500  10.992  0.4664  0.0335 -1.8519
14323TIP3    H264461   6.006   6.382  11.055 -1.1645  0.8180  1.7574
14324TIP3   OH264462   4.395   5.902  13.053 -0.0834  0.6976 -0.4926
14324TIP3    H164463   4.319   5.950  13.085  0.5432  1.3202  0.0674
14324TIP3    H264464   4.358   5.820  13.018 -0.8718  0.4011  0.9743
14325TIP3   OH264465   3.440   1.204  15.967 -0.0021 -0.1899 -0.2280
14325TIP3    H164466   3.350   1.200  16.000  0.6021 -3.1171  1.4856
14325TIP3    H264467   3.487   1.257  16.031 -0.1604 -0.2824 -0.0333
14326TIP3   OH264468   5.582   2.150  16.476 -0.0515 -0.1048 -0.0122
14326TIP3    H164469   5.606   2.184  16.562  0.1640  0.4234 -0.2762
14326TIP3    H264470   5.566   2.056  16.491  0.9063 -0.2097  0.4190
14327TIP3   OH264471   0.276   5.395  13.478  0.0991 -0.0930  0.1802
14327TIP3    H164472   0.215   5.404  13.405 -0.7445  2.4634  1.0939
14327TIP3    H264473   0.347   5.340  13.443  0.2206  1.7625 -2.8983
14328TIP3   OH264474   4.337   0.190  11.547  0.2509  0.2223  0.3876
14328TIP3    H164475   4.274   0.260  11.563  1.6308  1.9256 -1.1831
14328TIP3    H264476   4.336   0.178  11.452  0.7899 -1.1936  0.5410
14329TIP3   OH264477   4.955   4.279  15.704 -0.3474 -0.2074 -0.5361
14329TIP3    H164478   4.973   4.277  15.610 -2.2139  1.6776 -1.0086
14329TIP3    H264479   4.862   4.303  15.711  0.1192  1.2852  1.8049
14330TIP3   OH264480   3.019   1.006  16.420 -0.3410  0.6680 -0.0501
14330TIP3    H164481   2.998   1.013  16.327 -1.6910 -2.1571 -0.0498
14330TIP3    H264482   2.946   1.049  16.464  0.2863  1.9874 -0.2420
14331TIP3   OH264483   1.135   1.102  13.702  0.1447 -0.1493 -0.6359
14331TIP3    H164484   1.081   1.029  13.672 -0.8547  0.3548 -0.1226
14331TIP3    H264485   1.145   1.158  13.625 -0.7582  0.1558 -0.5388
14332TIP3   OH264486   3.148   3.728   7.690  0.5296 -0.5280 -0.1349
14332TIP3    H164487   3.146   3.635   7.668  1.6363 -0.5624 -0.1253
14332TIP3    H264488   3.127   3.773   7.608 -1.1044 -0.7997  0.1108
14333TIP3   OH264489   1.595   1.039   1.267 -0.1643 -0.2141 -0.2531
14333TIP3    H164490   1.570   0.949   1.288  0.9381 -0.7259 -1.0659
14333TIP3    H264491   1.690   1.037   1.260 -0.2189  0.6605 -1.8301
14334TIP3   OH264492   6.554   2.413  13.274  0.2201  0.2765 -0.2526
14334TIP3    H164493   6.588   2.354  13.206 -1.0455 -0.9447  0.1222
14334TIP3    H264494   6.596   2.382  13.355 -0.2889  0.0218 -0.0853
14335TIP3   OH264495   0.339   2.120   2.040 -0.6344 -0.0189  0.8136
14335TIP3    H164496   0.297   2.199   2.074 -1.8871 -0.1231 -0.3844
14335TIP3    H264497   0.289   2.047   2.077  0.9249 -0.3229  2.4464
14336TIP3   OH264498   4.278   6.534   1.157  0.7462 -0.2750 -0.6330
14336TIP3    H164499   4.233   6.608   1.199  1.1168 -0.1588 -0.4415
14336TIP3    H264500   4.229   6.520   1.076  0.1420 -0.3720 -0.2662
14337TIP3   OH264501   5.970   3.555  11.639 -0.3567  0.0785  0.5693
14337TIP3    H164502   6.060   3.551  11.605 -0.3769 -0.2199  0.5484
14337TIP3    H264503   5.949   3.648  11.640 -0.7932  0.0617 -1.3969
14338TIP3   OH264504   0.087   2.176  14.549  0.3219 -0.6072  0.3562
14338TIP3    H164505   0.045   2.101  14.506  1.3400 -1.8371  1.4017
14338TIP3    H264506   0.166   2.139  14.589  2.4457  1.5914 -1.4944
14339TIP3   OH264507   5.021   6.371  14.689 -0.5089  0.2021  0.3610
14339TIP3    H164508   5.092   6.425  14.723 -2.1195  3.1422 -0.5909
14339TIP3    H264509   4.967   6.352  14.766 -0.1941  0.4198  0.6380
14340TIP3   OH264510   2.671   5.686   2.146  0.0898 -0.8163  0.1308
14340TIP3    H164511   2.656   5.749   2.075  2.5020 -0.1526  0.1273
14340TIP3    H264512   2.621   5.609   2.120 -1.6455  0.5073 -0.6667
14341TIP3   OH264513   1.225   5.770  16.415 -0.5059 -0.3459 -0.4740
14341TIP3    H164514   1.150   5.756  16.357 -0.0370  0.5936 -1.3136
14341TIP3    H264515   1.193   5.832  16.481 -0.5511 -0.1763 -0.6569
14342TIP3   OH264516   3.292   0.163  13.043 -0.6317  0.1459 -0.0458
14342TIP3    H164517   3.221   0.161  13.107 -3.1999  0.7725 -2.6923
14342TIP3    H264518   3.368   0.194  13.093 -2.2270 -0.2811  2.8486
14343TIP3   OH264519   2.619   1.026   2.619 -0.0370 -0.2503  0.0108
14343TIP3    H164520   2.627   1.089   2.546  4.1648  0.1715  0.5417
14343TIP3    H264521   2.545   1.057   2.670 -0.7029  1.7661 -2.0045
14344TIP3   OH264522   4.333   0.537  14.695 -0.1895 -0.7692 -0.1551
14344TIP3    H164523   4.289   0.604  14.748  2.9854  2.4692 -1.2040
14344TIP3    H264524   4.302   0.553  14.606  2.3917  1.1988 -0.8181
14345TIP3   OH264525   4.415   3.350   1.219 -0.0732 -0.6443  0.1868
14345TIP3    H164526   4.443   3.350   1.311 -0.8572  0.3086  0.4396
14345TIP3    H264527   4.427   3.259   1.191  0.8115 -0.8048  1.0263
14346TIP3   OH264528   4.393   6.277  14.970  0.2111  0.4561 -0.3749
14346TIP3    H164529   4.398   6.223  14.892  1.6214 -0.5259  0.3551
14346TIP3    H264530   4.320   6.240  15.020  1.6081 -1.3008  0.4546
14347TIP3   OH264531   1.317   6.799   2.369  0.6390  0.0082  0.1842
14347TIP3    H164532   1.409   6.789   2.348  0.3820 -0.8444 -0.6226
14347TIP3    H264533   1.274   6.809   2.284  0.0820  1.3485  0.5979
14348TIP3   OH264534   4.100   1.436  10.902  0.1731 -0.1713  0.0681
14348TIP3    H164535   4.138   1.356  10.865  2.5520  0.6293  0.6206
14348TIP3    H264536   4.057   1.479  10.828  1.4251 -0.5410 -0.9060
14349TIP3   OH264537   6.528   2.083  12.235  0.3225  0.4204  0.3478
14349TIP3    H164538   6.475   2.042  12.304  0.4263  0.8541  0.6934
14349TIP3    H264539   6.486   2.168  12.220  0.1377  0.2166 -0.3295
14350TIP3   OH264540   6.058   0.175   3.413  1.5346 -0.2244 -0.5801
14350TIP3    H164541   6.141   0.214   3.441  0.9662  0.0762  0.7510
14350TIP3    H264542   6.003   0.250   3.390  1.8466 -0.4495 -2.1807
14351TIP3   OH264543   1.015   3.084   3.317 -0.2356 -0.5531  0.5559
14351TIP3    H164544   1.036   3.121   3.232 -0.4166  1.3291  1.2673
14351TIP3    H264545   0.934   3.037   3.304  0.9395 -2.3110 -0.7913
14352TIP3   OH264546   3.654   6.172   3.935  0.0187  0.2830 -0.1776
14352TIP3    H164547   3.575   6.208   3.895  1.6825  4.3844 -0.2374
14352TIP3    H264548   3.726   6.222   3.897  2.5306 -1.8935  1.3355
14353TIP3   OH264549   0.793   1.687  16.756 -0.5845 -0.2211 -0.0644
14353TIP3    H164550   0.798   1.675  16.661 -2.6138 -2.0569 -0.0353
14353TIP3    H264551   0.703   1.717  16.771 -0.3545 -0.1672  1.3097
14354TIP3   OH264552   2.718   5.133   4.215 -0.0296  0.8681 -0.2523
14354TIP3    H164553   2.645   5.168   4.266  0.2295  0.6701  0.2628
14354TIP3    H264554   2.732   5.045   4.250 -0.1470  0.5535 -0.9791
14355TIP3   OH264555   0.865   1.988  11.550 -0.0458 -0.2724 -0.0434
14355TIP3    H164556   0.890   1.928  11.619 -0.4521  0.3158  0.6266
14355TIP3    H264557   0.888   1.943  11.469  1.9813 -0.2909  0.4970
14356TIP3   OH264558   3.336   4.257   3.199  0.4906  0.6384  0.2477
14356TIP3    H164559   3.334   4.169   3.237 -2.0094  0.4314 -0.1668
14356TIP3    H264560   3.322   4.243   3.105 -1.6951  1.4997  0.3889
14357TIP3   OH264561   0.691   4.020   2.273 -0.0194  0.0656  0.6219
14357TIP3    H164562   0.620   3.994   2.215  2.5572 -0.3590 -2.6156
14357TIP3    H264563   0.749   3.944   2.275  0.8874  0.7421  2.3805
14358TIP3   OH264564   0.368   3.950  10.611  0.0219  0.8802  0.0545
14358TIP3    H164565   0.379   3.861  10.577 -0.2536  0.9253 -0.1610
14358TIP3    H264566   0.438   3.961  10.675 -0.2617  0.3229  0.4660
14359TIP3   OH264567   5.192   0.367   1.004  0.2831 -0.3964  0.1350
14359TIP3    H164568   5.278   0.386   0.965 -0.9800 -0.3057 -2.9303
14359TIP3    H264569   5.149   0.453   1.010  0.1970 -0.5040  1.1426
14360TIP3   OH264570   6.134   0.044  16.521 -0.2776  0.0396  0.0805
14360TIP3    H164571   6.088   0.106  16.578 -1.5280 -1.6254  0.9828
14360TIP3    H264572   6.068  -0.022  16.500  1.0429 -1.0687 -0.7093
14361TIP3   OH264573   0.202   0.934   2.926  0.2126  0.3365 -0.0399
14361TIP3    H164574   0.233   0.987   2.853 -1.0987  0.8993 -0.1986
14361TIP3    H264575   0.173   0.997   2.992 -1.8089 -0.1368 -0.4177
14362TIP3   OH264576   0.316   5.046   2.758 -0.1290 -0.1442  0.1262
14362TIP3    H164577   0.410   5.055   2.771 -0.1353  1.2612 -0.6391
14362TIP3    H264578   0.304   4.955   2.733  1.0738 -0.2530 -0.1124
14363TIP3   OH264579   1.293   0.740  15.931 -0.0690 -0.8174  0.6493
14363TIP3    H164580   1.366   0.720  15.989  0.2187 -0.8925  0.2661
14363TIP3    H264581   1.299   0.675  15.861 -1.6370 -2.0462  1.5900
14364TIP3   OH264582   3.754   5.309   3.009  0.0589  0.3692  0.7668
14364TIP3    H164583   3.730   5.246   3.077  0.7334  1.1025  1.7076
14364TIP3    H264584   3.847   5.326   3.023  0.6631 -0.7301 -1.4074
14365TIP3   OH264585   5.270   2.354  14.590  0.1028 -0.5571 -0.3096
14365TIP3    H164586   5.199   2.293  14.567 -1.1434  0.9123 -0.5572
14365TIP3    H264587   5.226   2.423  14.640  2.0007 -1.4097  2.7862
14366TIP3   OH264588   2.925   2.706   1.455 -0.2947  0.2235 -0.2693
14366TIP3    H164589   2.885   2.636   1.506 -0.8347  0.9829  0.3736
14366TIP3    H264590   3.016   2.679   1.444 -0.1595  0.0519  1.1395
14367TIP3   OH264591   6.346   2.657   1.594  0.3757  0.0948  0.5880
14367TIP3    H164592   6.424   2.602   1.601 -0.2935 -0.8595  0.7214
14367TIP3    H264593   6.305   2.652   1.680 -0.2268 -0.0288  0.3017
14368TIP3   OH264594   2.244   1.198   1.213  0.3234  0.8582  0.1797
14368TIP3    H164595   2.155   1.207   1.180  0.3754  1.2894  0.1628
14368TIP3    H264596   2.232   1.176   1.306  0.1847 -0.0952 -0.0553
14369TIP3   OH264597   6.419   5.364  15.530 -0.2404 -0.4727  0.0653
14369TIP3    H164598   6.509   5.366  15.495  0.6619 -0.4048  2.2324
14369TIP3    H264599   6.407   5.450  15.571 -2.3951  0.6300 -2.5956
14370TIP3   OH264600   3.045   0.297   3.634 -0.5060 -0.1283  0.2046
14370TIP3    H164601   3.128   0.294   3.587 -0.2677 -0.8217  0.6689
14370TIP3    H264602   2.999   0.372   3.595  0.5685  0.6258  0.3425
14371TIP3   OH264603   3.911   0.719  16.799 -0.6504  0.2276  0.3489
14371TIP3    H164604   3.934   0.805  16.832  0.1847 -0.3771  1.3993
14371TIP3    H264605   3.891   0.733  16.706 -0.0941  1.4613  0.4015
14372TIP3   OH264606   6.382   6.313  12.920 -0.1624 -0.0682 -0.1791
14372TIP3    H164607   6.453   6.308  12.983 -0.6432  0.4819  0.4179
14372TIP3    H264608   6.406   6.387  12.863  0.4436 -0.7828 -0.8725
14373TIP3   OH264609   6.587   1.294  14.397  0.0596 -0.2178  0.3596
14373TIP3    H164610   6.664   1.342  14.368  1.1774  0.3662  3.8518
14373TIP3    H264611   6.619   1.205  14.412 -0.7308 -0.7620 -1.0211
14374TIP3   OH264612   3.459   0.650   5.289  0.5512 -0.0067 -0.0328
14374TIP3    H164613   3.458   0.675   5.381 -0.7765  0.0736 -0.0575
14374TIP3    H264614   3.529   0.703   5.251  1.8640 -0.8246  1.1240
14375TIP3   OH264615   5.863   3.813  11.015 -0.1328 -0.3026 -0.3427
14375TIP3    H164616   5.831   3.768  10.937 -0.2122  1.6401 -1.5201
14375TIP3    H264617   5.810   3.893  11.019 -0.0812 -0.3143  1.6974
14376TIP3   OH264618   0.712   5.275   5.850  0.1509 -0.0761  0.0647
14376TIP3    H164619   0.793   5.269   5.901  0.5284 -1.5351 -0.6470
14376TIP3    H264620   0.741   5.266   5.759 -0.7093  0.5370 -0.2808
14377TIP3   OH264621   3.113   4.286   1.585 -0.8375 -0.2288 -0.3260
14377TIP3    H164622   3.163   4.294   1.503  1.3141  1.4042  1.0441
14377TIP3    H264623   3.175   4.248   1.647 -2.4368 -1.4616  0.6076
14378TIP3   OH264624   3.522   5.337  13.475  0.4846  0.0285 -0.3645
14378TIP3    H164625   3.474   5.398  13.419  1.4389  1.0607 -0.0947
14378TIP3    H264626   3.488   5.355  13.563  0.5115 -0.0862 -0.3310
14379TIP3   OH264627   3.370   1.298  14.719  0.1594  0.1043 -0.5009
14379TIP3    H164628   3.448   1.243  14.722 -0.6373 -1.0910 -0.8542
14379TIP3    H264629   3.327   1.274  14.637 -2.1676 -1.5778  1.0679
14380TIP3   OH264630   0.271   2.645  14.455  0.6286  0.3446 -0.8237
14380TIP3    H164631   0.284   2.553  14.475 -0.9723 -0.5918 -3.5149
14380TIP3    H264632   0.179   2.662  14.476  0.7967  1.2209 -0.7295
14381TIP3   OH264633   1.143   2.746   4.572 -0.1169 -0.3243 -0.3334
14381TIP3    H164634   1.126   2.812   4.505 -1.1877  0.2545  0.4792
14381TIP3    H264635   1.168   2.668   4.522  1.8375  0.8354 -1.2979
14382TIP3   OH264636   0.921   0.566  15.109  0.0738  0.1879  0.6248
14382TIP3    H164637   0.904   0.617  15.188  0.3341  0.9269  0.2146
14382TIP3    H264638   1.015   0.550  15.110  0.1180  0.4178  0.3394
14383TIP3   OH264639   5.840   3.243   1.975 -0.0520 -0.1267  0.2020
14383TIP3    H164640   5.789   3.215   1.899 -0.1869  0.5987  0.0090
14383TIP3    H264641   5.774   3.265   2.041  0.0568 -0.4983  0.4354
14384TIP3   OH264642   3.859   2.533  13.624  0.1800  0.2686  0.3822
14384TIP3    H164643   3.918   2.463  13.595  1.3975  0.3958  2.3288
14384TIP3    H264644   3.853   2.592  13.549  1.6579 -0.3349 -0.2601
14385TIP3   OH264645   5.703   0.073  10.443 -0.0425 -0.1013  0.0567
14385TIP3    H164646   5.701   0.087  10.538  2.2842  0.7292  0.0466
14385TIP3    H264647   5.690   0.160  10.406  0.0305 -0.2716 -0.3709
14386TIP3   OH264648   2.852   4.257  16.134  0.4355 -0.0743  0.1820
14386TIP3    H164649   2.919   4.271  16.201 -0.5702 -0.1942  1.2422
14386TIP3    H264650   2.859   4.164  16.112  0.2681 -0.2109  0.6897
14387TIP3   OH264651   1.225   4.701  12.484  0.1761  0.1770 -0.5707
14387TIP3    H164652   1.242   4.645  12.409  0.6074  0.0808 -0.4019
14387TIP3    H264653   1.160   4.653  12.536 -1.1484  0.8417 -1.5486
14388TIP3   OH264654   1.412   6.468   3.578 -0.1760 -0.3209 -0.1206
14388TIP3    H164655   1.354   6.428   3.512  1.1553 -1.1963 -0.7967
14388TIP3    H264656   1.478   6.514   3.526  1.7132 -2.1831  0.5321
14389TIP3   OH264657   5.080   5.783   3.490 -0.2973  0.0578 -0.6011
14389TIP3    H164658   4.988   5.794   3.514  0.2980  2.1557  1.0735
14389TIP3    H264659   5.110   5.708   3.541 -0.7327  0.2628 -0.0427
14390TIP3   OH264660   0.145   5.610   4.584  0.1309  0.1934 -0.4675
14390TIP3    H164661   0.106   5.697   4.591 -0.7746  0.1637 -3.7424
14390TIP3    H264662   0.070   5.551   4.577  0.7583 -0.7006  0.1713
14391TIP3   OH264663   5.491   6.039  10.581  0.0754 -0.8835 -0.4593
14391TIP3    H164664   5.427   6.102  10.547  0.0036 -1.4789 -1.4809
14391TIP3    H264665   5.553   6.092  10.631 -1.1017 -0.2724  0.3795
14392TIP3   OH264666   4.684   1.761   1.387 -0.3524  0.0293 -0.3179
14392TIP3    H164667   4.656   1.753   1.296  1.0357  0.2571 -0.7804
14392TIP3    H264668   4.736   1.683   1.403  0.5022  0.6201 -0.1398
14393TIP3   OH264669   3.704   3.893   1.880  0.3031 -0.1296  0.1142
14393TIP3    H164670   3.741   3.818   1.835  0.2130 -0.4658  0.5953
14393TIP3    H264671   3.693   3.959   1.812 -1.1227 -1.0994 -0.6444
14394TIP3   OH264672   3.872   4.068  12.216 -0.1325 -0.7120  0.2198
14394TIP3    H164673   3.797   4.096  12.269  0.2488 -1.2730  1.0653
14394TIP3    H264674   3.841   3.991  12.168 -0.5842 -0.0057 -0.6592
14395TIP3   OH264675   4.730   1.047   4.926  0.5482 -0.5785 -0.2389
14395TIP3    H164676   4.639   1.039   4.953  0.1972 -0.6672 -1.3881
14395TIP3    H264677   4.775   1.081   5.003 -0.3347 -1.1128  0.5448
14396TIP3   OH264678   2.016   3.189  13.121  0.0545  0.1937 -1.0359
14396TIP3    H164679   2.111   3.178  13.125 -0.0586 -0.4831  1.2209
14396TIP3    H264680   1.987   3.126  13.056  0.8073 -2.9439  1.4215
14397TIP3   OH264681   4.161   2.240   6.392  0.6338  0.9366  0.7860
14397TIP3    H164682   4.205   2.203   6.315 -1.6335 -1.1475  0.4024
14397TIP3    H264683   4.158   2.334   6.374  0.8341  0.5940 -1.3153
14398TIP3   OH264684   0.885   0.275  11.242  0.2588  0.2440  0.4826
14398TIP3    H164685   0.943   0.268  11.318 -0.9750  1.2957  1.5726
14398TIP3    H264686   0.866   0.368  11.235 -1.3204 -0.0678  0.1954
14399TIP3   OH264687   1.637   2.592   5.389 -0.2957  0.5510 -0.0166
14399TIP3    H164688   1.730   2.581   5.410 -0.0384  0.3416 -1.2195
14399TIP3    H264689   1.618   2.522   5.327 -1.3961  0.2761  0.6036
14400TIP3   OH264690   6.502   1.104  13.859 -0.3301  0.4328  0.1600
14400TIP3    H164691   6.577   1.120  13.917 -0.5251  0.9925  0.2661
14400TIP3    H264692   6.435   1.165  13.890 -0.7178  0.1572 -0.1378
14401TIP3   OH264693   1.815   2.893  13.005 -0.0868 -0.0078 -0.2806
14401TIP3    H164694   1.874   2.819  13.015  0.5718  0.5263 -0.1753
14401TIP3    H264695   1.743   2.859  12.951 -0.1205 -0.9013  0.3121
14402TIP3   OH264696   4.412   0.047  16.847  0.0534  0.2088  0.6400
14402TIP3    H164697   4.317   0.038  16.839 -0.1183  1.4270  1.1944
14402TIP3    H264698   4.441  -0.039  16.878 -0.6815 -0.6241 -0.8726
14403TIP3   OH264699   1.941   3.869  11.820  0.3977  0.4977  0.5197
14403TIP3    H164700   1.943   3.895  11.728 -2.9094  0.7387  0.4073
14403TIP3    H264701   1.932   3.773  11.818  3.2384  0.1421  0.7481
14404TIP3   OH264702   1.608   0.649  16.584 -0.0173 -1.0380 -0.2239
14404TIP3    H164703   1.654   0.718  16.633 -1.5580 -0.8548  1.0474
14404TIP3    H264704   1.675   0.613  16.525  1.0923  0.8733 -0.2297
14405TIP3   OH264705   1.393   1.994  13.376  0.4050  0.0883 -0.2769
14405TIP3    H164706   1.360   2.083  13.368 -0.8288 -0.2703  0.5149
14405TIP3    H264707   1.432   1.990  13.463 -2.2208 -0.9244  0.9483
14406TIP3   OH264708   5.957   1.303  11.204  0.5331 -0.0857  0.2151
14406TIP3    H164709   5.952   1.223  11.258 -0.4507 -0.2061 -0.0331
14406TIP3    H264710   5.925   1.275  11.118  0.4957  0.5019  0.0375
14407TIP3   OH264711   6.021   4.119   1.820  0.4333  0.5709 -0.5427
14407TIP3    H164712   6.087   4.132   1.752  1.5227  2.4874  0.7713
14407TIP3    H264713   5.970   4.200   1.820 -0.4384  0.0437  0.0101
14408TIP3   OH264714   5.652   6.352   2.315  0.6534 -0.1840 -0.1885
14408TIP3    H164715   5.568   6.352   2.359  0.2129  2.5445 -0.8658
14408TIP3    H264716   5.635   6.310   2.230 -0.0825  0.4976 -0.3843
14409TIP3   OH264717   5.476   2.809  13.499 -0.4139 -0.3953  0.1406
14409TIP3    H164718   5.453   2.858  13.578  0.6834  0.0281  0.2129
14409TIP3    H264719   5.549   2.752  13.526  1.3004  1.1424 -0.9875
14410TIP3   OH264720   6.535   2.799  12.551  0.3906 -0.1722  0.1981
14410TIP3    H164721   6.550   2.709  12.523  0.7639 -1.0798  2.9613
14410TIP3    H264722   6.612   2.820  12.604 -1.3193  0.3873  2.6243
14411TIP3   OH264723   4.980   4.013  12.055 -0.6893 -0.0096  0.3267
14411TIP3    H164724   4.906   4.073  12.044 -0.9165 -0.5228 -1.2777
14411TIP3    H264725   5.055   4.062  12.020  0.0127  0.9346  2.9470
14412TIP3   OH264726   1.539   0.120   3.601 -0.3999  0.2787 -0.1482
14412TIP3    H164727   1.508   0.207   3.576 -1.8224 -0.3522 -0.6835
14412TIP3    H264728   1.542   0.121   3.696 -2.6796  0.2199 -0.0130
14413TIP3   OH264729   6.284   3.960   4.129  0.0476  0.4311 -0.3941
14413TIP3    H164730   6.303   3.968   4.035 -0.7362  0.7010 -0.5343
14413TIP3    H264731   6.272   3.866   4.143  0.7584  0.3294 -0.4425
14414TIP3   OH264732   0.028   6.361  13.258 -0.6252  0.2418 -0.2225
14414TIP3    H164733   0.000   6.270  13.250 -2.1437  0.8123 -2.2429
14414TIP3    H264734  -0.019   6.393  13.336 -3.3856  0.3314 -1.8049
14415TIP3   OH264735   1.406   1.310  14.526  0.2112  0.2146 -0.4414
14415TIP3    H164736   1.453   1.381  14.571 -0.3238  1.0369 -1.1572
14415TIP3    H264737   1.429   1.231  14.576  0.9353  0.8617  0.2805
14416TIP3   OH264738   3.533   0.573  14.385 -0.5788 -0.3977 -1.1848
14416TIP3    H164739   3.470   0.501  14.380 -0.8420 -0.2322 -0.3502
14416TIP3    H264740   3.568   0.569  14.474  1.3978 -1.1480 -1.9458
14417TIP3   OH264741   0.930   5.075   0.092 -0.6069 -0.9344 -0.0470
14417TIP3    H164742   0.868   5.085   0.019  0.9145  1.0107 -1.1603
14417TIP3    H264743   0.889   5.123   0.164 -1.5954 -1.9018  0.0611
14418TIP3   OH264744   2.883   1.676   4.507  0.0358 -0.5905 -0.2383
14418TIP3    H164745   2.828   1.735   4.456 -0.3666 -1.2417 -0.5725
14418TIP3    H264746   2.950   1.646   4.445  0.1790 -0.5607 -0.0978
14419TIP3   OH264747   5.539   1.524   2.879  0.3757 -0.3494 -0.4249
14419TIP3    H164748   5.490   1.486   2.952  0.2765 -0.7748 -0.7072
14419TIP3    H264749   5.558   1.449   2.822 -1.4357  0.2959 -1.9514
14420TIP3   OH264750   2.952   6.702   2.858  0.5669 -0.5707 -0.2433
14420TIP3    H164751   3.047   6.705   2.871  0.4486 -0.4267  0.6548
14420TIP3    H264752   2.921   6.640   2.925  0.0160 -0.5091 -0.4422
14421TIP3   OH264753   3.086   0.375   1.118 -0.2046  0.0490  0.1267
14421TIP3    H164754   3.107   0.395   1.027 -0.3831 -0.5148 -0.0460
14421TIP3    H264755   3.125   0.288   1.132  0.0950  0.2695  0.6817
14422TIP3   OH264756   3.631   3.123   5.894  0.7867  0.6910  0.6728
14422TIP3    H164757   3.596   3.211   5.906  0.0180  0.7314 -1.4581
14422TIP3    H264758   3.563   3.077   5.845  1.5338 -0.8494  1.0159
14423TIP3   OH264759   0.986   2.625  14.456 -1.1288 -0.0139  0.6840
14423TIP3    H164760   0.962   2.710  14.493 -0.8411  0.2922  0.1818
14423TIP3    H264761   0.905   2.574  14.460 -1.1425  0.0644  1.5679
14424TIP3   OH264762   0.025   6.664  15.311  0.1621  0.0885  0.4463
14424TIP3    H164763  -0.052   6.671  15.367  0.4065  0.4719  0.7395
14424TIP3    H264764  -0.004   6.612  15.236 -1.0048  2.0486 -0.5262
14425TIP3   OH264765   3.256   6.254   4.560  0.3711 -0.6015  0.7957
14425TIP3    H164766   3.325   6.219   4.616 -0.6445 -0.3163  2.3034
14425TIP3    H264767   3.212   6.177   4.525 -0.9315 -0.8869  2.9229
14426TIP3   OH264768   0.936   5.939   4.454 -0.3732  0.0265  0.1691
14426TIP3    H164769   0.897   5.952   4.368  1.9737  1.5255 -0.7626
14426TIP3    H264770   0.949   5.844   4.460  1.5056  0.0533 -2.1764
14427TIP3   OH264771   3.076   6.485  13.516  0.2381 -0.0999 -0.1253
14427TIP3    H164772   3.046   6.401  13.483 -0.7432 -0.8169  2.3448
14427TIP3    H264773   3.053   6.484  13.609  1.3813  2.3747  0.2754
14428TIP3   OH264774   1.172   5.417  13.003  1.1586  0.1921 -0.2593
14428TIP3    H164775   1.246   5.376  13.048 -0.0902 -1.1414  0.6722
14428TIP3    H264776   1.165   5.370  12.920  1.8358  0.8806 -0.7243
14429TIP3   OH264777   5.326   1.136  16.958 -0.3945 -1.0916  0.0118
14429TIP3    H164778   5.380   1.199  17.005 -0.6537 -1.5730  0.9823
14429TIP3    H264779   5.326   1.058  17.013 -0.7677 -1.6522 -0.7611
14430TIP3   OH264780   4.112   0.957   4.234 -0.5155 -0.3243  0.2285
14430TIP3    H164781   4.059   1.020   4.185  2.1838  0.5261 -1.8242
14430TIP3    H264782   4.048   0.897   4.272 -3.0136  1.6426 -0.5801
14431TIP3   OH264783   0.677   1.310   5.463 -0.4320 -0.0786 -0.2777
14431TIP3    H164784   0.713   1.257   5.534 -2.6105  1.3005  2.0133
14431TIP3    H264785   0.655   1.247   5.394  1.1988 -1.5220  0.4556
14432TIP3   OH264786   2.900   4.704  12.211  0.1875  0.5713 -0.3267
14432TIP3    H164787   2.950   4.776  12.249 -0.7751  1.1233 -0.0642
14432TIP3    H264788   2.823   4.696  12.268  1.7284 -2.7232  1.5477
14433TIP3   OH264789   0.525   5.086   5.707 -0.4527  0.1314  0.0761
14433TIP3    H164790   0.569   5.155   5.756  1.3047 -0.4615 -0.5881
14433TIP3    H264791   0.512   5.016   5.772  0.5764 -0.0982  0.0574
14434TIP3   OH264792   4.188   3.354   1.835  0.4776 -0.2846 -0.3668
14434TIP3    H164793   4.188   3.440   1.792 -1.4646 -1.1973 -2.3812
14434TIP3    H264794   4.155   3.372   1.923 -1.7638  0.8651 -1.3388
14435TIP3   OH264795   3.896   4.466   4.545  0.4007 -0.3928  0.3225
14435TIP3    H164796   3.806   4.432   4.544 -0.1812  1.0728 -1.0843
14435TIP3    H264797   3.944   4.409   4.486 -0.0759 -0.0183 -0.4344
14436TIP3   OH264798   1.208   4.141  13.333 -0.4683 -0.7868 -0.6706
14436TIP3    H164799   1.211   4.046  13.324  3.1180 -1.0269  1.3715
14436TIP3    H264800   1.147   4.157  13.405 -0.8874 -1.5237 -0.8550
14437TIP3   OH264801   5.015   4.748   3.054 -0.2595  0.1183  0.0844
14437TIP3    H164802   5.101   4.776   3.086  0.0550  1.2930 -1.6497
14437TIP3    H264803   4.952   4.803   3.100 -0.0661 -0.3971  0.9853
14438TIP3   OH264804   5.594   1.819   5.283 -0.0132  0.2804 -0.2878
14438TIP3    H164805   5.613   1.851   5.372  2.8063  0.2267 -0.7795
14438TIP3    H264806   5.572   1.898   5.233  0.1289  0.5435  0.0595
14439TIP3   OH264807   4.403   4.809   3.230  0.4261 -0.2524 -0.1505
14439TIP3    H164808   4.309   4.810   3.250  0.6135 -0.0087  0.7515
14439TIP3    H264809   4.412   4.868   3.155  0.0070  0.6742  0.5088
14440TIP3   OH264810   0.556   3.281   1.218  0.0736  0.2048 -0.0981
14440TIP3    H164811   0.601   3.345   1.274 -0.5864 -1.8106  3.0025
14440TIP3    H264812   0.545   3.204   1.274 -3.1129 -1.0528 -2.1696
14441TIP3   OH264813   1.733   3.558   4.629 -0.1308  0.6219 -0.0195
14441TIP3    H164814   1.817   3.599   4.648  0.7140 -1.2446  0.4810
14441TIP3    H264815   1.715   3.583   4.538  0.8134  1.2862 -0.0407
14442TIP3   OH264816   3.126   3.689  11.450  0.4946 -0.0293 -0.0578
14442TIP3    H164817   3.081   3.767  11.480  1.3050 -0.1903  1.6777
14442TIP3    H264818   3.157   3.711  11.362 -0.8792  0.9110 -0.3342
14443TIP3   OH264819   2.703   4.221   3.110  0.2494  0.3870  0.6423
14443TIP3    H164820   2.738   4.139   3.077 -0.7553  0.4616 -0.6626
14443TIP3    H264821   2.624   4.197   3.158 -1.3001  0.7105 -1.5830
14444TIP3   OH264822   3.728   3.882  14.709  0.7487  0.2467  0.1171
14444TIP3    H164823   3.780   3.955  14.675 -0.0774 -0.2316 -2.4017
14444TIP3    H264824   3.650   3.923  14.747  1.7055  0.8093  1.5229
14445TIP3   OH264825   6.440   1.559   1.875 -0.4328  0.3971 -0.2500
14445TIP3    H164826   6.494   1.631   1.842  1.4930 -0.1828  1.3956
14445TIP3    H264827   6.376   1.601   1.932 -2.6646  1.2227 -3.1613
14446TIP3   OH264828   5.611   1.381   4.345 -0.5390 -0.4273 -0.1397
14446TIP3    H164829   5.673   1.314   4.374  0.9927  0.3574 -1.4399
14446TIP3    H264830   5.550   1.335   4.288  0.1678 -0.8383 -0.5751
14447TIP3   OH264831   0.373   1.833  11.315 -0.3812  0.2239 -0.1636
14447TIP3    H164832   0.340   1.812  11.403 -0.2502 -0.4283 -0.2647
14447TIP3    H264833   0.458   1.873  11.330  0.1201 -0.8414 -0.0221
14448TIP3   OH264834   1.207   0.980   1.462  0.1360 -0.2887  0.0018
14448TIP3    H164835   1.244   1.055   1.416 -0.1841 -1.2554 -1.9386
14448TIP3    H264836   1.271   0.960   1.531  1.1169  0.6563 -0.6007
14449TIP3   OH264837   0.722   5.532  12.448 -0.4845 -0.1304 -0.2154
14449TIP3    H164838   0.691   5.606  12.501 -2.2912 -2.1166  1.6774
14449TIP3    H264839   0.658   5.463  12.463  2.8325 -3.2877  0.9281
14450TIP3   OH264840   0.168   3.529   4.737 -0.0464  0.1409 -0.2000
14450TIP3    H164841   0.212   3.506   4.655 -1.5160 -3.1518 -0.2319
14450TIP3    H264842   0.074   3.527   4.715 -0.4584 -0.6830  1.4889
14451TIP3   OH264843   3.977   0.948  14.048 -0.0231 -0.3156 -0.0134
14451TIP3    H164844   3.957   0.890  13.975  1.3026 -0.4216 -0.3053
14451TIP3    H264845   3.914   0.922  14.116  0.2467 -1.8202 -0.2892
14452TIP3   OH264846   1.469   4.095   3.659  0.5957 -0.0221 -0.2139
14452TIP3    H164847   1.490   4.034   3.589 -0.2369 -0.7133  0.1269
14452TIP3    H264848   1.407   4.048   3.714 -0.1114  1.1592  0.0250
14453TIP3   OH264849   1.914   2.639  11.306 -0.2313 -0.1538  0.4941
14453TIP3    H164850   1.862   2.565  11.339 -0.0877 -1.3317 -1.7141
14453TIP3    H264851   1.941   2.611  11.218  0.8871  2.0410  0.0880
14454TIP3   OH264852   1.675   2.301   0.467 -0.1777 -0.2094  0.3931
14454TIP3    H164853   1.651   2.309   0.375 -1.3145  1.0906  0.7607
14454TIP3    H264854   1.752   2.357   0.477 -0.3662  0.0668  0.3246
14455TIP3   OH264855   2.501   3.093   2.460 -0.2391 -0.6962 -1.0376
14455TIP3    H164856   2.550   3.017   2.490 -1.0531 -0.8839 -0.1349
14455TIP3    H264857   2.479   3.141   2.540 -0.1812  0.2194 -1.5516
14456TIP3   OH264858   1.438   5.845   2.644  0.8234  0.2927 -0.2154
14456TIP3    H164859   1.373   5.913   2.627  0.5689  0.2186  0.4327
14456TIP3    H264860   1.522   5.888   2.625  0.8368  1.4994  2.1918
14457TIP3   OH264861   0.537   2.608  16.070 -0.5100  0.2679  0.3072
14457TIP3    H164862   0.572   2.520  16.055 -0.4100  0.2201  0.8248
14457TIP3    H264863   0.610   2.657  16.106 -0.5313  0.6025 -0.0959
14458TIP3   OH264864   4.868   6.642  12.969  0.6811 -0.1375 -0.6000
14458TIP3    H164865   4.918   6.602  13.040  0.9507  1.5733  0.2270
14458TIP3    H264866   4.780   6.606  12.978  0.2892  1.1661  1.6225
14459TIP3   OH264867   3.020   6.330   5.166  0.0744  0.0820  0.4835
14459TIP3    H164868   3.060   6.307   5.250  1.2055 -1.3775 -0.4088
14459TIP3    H264869   3.081   6.297   5.100 -1.1909  0.4409 -0.9309
14460TIP3   OH264870   0.326   6.380  16.473 -0.6087 -0.7517 -0.4184
14460TIP3    H164871   0.331   6.468  16.511 -1.9997 -1.1769  0.8765
14460TIP3    H264872   0.417   6.355  16.457 -0.0273 -0.0184  1.4684
14461TIP3   OH264873   6.428   0.973   2.604 -0.4151 -0.2462  0.2050
14461TIP3    H164874   6.426   0.921   2.524  0.7446  2.9991 -2.1410
14461TIP3    H264875   6.511   1.019   2.601  0.2171 -0.8370  3.9853
14462TIP3   OH264876   0.596   1.264   3.056 -0.3605 -0.5621  0.1110
14462TIP3    H164877   0.517   1.303   3.019 -0.0211  1.5904  1.5416
14462TIP3    H264878   0.565   1.187   3.103 -1.6042  0.2454  0.6303
14463TIP3   OH264879   0.154   1.563   1.527  0.1451  0.1669 -0.3093
14463TIP3    H164880   0.222   1.613   1.482  0.2282  1.3228  1.0278
14463TIP3    H264881   0.186   1.473   1.526  1.2440  0.5430 -0.5234
14464TIP3   OH264882   3.200   4.746   0.961 -0.3177  0.1335 -0.6521
14464TIP3    H164883   3.108   4.755   0.939 -0.6890  0.5208  0.9341
14464TIP3    H264884   3.246   4.808   0.904 -1.1843  0.9160 -0.5074
14465TIP3   OH264885   4.125   3.474   4.836 -0.6016 -0.5948 -0.1826
14465TIP3    H164886   4.075   3.414   4.781  2.1121 -3.0149 -0.2831
14465TIP3    H264887   4.164   3.536   4.775 -2.1118  0.3388 -0.2591
14466TIP3   OH264888   4.890   3.578  15.356  0.4319  0.3521 -0.0457
14466TIP3    H164889   4.962   3.586  15.293 -0.4829  2.4897 -0.8891
14466TIP3    H264890   4.830   3.516  15.316  0.8794  0.0356 -0.2372
14467TIP3   OH264891   4.090   6.403   4.197 -0.1125  0.0686 -0.2827
14467TIP3    H164892   4.087   6.487   4.243 -2.1938  0.4783 -1.0501
14467TIP3    H264893   4.001   6.368   4.207  0.6111 -1.8912 -0.2874
14468TIP3   OH264894   5.534   0.048  12.274 -0.1400 -0.2205 -0.1426
14468TIP3    H164895   5.478  -0.030  12.270 -2.6011  1.4605 -0.8904
14468TIP3    H264896   5.560   0.063  12.183 -1.3234  0.8930 -0.3228
14469TIP3   OH264897   5.282   2.189   6.291  0.5801 -0.3323 -0.0429
14469TIP3    H164898   5.307   2.098   6.309 -0.5484 -0.5285  0.5736
14469TIP3    H264899   5.298   2.235   6.373  0.8734 -0.0297 -0.2682
14470TIP3   OH264900   1.369   4.080  16.505  0.4008 -0.0780 -0.6196
14470TIP3    H164901   1.441   4.023  16.532 -0.6933 -1.0464  0.3641
14470TIP3    H264902   1.411   4.162  16.480  1.9189 -0.9447 -1.0082
14471TIP3   OH264903   5.344   3.503   6.274  0.5419  0.2976  0.3276
14471TIP3    H164904   5.410   3.567   6.249 -0.6827  1.2237 -0.6309
14471TIP3    H264905   5.263   3.537   6.238 -0.3702 -1.1169  0.9770
14472TIP3   OH264906   3.912   3.213  16.071 -0.1570  0.5377  0.1648
14472TIP3    H164907   3.818   3.228  16.080  0.1920  3.1350  0.3240
14472TIP3    H264908   3.948   3.231  16.157  0.3492 -2.3512  0.6248
14473TIP3   OH264909   1.539   1.774   3.154 -0.2592  0.3351 -0.2256
14473TIP3    H164910   1.449   1.766   3.184  0.1081  1.6844  1.3439
14473TIP3    H264911   1.531   1.791   3.060 -1.4738 -2.7849 -0.7893
14474TIP3   OH264912   3.579   5.384  11.522 -0.0238  0.0010  0.0559
14474TIP3    H164913   3.580   5.380  11.618 -0.5833  2.0797  0.2066
14474TIP3    H264914   3.487   5.381  11.499  0.0502  0.6401 -0.3383
14475TIP3   OH264915   4.832   1.088   3.384  0.1113 -0.3468  0.1344
14475TIP3    H164916   4.797   1.079   3.295 -0.2509  0.4901  0.1816
14475TIP3    H264917   4.755   1.076   3.441  0.1679  0.0733  0.2983
14476TIP3   OH264918   5.927   4.514  16.120  0.1135 -0.4600 -0.3582
14476TIP3    H164919   5.944   4.534  16.028 -1.4612  1.4701 -0.2998
14476TIP3    H264920   5.973   4.582  16.169  0.4815 -1.1426  0.2642
14477TIP3   OH264921   6.189   1.637  15.537 -0.4184 -0.3442  0.6718
14477TIP3    H164922   6.145   1.662  15.455  2.4980  0.6720 -0.7047
14477TIP3    H264923   6.186   1.541  15.536 -0.5088 -0.3573 -0.5965
14478TIP3   OH264924   2.776   1.399   4.471  0.4768 -0.1007  0.5737
14478TIP3    H164925   2.764   1.441   4.556 -1.5657 -0.0181  0.3110
14478TIP3    H264926   2.824   1.319   4.490 -2.8978 -1.9251  2.4868
14479TIP3   OH264927   0.193   5.331  15.400 -0.0674  0.2550  0.5228
14479TIP3    H164928   0.155   5.251  15.363  0.3420  1.1378 -1.9556
14479TIP3    H264929   0.285   5.327  15.375  0.2622  0.8845  1.5730
14480TIP3   OH264930   0.919   5.624  14.486  0.0636  0.0742 -0.5385
14480TIP3    H164931   0.940   5.555  14.549  0.5446 -0.7301 -1.5367
14480TIP3    H264932   0.988   5.690  14.499  1.0436 -0.7911 -1.2230
14481TIP3   OH264933   0.742   4.746   5.935  0.1941 -0.3742  0.2566
14481TIP3    H164934   0.724   4.830   5.978 -0.1457  0.6967 -1.8291
14481TIP3    H264935   0.810   4.766   5.871  0.1288 -1.7085 -0.2575
14482TIP3   OH264936   4.914   6.598  12.533  0.3024  0.2797  0.8543
14482TIP3    H164937   4.890   6.656  12.461  1.0342  0.1842  0.5273
14482TIP3    H264938   4.877   6.513  12.509 -0.3530  0.4934  1.0990
14483TIP3   OH264939   2.555   2.110  15.578 -0.1249 -0.5430 -0.2661
14483TIP3    H164940   2.546   2.204  15.592 -1.8299 -0.8259  0.7799
14483TIP3    H264941   2.580   2.102  15.486 -0.8073  0.8829 -0.5993
14484TIP3   OH264942   4.135   6.118   3.307 -0.1717  0.5866 -0.0332
14484TIP3    H164943   4.096   6.031   3.309 -2.3846  1.4581 -0.9747
14484TIP3    H264944   4.215   6.108   3.255  0.2053 -1.0549  0.8053
14485TIP3   OH264945   6.014   1.160  12.750  0.2280  0.1288  0.0478
14485TIP3    H164946   6.096   1.199  12.778 -0.0395  0.2272  0.7143
14485TIP3    H264947   6.000   1.193  12.661  1.1475 -0.2768 -0.2527
14486TIP3   OH264948   1.872   3.641  14.001 -0.1589  0.5270  0.1915
14486TIP3    H164949   1.858   3.561  14.052 -0.2047 -1.7583 -3.0483
14486TIP3    H264950   1.967   3.655  14.005 -0.4145  2.1287  3.0832
14487TIP3   OH264951   0.897   6.152  16.456 -0.5640 -0.3352 -0.3426
14487TIP3    H164952   0.918   6.164  16.549  0.9868 -1.4180 -0.5152
14487TIP3    H264953   0.853   6.233  16.431 -1.4642 -0.2313  1.4492
14488TIP3   OH264954   2.011   2.090   0.439  0.4511 -0.2880 -0.1979
14488TIP3    H164955   2.063   2.146   0.497 -2.0397  0.4842  1.4884
14488TIP3    H264956   1.977   2.022   0.497 -1.8083  0.2786 -0.7471
14489TIP3   OH264957   1.740   4.977   3.580 -0.2892 -0.5153  0.3010
14489TIP3    H164958   1.731   4.900   3.524 -0.6867  0.4047 -0.9214
14489TIP3    H264959   1.790   4.945   3.655 -0.3640 -1.9438 -0.2206
14490TIP3   OH264960   1.852   4.126   3.775 -0.3869  0.7384  0.0390
14490TIP3    H164961   1.776   4.167   3.817 -0.9102  0.4590 -0.6289
14490TIP3    H264962   1.816   4.078   3.701  0.5155  1.2089 -0.7330
14491TIP3   OH264963   0.164   2.656   2.589 -0.0527 -0.2889 -0.3224
14491TIP3    H164964   0.197   2.670   2.677 -1.5540 -0.6126  0.3156
14491TIP3    H264965   0.220   2.589   2.552 -0.4252 -1.3631  0.9917
14492TIP3   OH264966   5.391   3.481   5.630 -0.2404 -0.7824  0.1242
14492TIP3    H164967   5.450   3.465   5.704 -0.4270 -1.9842  0.0432
14492TIP3    H264968   5.449   3.484   5.554 -0.2672 -2.0232  0.0373
14493TIP3   OH264969   3.639   2.320  15.203 -0.4867 -0.5569  0.0023
14493TIP3    H164970   3.594   2.327  15.120 -1.1400 -0.4361  0.3618
14493TIP3    H264971   3.590   2.377  15.263 -0.4873 -1.2242  0.6582
14494TIP3   OH264972   4.080   4.318  13.783 -0.0729 -0.6818 -0.5995
14494TIP3    H164973   4.121   4.302  13.698  0.0960 -0.4352 -0.5644
14494TIP3    H264974   3.996   4.359  13.761  0.4290  0.3587 -0.6133
14495TIP3   OH264975   5.811   2.460   0.308 -0.6900 -0.1897  0.0628
14495TIP3    H164976   5.889   2.404   0.313 -0.1447  0.5754  0.3286
14495TIP3    H264977   5.772   2.441   0.223 -0.2317 -0.6002 -0.0567
14496TIP3   OH264978   3.018   0.469   3.054 -0.5601  0.3362  0.3197
14496TIP3    H164979   2.986   0.465   2.964 -2.3462  1.1350  0.8606
14496TIP3    H264980   3.024   0.563   3.073 -2.3999  0.2434  1.6917
14497TIP3   OH264981   6.596   2.574  11.775 -0.4988 -0.7198 -0.2917
14497TIP3    H164982   6.567   2.484  11.756  0.0480 -0.3744 -3.4245
14497TIP3    H264983   6.690   2.567  11.787 -0.3304 -0.5162 -1.3683
14498TIP3   OH264984   2.130   5.322  11.434 -0.0730  0.0306 -0.0709
14498TIP3    H164985   2.203   5.349  11.378  0.1610  1.6180  0.9511
14498TIP3    H264986   2.054   5.369  11.398 -0.1907 -0.0134  0.1216
14499TIP3   OH264987   4.539   6.186   0.738 -0.3798 -0.5489  0.2364
14499TIP3    H164988   4.462   6.236   0.765 -2.1448 -2.7514 -0.3142
14499TIP3    H264989   4.548   6.117   0.804 -0.4780 -1.8175 -1.0103
14500TIP3   OH264990   5.703   4.952  14.520  0.2604  0.4309 -0.2078
14500TIP3    H164991   5.759   4.994  14.456  0.9476 -0.0762  0.0430
14500TIP3    H264992   5.614   4.973  14.493  0.5692  1.1461 -0.6815
14501TIP3   OH264993   2.559   5.985   2.617  0.2228 -0.0924  0.0641
14501TIP3    H164994   2.624   5.938   2.669  0.2467  1.0095  1.0820
14501TIP3    H264995   2.504   5.917   2.579  1.1817 -0.9882  0.2467
14502TIP3   OH264996   3.644   0.090  13.925 -0.5345  0.3072  0.2239
14502TIP3    H164997   3.631   0.087  13.830  0.0717 -0.0115  0.1534
14502TIP3    H264998   3.739   0.090  13.937 -0.5988  0.9267  0.8136
14503TIP3   OH264999   0.457   2.270  16.425  0.0331  0.5273  0.5220
14503TIP3    H165000   0.382   2.263  16.484 -1.3410  0.8513 -1.0911
14503TIP3    H265001   0.521   2.323  16.473 -0.0584 -1.0921  2.5729
14504TIP3   OH265002   6.496   3.198  11.922 -0.6207  0.4913 -0.2818
14504TIP3    H165003   6.482   3.150  11.841 -2.0943  0.6858 -0.1637
14504TIP3    H265004   6.431   3.162  11.983  1.2521 -0.5386  1.2400
14505TIP3   OH265005   0.599   1.750  14.271  0.4931  0.3332 -0.0377
14505TIP3    H165006   0.535   1.679  14.270  0.4434  0.3824 -0.5109
14505TIP3    H265007   0.556   1.821  14.318  0.8566 -0.2327  1.1880
14506TIP3   OH265008   3.108   4.760   3.885  0.6064 -0.4892  0.0865
14506TIP3    H165009   3.178   4.697   3.867 -0.7745 -2.0362 -0.1579
14506TIP3    H265010   3.051   4.754   3.808 -0.1985  0.1628  0.6181
14507TIP3   OH265011   6.494   2.489  12.057  0.3342 -0.1482 -0.3366
14507TIP3    H165012   6.404   2.519  12.043  0.1959  0.1122  0.9598
14507TIP3    H265013   6.547   2.544  11.999 -0.0915  1.4937  0.7528
14508TIP3   OH265014   1.397   6.749   1.593 -0.6765  0.2964  0.4465
14508TIP3    H165015   1.452   6.749   1.514 -1.3092 -0.7614 -0.0160
14508TIP3    H265016   1.322   6.803   1.569  0.1422  1.7581  1.0850
14509TIP3   OH265017   0.475   2.463   4.918  0.1997 -0.3156 -0.3730
14509TIP3    H165018   0.492   2.386   4.864  1.7864 -1.1611  1.2291
14509TIP3    H265019   0.509   2.440   5.004  0.3320  2.0296  0.2743
14510TIP3   OH265020   2.498   4.769  13.984 -0.1406 -0.0444 -0.4991
14510TIP3    H165021   2.436   4.698  13.999  0.0632 -0.0535  0.3664
14510TIP3    H265022   2.519   4.764  13.891 -1.2171 -0.2192 -0.7465
14511TIP3   OH265023   6.412   0.490  14.690 -0.1059 -0.1972  0.5515
14511TIP3    H165024   6.473   0.544  14.741  0.0507  0.5691 -0.4253
14511TIP3    H265025   6.435   0.400  14.713  0.2947  0.1199  1.4453
14512TIP3   OH265026   2.887   4.147  12.232  0.5807 -0.6136 -0.0297
14512TIP3    H165027   2.933   4.221  12.193  0.3531  0.0153  0.8772
14512TIP3    H265028   2.858   4.095  12.158 -1.0559  1.2687 -0.7890
14513TIP3   OH265029   6.220   6.654   1.958 -0.1272  0.1301  0.4951
14513TIP3    H165030   6.291   6.590   1.961 -0.3554 -0.2097 -0.7385
14513TIP3    H265031   6.164   6.631   2.033  0.3694 -0.4126  0.7081
14514TIP3   OH265032   5.375   5.063  15.843  0.2280 -0.2394  0.0356
14514TIP3    H165033   5.340   4.974  15.838  0.9072 -0.5141  0.0630
14514TIP3    H265034   5.420   5.066  15.928  0.9009 -0.1265 -0.3218
14515TIP3   OH265035   6.391   2.938   0.366 -0.4970 -0.4087  0.0706
14515TIP3    H165036   6.379   2.977   0.279 -0.7296 -2.2526 -0.7891
14515TIP3    H265037   6.392   3.012   0.426  1.9102  1.1467 -1.7052
14516TIP3   OH265038   4.243   0.079   1.376 -0.1640  0.2902 -0.6551
14516TIP3    H165039   4.198   0.033   1.447  0.4236 -1.0679 -1.1486
14516TIP3    H265040   4.206   0.043   1.296 -0.0592  1.0462 -1.0538
14517TIP3   OH265041   0.616   6.231  10.875 -0.2524 -0.4999 -0.0473
14517TIP3    H165042   0.628   6.276  10.791 -1.6290  2.1071  1.0268
14517TIP3    H265043   0.538   6.178  10.863 -0.7319  0.2459 -0.2884
14518TIP3   OH265044   3.711   6.664   6.238 -0.1716  0.3680 -0.8651
14518TIP3    H165045   3.674   6.676   6.151 -0.6085 -0.9901 -0.8889
14518TIP3    H265046   3.752   6.577   6.236  0.8072  0.7835 -0.0594
14519TIP3   OH265047   4.646   4.691   3.292  0.8998 -0.3350  0.8007
14519TIP3    H165048   4.554   4.713   3.275  0.5761 -0.5069  2.1903
14519TIP3    H265049   4.650   4.678   3.387  2.3691 -0.3169  0.7622
14520TIP3   OH265050   4.333   0.760   5.221 -0.1461 -0.2390  0.5193
14520TIP3    H165051   4.282   0.840   5.233  1.5640  1.2515 -1.3220
14520TIP3    H265052   4.349   0.756   5.127  1.4142 -1.7050  0.8061
14521TIP3   OH265053   3.477   4.412  13.118  0.5173  0.7128  0.3061
14521TIP3    H165054   3.507   4.339  13.172  0.2385  0.2986 -0.1034
14521TIP3    H265055   3.541   4.417  13.047 -0.1430  0.0960 -0.3358
14522TIP3   OH265056   2.594   0.372   2.327 -0.1879  0.6835 -0.1507
14522TIP3    H165057   2.601   0.278   2.309 -1.0978  0.6071 -0.1568
14522TIP3    H265058   2.505   0.383   2.361 -0.3700  1.6539 -0.8883
14523TIP3   OH265059   4.993   3.312   0.044  0.3789  0.0561 -0.7867
14523TIP3    H165060   4.915   3.365   0.059 -1.0598 -1.6828 -1.7316
14523TIP3    H265061   4.971   3.227   0.082  2.2176 -0.2070 -0.2063
14524TIP3   OH265062   0.093   2.161   5.325 -0.6751  0.2243 -0.0850
14524TIP3    H165063   0.187   2.173   5.314 -0.4687 -1.8263 -1.0478
14524TIP3    H265064   0.080   2.150   5.419  0.1127  0.0913  0.0095
14525TIP3   OH265065   0.115   2.116   3.444 -0.5057  0.4108  0.9240
14525TIP3    H165066   0.079   2.157   3.366  0.1701 -0.8382 -0.0805
14525TIP3    H265067   0.181   2.177   3.475 -1.5566  1.4384  1.2011
14526TIP3   OH265068   3.604   3.605  15.876 -0.0730 -0.3456  0.2034
14526TIP3    H165069   3.562   3.678  15.831  1.6886  1.2037  0.9402
14526TIP3    H265070   3.660   3.646  15.942  1.9592 -2.2689 -0.1842
14527TIP3   OH265071   0.566   0.627   0.438 -0.1654 -0.0828 -0.2313
14527TIP3    H165072   0.609   0.707   0.468 -0.5389 -0.2262  0.7257
14527TIP3    H265073   0.472   0.646   0.447 -0.2729 -0.2711 -0.9478
14528TIP3   OH265074   2.044   5.499   0.340  0.1622  0.1754  0.2084
14528TIP3    H165075   1.959   5.457   0.327 -0.0634  0.5020  0.5816
14528TIP3    H265076   2.098   5.432   0.383  0.4586 -0.4113 -1.0382
14529TIP3   OH265077   4.204   1.051   6.355 -0.5141  0.1124  0.8193
14529TIP3    H165078   4.220   1.095   6.272 -1.1136 -0.6990  0.2606
14529TIP3    H265079   4.110   1.059   6.369 -0.4967 -0.2172  1.1487
14530TIP3   OH265080   5.123   6.349   1.102 -0.1443 -0.1092  0.0015
14530TIP3    H165081   5.190   6.413   1.075 -1.0647  0.4247 -1.0842
14530TIP3    H265082   5.091   6.312   1.020  0.2538 -1.8839  0.6137
14531TIP3   OH265083   6.725   0.000  16.844  0.4295  0.3152  0.1136
14531TIP3    H165084   6.737  -0.009  16.939 -2.5722  1.4208  0.7345
14531TIP3    H265085   6.762   0.085  16.823 -1.9138  1.7005  1.0986
14532TIP3   OH265086   5.527   2.647  16.301  0.4713 -0.5519  0.0645
14532TIP3    H165087   5.563   2.559  16.292  1.1015 -0.4139  1.0270
14532TIP3    H265088   5.563   2.679  16.384 -1.7733 -0.3594  1.0558
14533TIP3   OH265089   5.681   0.087  10.704 -0.0351 -0.1107  0.1524
14533TIP3    H165090   5.757   0.133  10.737 -0.2490  0.8647 -0.6664
14533TIP3    H265091   5.672   0.011  10.762  0.4117  0.7788  1.4331
14534TIP3   OH265092   2.973   0.658  13.910  0.1184  0.0085  0.0588
14534TIP3    H165093   3.004   0.597  13.978  1.7432  0.9540  0.2092
14534TIP3    H265094   3.006   0.621  13.828  0.4822  0.2862  0.0761
14535TIP3   OH265095   1.753   3.151   5.648  0.0296  0.6030 -0.2682
14535TIP3    H165096   1.771   3.084   5.714  1.9116  0.5047 -0.8029
14535TIP3    H265097   1.752   3.233   5.697  0.2221  0.4199  0.0509
14536TIP3   OH265098   1.263   2.879  12.267  0.4750 -0.1395  0.2231
14536TIP3    H165099   1.329   2.813  12.249  1.7223  1.0443  0.2565
14536TIP3    H265100   1.180   2.838  12.243  1.4343 -0.8359 -2.1699
14537TIP3   OH265101   5.646   5.735   2.231  0.6631 -1.0207  0.5345
14537TIP3    H165102   5.734   5.769   2.248  0.5980 -0.9501  0.7333
14537TIP3    H265103   5.619   5.695   2.314  1.2601 -2.7349 -0.0616
14538TIP3   OH265104   2.254   0.236   5.402  0.0232  0.4918  0.2441
14538TIP3    H165105   2.198   0.161   5.387  0.9082 -0.2058  0.3331
14538TIP3    H265106   2.195   0.305   5.433 -1.1071  0.5111 -1.8467
14539TIP3   OH265107   1.377   0.312   2.401  0.5170  0.4179 -0.2445
14539TIP3    H165108   1.402   0.304   2.309 -0.4829  0.2642 -0.5201
14539TIP3    H265109   1.440   0.257   2.448  1.0954  0.5752 -0.8200
14540TIP3   OH265110   1.028   0.424   2.851  0.2256 -0.4004  0.1272
14540TIP3    H165111   0.950   0.369   2.841 -0.3546  0.6461 -1.7622
14540TIP3    H265112   1.099   0.363   2.869 -0.6245 -1.6410 -0.5700
14541TIP3   OH265113   5.294   0.387  15.124 -0.2180 -0.0195 -0.2108
14541TIP3    H165114   5.364   0.342  15.077  1.2541 -0.8160  2.5499
14541TIP3    H265115   5.243   0.317  15.165 -1.4085  0.6444 -0.5151
14542TIP3   OH265116   3.246   2.004  13.792  0.3315 -0.2251 -0.9156
14542TIP3    H165117   3.280   2.041  13.711  1.1763 -2.2462 -1.5540
14542TIP3    H265118   3.221   1.914  13.769  1.3702 -1.1485  1.2292
14543TIP3   OH265119   1.632   0.340   3.777  0.4256  0.2859  0.0439
14543TIP3    H165120   1.554   0.376   3.819  0.4149 -0.8401  1.0378
14543TIP3    H265121   1.608   0.331   3.685 -0.6812 -0.1685  0.3592
14544TIP3   OH265122   5.504   0.609   3.003 -0.5481  0.1419 -0.5432
14544TIP3    H165123   5.532   0.665   2.930 -1.5747 -0.7208 -1.6329
14544TIP3    H265124   5.575   0.616   3.067 -0.6216  2.6566 -0.6379
14545TIP3   OH265125   1.663   6.268  13.659 -0.3191 -0.0147 -0.3451
14545TIP3    H165126   1.734   6.223  13.613 -1.1600 -0.2258 -1.4582
14545TIP3    H265127   1.599   6.199  13.678  0.4552 -0.1704  2.1442
14546TIP3   OH265128   6.480   4.581  15.308  0.3802  0.3447  0.2220
14546TIP3    H165129   6.463   4.510  15.369 -0.0649  1.7196  1.7782
14546TIP3    H265130   6.574   4.574  15.288  0.7393  0.3758  1.7738
14547TIP3   OH265131   2.818   2.358   2.932  0.2627 -0.6341 -0.1581
14547TIP3    H165132   2.728   2.371   2.959  0.3715 -0.8273  0.3159
14547TIP3    H265133   2.835   2.265   2.949  0.7594 -0.4485  0.4190
14548TIP3   OH265134   4.133   6.793  12.476 -0.3593  0.8079  0.1659
14548TIP3    H165135   4.078   6.719  12.500  0.8250 -0.1164  0.1107
14548TIP3    H265136   4.194   6.758  12.412  1.9885  1.0904  2.0905
14549TIP3   OH265137   5.635   2.227  12.586  0.4345  0.1671 -0.5775
14549TIP3    H165138   5.704   2.290  12.565  1.0118  0.6319  2.2592
14549TIP3    H265139   5.556   2.280  12.592  0.3237  0.0813 -1.2480
14550TIP3   OH265140   4.742   3.445  13.409  0.2917  0.2872  0.1296
14550TIP3    H165141   4.818   3.444  13.351 -0.5864 -1.7429 -1.1117
14550TIP3    H265142   4.773   3.488  13.489  2.6553 -0.2116 -0.4353
14551TIP3   OH265143   3.138   5.033  15.372 -0.0005  0.3394  0.2940
14551TIP3    H165144   3.232   5.028  15.392  0.3248 -1.7616 -1.4413
14551TIP3    H265145   3.113   4.943  15.353 -2.0057  1.1060 -0.9401
14552TIP3   OH265146   6.056   0.805   0.061 -1.1137  0.3082 -0.7031
14552TIP3    H165147   6.105   0.812  -0.021 -1.0249  0.4369 -0.6410
14552TIP3    H265148   6.053   0.895   0.094  0.4119  0.0165  0.3380
14553TIP3   OH265149   0.489   3.333   0.828 -0.1493 -0.1683 -0.4748
14553TIP3    H165150   0.478   3.254   0.776 -0.9870 -0.9159  0.7825
14553TIP3    H265151   0.575   3.367   0.803  0.5313 -1.8607 -0.5328
14554TIP3   OH265152   2.544   6.068  12.216 -0.2282  0.1072  0.0488
14554TIP3    H165153   2.487   6.025  12.153 -0.2689  1.0332 -0.5655
14554TIP3    H265154   2.610   6.002  12.238 -0.4664 -0.3686 -0.6350
14555TIP3   OH265155   3.570   1.830   1.406  0.1031  0.2311  0.3615
14555TIP3    H165156   3.478   1.857   1.404  0.5111  1.7299 -1.5014
14555TIP3    H265157   3.570   1.742   1.370 -0.6026  0.2239  0.3573
14556TIP3   OH265158   3.535   6.096   1.405 -0.1658 -0.0306 -0.0603
14556TIP3    H165159   3.489   6.023   1.447  1.0123 -0.8381 -0.1207
14556TIP3    H265160   3.547   6.161   1.474  1.2748 -1.1156  0.7475
14557TIP3   OH265161   3.071   5.931   5.161  0.1064 -0.4262  0.0146
14557TIP3    H165162   3.087   5.881   5.080 -1.7483 -1.5676  0.2912
14557TIP3    H265163   3.002   5.993   5.137  1.0289  0.7129  0.2041
14558TIP3   OH265164   5.970   4.339   6.098  0.2263 -0.0362  0.3898
14558TIP3    H165165   5.956   4.381   6.013  1.6599 -0.1121  0.0776
14558TIP3    H265166   5.945   4.406   6.161  0.1904  0.4234 -0.0966
14559TIP3   OH265167   5.710   2.680   1.498  0.0539  0.2272 -0.0026
14559TIP3    H165168   5.673   2.652   1.414  0.5493 -3.3236  0.7883
14559TIP3    H265169   5.634   2.699   1.552 -0.5188 -1.7676 -0.0121
14560TIP3   OH265170   1.911   1.236   3.862 -0.3754  0.3384 -0.4989
14560TIP3    H165171   1.937   1.258   3.951  1.3710  1.0341 -1.1447
14560TIP3    H265172   1.901   1.141   3.862 -2.1715  0.4743  0.8482
14561TIP3   OH265173   5.043   0.850   6.159  0.5226 -0.4415 -0.3192
14561TIP3    H165174   5.046   0.865   6.065  0.2978 -2.0850 -0.6123
14561TIP3    H265175   4.949   0.849   6.180  0.5638  2.2374  0.3749
14562TIP3   OH265176   1.031   2.572   4.238  0.5426 -0.4512  0.0025
14562TIP3    H165177   1.111   2.621   4.252  0.0120  0.7475 -0.9543
14562TIP3    H265178   0.965   2.638   4.216 -1.1521 -1.1899  2.3695
14563TIP3   OH265179   1.535   6.522   4.359 -0.1000 -0.2258  0.0860
14563TIP3    H165180   1.615   6.566   4.329  0.4005 -1.2697 -0.1523
14563TIP3    H265181   1.563   6.433   4.379 -0.7801 -0.0386  2.0204
14564TIP3   OH265182   2.730   2.991   3.497 -0.6166  0.9375  0.2246
14564TIP3    H165183   2.784   2.987   3.418 -1.1296  0.9810 -0.1281
14564TIP3    H265184   2.765   2.921   3.553 -0.5098  0.6504 -0.2012
14565TIP3   OH265185   0.787   0.339   2.424 -0.5839 -0.9110 -0.6992
14565TIP3    H165186   0.834   0.257   2.440 -1.4265 -1.2388  0.1779
14565TIP3    H265187   0.706   0.331   2.473  0.1561  1.2507  1.0654
14566TIP3   OH265188   6.657   5.656   0.315 -0.3100 -0.2239  0.1287
14566TIP3    H165189   6.567   5.675   0.342 -0.7248 -0.1190 -1.2157
14566TIP3    H265190   6.670   5.710   0.237  1.2506  0.4419  0.8202
14567TIP3   OH265191   2.016   1.392   2.936  0.1747  0.5389 -0.3803
14567TIP3    H165192   2.111   1.387   2.928  0.2679  0.1995  0.7884
14567TIP3    H265193   2.001   1.472   2.987 -0.1918  0.8299 -0.9416
14568TIP3   OH265194   5.765   0.069  16.121  0.0997 -0.2872 -0.3855
14568TIP3    H165195   5.788  -0.003  16.178 -1.4020  0.2533  0.9912
14568TIP3    H265196   5.680   0.044  16.083  0.3968 -0.0052 -1.2714
14569TIP3   OH265197   6.605   0.988   0.389  0.0032  0.1243  0.1805
14569TIP3    H165198   6.659   0.913   0.366 -0.2042  0.0189  0.0368
14569TIP3    H265199   6.659   1.064   0.368 -0.2142  0.0316 -0.7231
14570TIP3   OH265200   4.220   2.812  12.692  0.1203 -0.0121 -0.2088
14570TIP3    H165201   4.184   2.847  12.610 -1.6531  0.7556  0.8488
14570TIP3    H265202   4.300   2.767  12.665  0.3926  1.5129 -2.1472
14571TIP3   OH265203   6.525   2.343   2.880 -0.1155  0.0872 -0.2353
14571TIP3    H165204   6.568   2.366   2.962  0.8121 -1.2292 -0.3273
14571TIP3    H265205   6.438   2.382   2.887  0.5969  1.6452  0.5341
14572TIP3   OH265206   2.620   5.020   6.630  0.6928  0.0409  0.2112
14572TIP3    H165207   2.672   5.012   6.550  2.8552 -0.0903  1.5661
14572TIP3    H265208   2.602   5.114   6.637  0.1802  0.0130 -0.5946
14573TIP3   OH265209   6.273   4.541  10.110  0.6622  0.0722  0.4024
14573TIP3    H165210   6.195   4.494  10.140  2.0980 -1.7909  1.4430
14573TIP3    H265211   6.340   4.519  10.174  2.1508  1.3163 -0.6665
14574TIP3   OH265212   3.894   2.861  12.838  0.0664  1.0007  0.0428
14574TIP3    H165213   3.948   2.783  12.851 -0.9969 -0.0136 -1.2237
14574TIP3    H265214   3.827   2.856  12.906  0.2695  1.0335  0.2422
14575TIP3   OH265215   0.399   1.803  15.079  0.5145  0.8612  0.8350
14575TIP3    H165216   0.384   1.715  15.045  0.1669  1.2129  0.0497
14575TIP3    H265217   0.377   1.797  15.172  1.5201 -0.1312  1.0405
14576TIP3   OH265218   4.734   0.537   0.609 -0.3075  0.2228 -0.0992
14576TIP3    H165219   4.671   0.550   0.680 -0.1631 -1.1068  0.2847
14576TIP3    H265220   4.774   0.624   0.597 -0.4415  0.4995  1.3319
14577TIP3   OH265221   3.578   2.211  11.428  0.1960  0.1637  0.0978
14577TIP3    H165222   3.501   2.262  11.402  0.5105  0.4018 -0.3827
14577TIP3    H265223   3.637   2.217  11.353  0.1234 -1.1417 -0.1004
14578TIP3   OH265224   0.767   3.524  12.442  0.3577 -0.3541 -0.0648
14578TIP3    H165225   0.844   3.524  12.385  0.6991 -0.3261  0.3880
14578TIP3    H265226   0.705   3.584  12.400  0.5391 -0.4621 -0.4886
14579TIP3   OH265227   5.173   4.437  11.432 -0.1312 -0.3691  0.3527
14579TIP3    H165228   5.084   4.402  11.428 -0.1397 -0.3446  0.3207
14579TIP3    H265229   5.209   4.422  11.345  0.1771 -1.1092  0.6055
14580TIP3   OH265230   2.162   2.323   4.275  0.4405  0.2190  0.4640
14580TIP3    H165231   2.079   2.282   4.251  0.1331  0.1394  1.5957
14580TIP3    H265232   2.229   2.257   4.254  0.0374 -0.4866  1.3579
14581TIP3   OH265233   6.001   6.520   4.744 -0.4075  0.3460 -0.3177
14581TIP3    H165234   5.940   6.450   4.720  0.4369 -0.7140  0.4940
14581TIP3    H265235   5.945   6.589   4.780 -1.2368 -0.0406 -0.8294
14582TIP3   OH265236   5.882   0.051  11.159  0.4474 -0.3329  0.1632
14582TIP3    H165237   5.816   0.078  11.223 -0.4331 -0.9267 -0.4675
14582TIP3    H265238   5.832   0.018  11.084  1.4469  0.5149 -0.9202
14583TIP3   OH265239   0.063   0.683   2.989  0.2647  0.0637 -0.1627
14583TIP3    H165240   0.043   0.682   3.082 -0.6035  0.9233 -0.3324
14583TIP3    H265241   0.091   0.773   2.971 -1.0595  0.3240 -1.0285
14584TIP3   OH265242   1.610   5.233   0.605 -0.4032 -0.1468  0.1961
14584TIP3    H165243   1.643   5.311   0.560 -2.4937  0.6508 -0.0466
14584TIP3    H265244   1.682   5.170   0.598  1.7994  2.0329  1.3006
14585TIP3   OH265245   3.642   2.919   3.744 -0.3865  0.0020  0.1440
14585TIP3    H165246   3.717   2.870   3.776 -0.3979  0.5106  0.9907
14585TIP3    H265247   3.650   3.005   3.785 -1.7825 -0.1472  0.7885
14586TIP3   OH265248   6.719   4.044   1.229 -0.7491  0.2085  0.1197
14586TIP3    H165249   6.772   3.967   1.213  1.2596  1.4001  0.6594
14586TIP3    H265250   6.681   4.030   1.315 -1.6215 -0.8080 -0.4158
14587TIP3   OH265251   1.102   4.978  12.827 -0.1533 -0.4362  0.0904
14587TIP3    H165252   1.024   4.938  12.789  0.4256  0.4175 -2.1619
14587TIP3    H265253   1.173   4.919  12.803  0.0552 -0.6556  1.2039
14588TIP3   OH265254   0.776   0.821  13.273  0.1246  0.0450  0.3602
14588TIP3    H165255   0.693   0.838  13.227 -0.1916  0.0527  0.9146
14588TIP3    H265256   0.842   0.868  13.222  0.4768 -3.0314 -2.3294
14589TIP3   OH265257   2.176   1.910   4.609 -0.1767  0.0070 -0.0963
14589TIP3    H165258   2.251   1.857   4.635  0.2601  0.1371 -1.0673
14589TIP3    H265259   2.155   1.882   4.520 -1.1455  0.1267  0.0750
14590TIP3   OH265260   4.790   2.922  16.462  0.0097 -0.2752 -0.4427
14590TIP3    H165261   4.805   2.929  16.556  2.2975  0.4992 -0.8024
14590TIP3    H265262   4.807   2.830  16.442  0.3223 -0.2718 -0.2092
14591TIP3   OH265263   4.792   4.716  14.381 -0.5910  0.2122 -0.0752
14591TIP3    H165264   4.716   4.769  14.406 -1.1547 -0.0678 -1.1165
14591TIP3    H265265   4.776   4.693  14.290 -0.2121 -1.5133  0.2559
14592TIP3   OH265266   4.873   5.231   5.874  0.7191 -0.1038  0.5698
14592TIP3    H165267   4.788   5.246   5.916  0.2305 -1.1330 -0.0214
14592TIP3    H265268   4.935   5.220   5.946 -0.1457 -2.1095  1.0639
14593TIP3   OH265269   0.543   5.710   4.157  0.3690  0.3499 -0.3162
14593TIP3    H165270   0.473   5.752   4.106 -0.2684  1.0917  1.1035
14593TIP3    H265271   0.562   5.629   4.110 -1.6917 -0.0313 -0.5936
14594TIP3   OH265272   0.817   2.750  12.545  0.3265 -0.5115  0.2093
14594TIP3    H165273   0.825   2.803  12.625  3.0459 -1.4642  0.6640
14594TIP3    H265274   0.722   2.742  12.531 -0.2038  2.2927  1.5323
14595TIP3   OH265275   4.761   2.685   2.127  0.0243 -0.2470  0.0891
14595TIP3    H165276   4.700   2.739   2.178 -1.3997 -1.3187 -0.3849
14595TIP3    H265277   4.781   2.738   2.049 -0.5024  0.0329  0.1401
14596TIP3   OH265278   3.851   6.239  11.484  0.1388  0.3503  0.2834
14596TIP3    H165279   3.864   6.197  11.399 -3.7997 -0.4703 -0.1183
14596TIP3    H265280   3.881   6.330  11.471 -0.0597  0.1559 -1.8748
14597TIP3   OH265281   0.975   3.542   3.814 -0.3523 -0.2132  0.3930
14597TIP3    H165282   0.981   3.598   3.736 -1.0572 -0.1929  0.3474
14597TIP3    H265283   0.981   3.453   3.779 -0.7000 -0.2053  0.3107
14598TIP3   OH265284   2.566   5.778   0.323 -0.0012  0.4436  0.0125
14598TIP3    H165285   2.591   5.715   0.391 -0.1009  0.9611  0.5348
14598TIP3    H265286   2.490   5.823   0.359  0.7109  1.6028  0.1044
14599TIP3   OH265287   5.378   0.137   3.140 -0.3471  0.5156  0.2613
14599TIP3    H165288   5.464   0.111   3.108 -1.2790 -0.9484 -1.2359
14599TIP3    H265289   5.354   0.213   3.087 -1.4965 -1.3505 -2.0709
14600TIP3   OH265290   1.376   5.425  15.627  0.1358 -0.3755 -0.9029
14600TIP3    H165291   1.317   5.379  15.687 -0.6140 -0.6176 -1.7916
14600TIP3    H265292   1.375   5.372  15.547  0.0457  0.6435 -1.6056
14601TIP3   OH265293   6.666   6.199   4.488 -0.2178 -0.2326  0.2298
14601TIP3    H165294   6.679   6.111   4.452  0.0631 -0.0491 -0.1251
14601TIP3    H265295   6.742   6.214   4.544  0.0672  0.0388 -0.2262
14602TIP3   OH265296   3.806   1.843  13.184  0.2381  0.4206  0.2425
14602TIP3    H165297   3.813   1.846  13.279 -0.0046 -0.0387  0.2786
14602TIP3    H265298   3.792   1.750  13.164  1.7456  0.3025 -0.3492
14603TIP3   OH265299   4.401   6.056   5.590  0.6926  0.1197 -0.2619
14603TIP3    H165300   4.488   6.034   5.623 -0.9413 -1.4032  3.8008
14603TIP3    H265301   4.367   5.973   5.555  1.0142  0.8589 -2.4658
14604TIP3   OH265302   1.815   4.276   1.156 -0.6297  0.2577 -0.0862
14604TIP3    H165303   1.731   4.252   1.192 -1.7995  3.4099 -0.3548
14604TIP3    H265304   1.799   4.287   1.062  0.1509  0.5351 -0.1985
14605TIP3   OH265305   1.515   0.835  16.182 -0.0284  0.1175  0.3045
14605TIP3    H165306   1.552   0.851  16.269 -0.4254 -0.1597  0.5278
14605TIP3    H265307   1.525   0.740  16.169  0.3547  0.2122 -0.1045
14606TIP3   OH265308   0.031   2.815  15.619  0.6191  0.1644  0.0501
14606TIP3    H165309   0.110   2.775  15.583  1.4300  1.8571 -0.1503
14606TIP3    H265310  -0.003   2.870  15.548  0.2421  0.7914  0.6987
14607TIP3   OH265311   2.172   6.191   4.676  0.3666  0.1357  0.4293
14607TIP3    H165312   2.156   6.226   4.588 -2.9789 -0.5640  0.6349
14607TIP3    H265313   2.128   6.252   4.734 -2.8973 -2.5155  1.0297
14608TIP3   OH265314   0.162   2.850   3.721  0.1185  0.4318 -0.1506
14608TIP3    H165315   0.071   2.844   3.692 -0.0252  0.4081  0.3048
14608TIP3    H265316   0.175   2.774   3.777  1.1782 -1.0593 -2.2377
14609TIP3   OH265317   4.854   6.226   6.137 -0.1574  0.0079 -0.1573
14609TIP3    H165318   4.789   6.166   6.174 -0.3064 -0.9747 -1.8936
14609TIP3    H265319   4.863   6.295   6.202 -0.1475 -1.7653  1.8251
14610TIP3   OH265320   2.161   0.892   3.280  0.6513  0.0265 -0.2657
14610TIP3    H165321   2.131   0.829   3.346  0.2451 -1.5629 -1.8709
14610TIP3    H265322   2.088   0.898   3.218  1.8929 -0.4103 -1.8319
14611TIP3   OH265323   4.552   1.952   0.559 -0.0845  0.5628  0.3420
14611TIP3    H165324   4.544   1.860   0.534 -0.4002  0.6152  0.2486
14611TIP3    H265325   4.586   1.995   0.480 -0.9068  0.6971  0.0533
14612TIP3   OH265326   0.334   4.192  11.058 -0.3305  0.4809  0.2235
14612TIP3    H165327   0.395   4.217  10.989 -1.2429 -0.2143 -0.8682
14612TIP3    H265328   0.267   4.140  11.014 -1.2341  0.4597  1.5446
14613TIP3   OH265329   0.782   3.337   1.576  0.2754  0.8880  0.1111
14613TIP3    H165330   0.779   3.363   1.668 -0.5163 -0.4795  0.5018
14613TIP3    H265331   0.802   3.243   1.578  1.2248  1.0290 -1.1641
14614TIP3   OH265332   1.988   1.651   5.306 -0.1266 -0.4224 -0.1088
14614TIP3    H165333   1.974   1.684   5.218  1.1149 -0.2686 -0.2657
14614TIP3    H265334   1.955   1.720   5.363  0.6738  0.2658 -0.4509
14615TIP3   OH265335   3.482   4.179   6.126  0.1547 -0.4048 -0.4997
14615TIP3    H165336   3.436   4.101   6.156 -0.0033 -0.5748 -1.1737
14615TIP3    H265337   3.560   4.184   6.182 -0.1532 -0.6914 -0.0426
14616TIP3   OH265338   2.342   3.719  11.120  0.0577  0.3149  0.1619
14616TIP3    H165339   2.386   3.777  11.057  1.1652 -2.1900 -1.5102
14616TIP3    H265340   2.249   3.737  11.108  0.3560  1.6644 -0.3569
14617TIP3   OH265341   5.516   3.029   0.534 -0.0883 -0.3911 -0.3012
14617TIP3    H165342   5.480   2.995   0.616  0.2988 -2.3341 -0.8899
14617TIP3    H265343   5.601   2.987   0.526  0.1638  0.3067 -1.3682
14618TIP3   OH265344   5.491   4.254  16.403 -0.0154 -1.1949  0.4096
14618TIP3    H165345   5.577   4.276  16.367 -0.4314 -0.7303 -0.3171
14618TIP3    H265346   5.500   4.268  16.497 -0.1893  1.9951  0.0470
14619TIP3   OH265347   0.562   5.160  11.352  0.6014  0.3778 -0.0057
14619TIP3    H165348   0.499   5.111  11.406  1.3129 -1.3065 -0.6731
14619TIP3    H265349   0.550   5.126  11.264  0.7452  1.8156 -0.6056
14620TIP3   OH265350   5.755   2.825  10.658  0.2151 -0.1605  0.3221
14620TIP3    H165351   5.707   2.808  10.577 -1.1811  0.1335  1.0580
14620TIP3    H265352   5.834   2.773  10.650 -0.2207 -0.6666 -0.9395
14621TIP3   OH265353   1.483   4.059  10.666 -0.5955  0.5334 -0.1586
14621TIP3    H165354   1.562   4.099  10.628 -2.0582  1.4141 -2.4992
14621TIP3    H265355   1.414   4.122  10.649 -2.5882 -1.9186 -1.9264
14622TIP3   OH265356   3.746   1.999   1.301  0.4335  0.4521 -0.3046
14622TIP3    H165357   3.697   1.936   1.354 -1.0104  2.1159  0.4488
14622TIP3    H265358   3.835   1.964   1.298 -0.0923 -1.1074  0.8812
14623TIP3   OH265359   6.123   4.021  16.564 -0.0693  0.6011  0.0036
14623TIP3    H165360   6.079   4.067  16.635 -2.7101 -1.1665 -0.3480
14623TIP3    H265361   6.052   3.995  16.505  1.7824 -0.0772 -2.0319
14624TIP3   OH265362   4.149   3.076   4.846 -0.0200  0.1582 -0.8909
14624TIP3    H165363   4.211   3.108   4.780  1.2796 -0.8130 -0.2032
14624TIP3    H265364   4.179   2.987   4.865  0.1445  0.6776  1.5872
14625TIP3   OH265365   2.153   5.626  13.263  0.0730  0.1137  0.0254
14625TIP3    H165366   2.199   5.592  13.340  2.6598  1.0427 -0.9686
14625TIP3    H265367   2.201   5.705  13.240 -0.2250 -0.4394 -2.8430
14626TIP3   OH265368   4.109   2.361  12.783 -0.0173  0.2665  0.2491
14626TIP3    H165369   4.104   2.435  12.723  1.4839  0.0135 -0.2218
14626TIP3    H265370   4.121   2.285  12.727  0.0137 -0.1493  0.8079
14627TIP3   OH265371   6.028   0.604  12.265 -0.1768 -0.0053 -0.0784
14627TIP3    H165372   6.060   0.570  12.181  0.0216 -0.6074  0.2315
14627TIP3    H265373   5.937   0.627  12.249 -0.0428  0.2163 -0.5513
14628TIP3   OH265374   6.771   1.032   2.019  0.3324  0.0860 -0.1567
14628TIP3    H165375   6.776   0.952   1.966 -1.5204  0.7402 -1.4487
14628TIP3    H265376   6.708   1.011   2.087 -0.2141  0.4363 -0.5426
14629TIP3   OH265377   2.387   6.551   5.722 -0.0776  0.3179 -0.7273
14629TIP3    H165378   2.422   6.633   5.755  1.2635 -0.4184 -0.2399
14629TIP3    H265379   2.455   6.516   5.665 -0.8687 -0.1817 -1.3892
14630TIP3   OH265380   5.041   2.263   0.390  0.0927 -0.3844  0.3631
14630TIP3    H165381   5.114   2.269   0.328  1.5481 -0.2309  2.0010
14630TIP3    H265382   4.988   2.189   0.358  0.3605  0.1593 -1.4465
14631TIP3   OH265383   1.129   6.281  16.894  0.2962 -0.1946  0.3096
14631TIP3    H165384   1.088   6.280  16.981 -0.1395  2.1066  0.2062
14631TIP3    H265385   1.085   6.353  16.848  1.2148 -0.7197 -1.4785
14632TIP3   OH265386   1.085   2.436   2.726  0.4179 -0.3296 -0.2084
14632TIP3    H165387   1.166   2.441   2.674  0.3840  0.1466 -0.2219
14632TIP3    H265388   1.115   2.425   2.816  0.4895 -0.5690 -0.2612
14633TIP3   OH265389   5.529   0.264  15.065  0.2372  0.4696  0.6839
14633TIP3    H165390   5.613   0.262  15.019 -1.0440  1.0135 -1.8300
14633TIP3    H265391   5.542   0.328  15.135  1.7548  0.9348  0.0179
14634TIP3   OH265392   4.276   2.575   2.251 -0.2013 -0.4646 -0.3388
14634TIP3    H165393   4.342   2.510   2.227 -0.6345 -0.5498 -1.3474
14634TIP3    H265394   4.281   2.641   2.181 -1.5589 -0.7575 -0.7366
14635TIP3   OH265395   5.113   0.387   1.366 -0.3934  0.1185 -0.2279
14635TIP3    H165396   5.054   0.339   1.308 -0.1564 -1.2340  0.6062
14635TIP3    H265397   5.143   0.461   1.314 -0.7988 -0.6277 -1.5615
14636TIP3   OH265398   2.255   4.654   3.736  0.4779 -0.6706 -0.3429
14636TIP3    H165399   2.192   4.651   3.809  0.3776 -0.6789 -0.4296
14636TIP3    H265400   2.341   4.652   3.779  0.4490  0.8885 -0.1351
14637TIP3   OH265401   0.530   5.071   2.102 -0.0703  0.3842 -0.0372
14637TIP3    H165402   0.622   5.072   2.074 -0.0644  0.8040 -0.0010
14637TIP3    H265403   0.481   5.055   2.021 -0.0080  0.8564 -0.1691
14638TIP3   OH265404   2.981   5.787   0.205 -0.2675  0.7125  0.7758
14638TIP3    H165405   3.005   5.697   0.184  1.0663  0.3800  3.3842
14638TIP3    H265406   2.999   5.836   0.124  1.0495 -1.0001 -0.0324
14639TIP3   OH265407   1.724   6.693   0.298 -0.3518 -0.3148  0.3049
14639TIP3    H165408   1.674   6.771   0.322  1.0487  0.2619  1.5049
14639TIP3    H265409   1.784   6.680   0.371  2.1369 -0.2152 -1.6101
14640TIP3   OH265410   1.937   4.048   6.199 -0.4162 -0.4664  0.7236
14640TIP3    H165411   2.007   4.111   6.212 -0.0457 -0.7985  0.3619
14640TIP3    H265412   1.957   3.976   6.258 -1.1993  0.0326  1.6295
14641TIP3   OH265413   3.702   4.315   4.025  0.2065  0.1416  0.5499
14641TIP3    H165414   3.672   4.324   4.115  2.2931 -0.0504  1.3171
14641TIP3    H265415   3.760   4.239   4.027  0.1572  0.0306 -1.0072
14642TIP3   OH265416   0.307   2.663  16.700  0.0351  0.0354 -0.1806
14642TIP3    H165417   0.233   2.702  16.747 -1.1142 -1.1168 -0.9634
14642TIP3    H265418   0.325   2.581  16.748 -0.6711 -0.7873 -1.2848
14643TIP3   OH265419   0.919   1.537  14.856 -0.0116 -0.1137  0.2374
14643TIP3    H165420   0.950   1.448  14.846  0.6667  0.2449 -1.0338
14643TIP3    H265421   0.955   1.584  14.781 -0.8462  1.0947  0.5564
14644TIP3   OH265422   1.713   1.206  15.199  0.1481  0.1806 -0.2011
14644TIP3    H165423   1.687   1.275  15.138  1.4293  1.3441  0.5026
14644TIP3    H265424   1.661   1.223  15.278  0.1736  0.0924 -0.1644
14645TIP3   OH265425   6.397   0.719   3.669 -1.0070 -0.5483  0.1157
14645TIP3    H165426   6.410   0.674   3.585  1.7518 -0.9529  0.6637
14645TIP3    H265427   6.463   0.788   3.670 -1.7551  0.2026  1.5117
14646TIP3   OH265428   5.704   4.907  15.859 -0.0464 -0.1822 -0.0612
14646TIP3    H165429   5.707   5.000  15.841 -2.5877 -0.0743 -0.3438
14646TIP3    H265430   5.657   4.900  15.942  0.3534 -1.1952  0.0935
14647TIP3   OH265431   6.052   2.778  13.594 -0.3656 -0.7127  0.0446
14647TIP3    H165432   6.046   2.837  13.669 -0.0631 -0.8579  0.1876
14647TIP3    H265433   6.116   2.712  13.621  0.0145 -0.5626 -0.4856
14648TIP3   OH265434   3.420   3.666  16.751  0.1897  0.2287  0.1377
14648TIP3    H165435   3.462   3.706  16.675 -1.9501 -0.5628 -1.5644
14648TIP3    H265436   3.326   3.675  16.734 -0.4153  0.8350  3.1623
14649TIP3   OH265437   6.147   3.719  13.805  0.4356  0.2583  0.1507
14649TIP3    H165438   6.185   3.780  13.742 -2.7530  2.5685  0.2392
14649TIP3    H265439   6.118   3.774  13.877 -0.5016 -1.6807  1.3288
14650TIP3   OH265440   5.446   5.887  13.646 -0.3625 -0.8086  0.3686
14650TIP3    H165441   5.367   5.940  13.637 -0.4318 -1.1298 -1.2568
14650TIP3    H265442   5.437   5.820  13.577  2.2098  0.3286 -1.2086
14651TIP3   OH265443   1.560   6.022  16.202 -0.0864  0.0654  0.3516
14651TIP3    H165444   1.544   6.019  16.296  1.1938 -0.3189  0.5862
14651TIP3    H265445   1.636   5.964  16.189 -0.8432 -0.6582 -1.0582
14652TIP3   OH265446   4.514   4.313  12.341 -0.3916  0.0467 -0.3222
14652TIP3    H165447   4.501   4.311  12.247  0.2534  0.2423 -0.4246
14652TIP3    H265448   4.458   4.243  12.375  0.1966 -0.7492 -0.9593
14653TIP3   OH265449   6.142   6.474   4.961  0.2559  0.5682 -0.7659
14653TIP3    H165450   6.214   6.414   4.943  0.1526 -0.2078  1.1678
14653TIP3    H265451   6.094   6.479   4.878 -0.3774 -2.9339 -0.7857
14654TIP3   OH265452   2.210   1.143  15.205  0.3291 -0.6451  0.0834
14654TIP3    H165453   2.183   1.181  15.121 -0.1500 -1.5225 -0.1761
14654TIP3    H265454   2.160   1.062  15.212  0.3442 -0.5788  1.2349
14655TIP3   OH265455   6.030   2.749  16.114 -0.2623  0.3409 -0.3439
14655TIP3    H165456   5.934   2.753  16.112 -0.3083 -0.4060  0.0450
14655TIP3    H265457   6.054   2.722  16.025 -0.4375  0.1321 -0.3283
14656TIP3   OH265458   2.866   2.524   2.562 -0.0790 -0.2356 -0.2090
14656TIP3    H165459   2.874   2.429   2.551 -0.2403 -0.2253 -0.4121
14656TIP3    H265460   2.907   2.560   2.484  0.6700 -0.1206  0.2260
14657TIP3   OH265461   2.436   5.966  10.925 -0.4560  0.3322 -0.2309
14657TIP3    H165462   2.531   5.975  10.913 -0.4890  1.2205  0.1204
14657TIP3    H265463   2.399   5.978  10.837 -0.4449  3.1539  0.0623
14658TIP3   OH265464   0.889   6.186   2.738 -0.0301 -1.3802 -0.1053
14658TIP3    H165465   0.894   6.271   2.782 -0.9485 -0.3384 -1.8974
14658TIP3    H265466   0.951   6.131   2.785 -1.0161 -0.4164  2.5415
14659TIP3   OH265467   5.152   4.719  16.703 -0.4075  0.2584  0.1635
14659TIP3    H165468   5.179   4.800  16.659  0.3284 -0.2123 -0.2875
14659TIP3    H265469   5.232   4.668  16.709 -1.1841 -1.2611 -1.3465
14660TIP3   OH265470   1.969   3.751   2.569  0.1394  0.0380  0.5603
14660TIP3    H165471   2.042   3.731   2.511 -0.5143  2.0872 -1.0576
14660TIP3    H265472   1.989   3.837   2.604 -0.8431  0.0197  1.1973
14661TIP3   OH265473   2.932   1.051  12.079  0.2137  0.0974 -0.1028
14661TIP3    H165474   3.016   1.078  12.041  0.4227  2.1228  1.5705
14661TIP3    H265475   2.871   1.054  12.006  1.4779 -0.8876 -1.2486
14662TIP3   OH265476   5.820   2.791  12.140  0.0215 -0.3629 -0.2250
14662TIP3    H165477   5.760   2.805  12.213 -0.5318 -0.7836 -0.5902
14662TIP3    H265478   5.907   2.787  12.180 -0.3060 -0.8786  0.4490
14663TIP3   OH265479   1.022   2.138   0.396 -0.1939  0.4061 -0.6441
14663TIP3    H165480   0.990   2.065   0.449  1.0436 -0.4177 -0.9859
14663TIP3    H265481   1.105   2.163   0.437  0.4222  0.2350 -1.7546
14664TIP3   OH265482   0.156   4.063   2.172 -0.3138 -0.1195  0.2442
14664TIP3    H165483   0.096   4.038   2.102 -0.0253 -2.0885  0.6613
14664TIP3    H265484   0.150   4.159   2.175 -0.4597  0.0118 -2.3266
14665TIP3   OH265485   1.875   0.021  17.039 -0.1497  0.7789 -0.1422
14665TIP3    H165486   1.893  -0.033  17.117 -0.4484 -0.2410 -0.7649
14665TIP3    H265487   1.860  -0.042  16.969  0.3374  1.6927 -1.0931
14666TIP3   OH265488   1.981   3.565  14.718  0.0360 -0.5054 -0.0403
14666TIP3    H165489   2.055   3.557  14.659  0.5707  0.2900  0.5193
14666TIP3    H265490   1.912   3.513  14.676  1.0244 -1.6200 -0.3496
14667TIP3   OH265491   0.736   1.453  14.578 -0.1381 -0.4105  0.2898
14667TIP3    H165492   0.771   1.425  14.663 -0.3270 -0.6963  0.2737
14667TIP3    H265493   0.807   1.434  14.516 -0.9147 -2.6259 -0.0224
14668TIP3   OH265494   3.489   1.282   5.303  0.1612 -0.5855  0.3015
14668TIP3    H165495   3.462   1.373   5.290  0.4762 -0.5851 -0.4238
14668TIP3    H265496   3.450   1.234   5.229  1.0514 -0.8004 -0.0500
14669TIP3   OH265497   5.754   0.758   2.342  0.2667 -0.0901 -0.2311
14669TIP3    H165498   5.681   0.800   2.297  0.3128 -0.4086 -0.6029
14669TIP3    H265499   5.739   0.664   2.331 -0.5723 -0.2481  1.7222
14670TIP3   OH265500   6.675   3.956   4.399 -0.6223  0.1847 -0.1737
14670TIP3    H165501   6.637   3.995   4.320  0.1473 -1.5417 -1.4511
14670TIP3    H265502   6.626   3.874   4.410 -0.5296  0.2745  1.0044
14671TIP3   OH265503   0.591   2.458   0.330 -0.3918 -0.3860 -0.1671
14671TIP3    H165504   0.609   2.552   0.336 -0.6698 -0.2447 -1.3412
14671TIP3    H265505   0.676   2.418   0.314 -0.3096 -0.3067  0.0693
14672TIP3   OH265506   4.915   1.253  15.996  0.1921  0.4374  0.5553
14672TIP3    H165507   4.881   1.241  16.085  0.7014  1.1309  0.8463
14672TIP3    H265508   4.840   1.287  15.947 -2.0353 -5.2598 -0.8253
14673TIP3   OH265509   3.889   3.337  15.825 -0.2336  0.3871 -0.0243
14673TIP3    H165510   3.802   3.343  15.866 -0.2912 -0.7940  0.0621
14673TIP3    H265511   3.914   3.428  15.809 -1.8671  0.7304 -0.8794
14674TIP3   OH265512   5.147   0.559  11.673 -0.1847 -0.5400 -0.2392
14674TIP3    H165513   5.069   0.525  11.630 -0.4264  0.1439 -0.3422
14674TIP3    H265514   5.118   0.584  11.760 -0.8421  2.5989 -1.2366
14675TIP3   OH265515   2.194   0.841  16.440 -0.0438 -0.4397  0.0036
14675TIP3    H165516   2.113   0.889  16.422  0.0580  0.0466  0.7824
14675TIP3    H265517   2.166   0.755  16.469 -0.2875 -0.2997  0.1906
14676TIP3   OH265518   2.393   3.386   2.432  0.0902 -0.3043  0.1230
14676TIP3    H165519   2.340   3.461   2.457  3.0798  2.4418 -1.0111
14676TIP3    H265520   2.378   3.376   2.338 -0.1156 -0.9943  0.2241
14677TIP3   OH265521   1.741   2.429  14.522 -0.9068  0.6160  0.1868
14677TIP3    H165522   1.720   2.356  14.579  1.0670 -1.1533 -1.2134
14677TIP3    H265523   1.656   2.461  14.491 -1.7964 -1.6170  0.1916
14678TIP3   OH265524   0.670   6.382  12.360 -0.5462  0.7341 -0.1334
14678TIP3    H165525   0.599   6.406  12.300 -1.7559 -3.5301 -0.7458
14678TIP3    H265526   0.626   6.354  12.440  0.7774  1.9189  1.0551
14679TIP3   OH265527   3.087   2.028  16.626  0.8288  0.1427 -0.3438
14679TIP3    H165528   3.011   1.975  16.603  0.9770  0.1158 -0.7812
14679TIP3    H265529   3.151   1.966  16.662  1.1223 -0.0346 -1.1434
14680TIP3   OH265530   6.342   5.398   1.176 -0.2055  0.2588  0.1732
14680TIP3    H165531   6.381   5.338   1.113  0.9726 -0.4373  1.5046
14680TIP3    H265532   6.415   5.429   1.229 -1.1232  0.9454  1.0861
14681TIP3   OH265533   2.183   4.048  11.083  0.1840 -0.0962  0.1520
14681TIP3    H165534   2.240   4.031  11.158  0.8384 -1.1946 -0.5513
14681TIP3    H265535   2.114   3.982  11.090  0.0796 -0.0087 -0.0518
14682TIP3   OH265536   4.041   5.549   5.584  0.3419  0.6924  0.6866
14682TIP3    H165537   3.968   5.493   5.611  1.2467 -0.3952  0.9412
14682TIP3    H265538   4.014   5.586   5.500  1.0023 -2.6941 -1.1785
14683TIP3   OH265539   3.186   4.381  12.850 -0.3872 -0.1055 -0.0689
14683TIP3    H165540   3.103   4.369  12.897 -1.0335 -1.4989 -1.4855
14683TIP3    H265541   3.161   4.386  12.758  1.1302 -0.8324 -0.5561
14684TIP3   OH265542   0.376   2.127   4.821  0.7810 -0.0547  0.0768
14684TIP3    H165543   0.441   2.104   4.887  0.9444 -0.5694 -0.2605
14684TIP3    H265544   0.296   2.141   4.871  1.5482  2.5177  0.7466
14685TIP3   OH265545   3.082   4.871   0.377  0.0849 -0.2107 -0.1040
14685TIP3    H165546   3.046   4.914   0.456  0.6299  0.3190 -0.1334
14685TIP3    H265547   3.010   4.818   0.344  0.0986 -1.1212  1.2321
14686TIP3   OH265548   6.847   4.422  13.796 -0.5251 -0.4186 -0.2065
14686TIP3    H165549   6.832   4.457  13.708 -0.0733 -1.4809 -0.7309
14686TIP3    H265550   6.772   4.364  13.812 -0.6685 -0.1311  0.1550
14687TIP3   OH265551   4.209   0.356   1.774  0.2962  0.7200  0.5953
14687TIP3    H165552   4.196   0.324   1.685 -1.9125 -1.0413  1.4692
14687TIP3    H265553   4.275   0.296   1.811 -0.7052 -0.2200  0.9095
14688TIP3   OH265554   2.511   3.643  14.926 -0.2781  0.0540  0.0058
14688TIP3    H165555   2.577   3.629  14.858  0.4236  0.0249  0.6737
14688TIP3    H265556   2.513   3.561  14.977  0.3551  0.6735  1.0111
14689TIP3   OH265557   5.788   5.239  13.852  0.1825 -0.5567 -0.0035
14689TIP3    H165558   5.809   5.288  13.772  0.5177  1.5063  1.2918
14689TIP3    H265559   5.703   5.272  13.879  0.5586 -0.4441  1.0801
14690TIP3   OH265560   2.222   1.899   5.955  0.1819 -0.0003  0.3115
14690TIP3    H165561   2.314   1.879   5.973  0.2157  0.6905  0.9564
14690TIP3    H265562   2.183   1.914   6.041 -0.5425 -0.2812  0.0460
14691TIP3   OH265563   1.173   0.117  15.342 -0.6042 -0.5281 -0.0515
14691TIP3    H165564   1.197   0.182  15.276 -0.2557 -0.0507  0.5332
14691TIP3    H265565   1.089   0.147  15.377 -1.0218 -1.0358 -0.5953
14692TIP3   OH265566   1.559   4.256  11.950 -0.4886  0.1353  0.2881
14692TIP3    H165567   1.469   4.287  11.954 -0.7875 -0.7788  2.0347
14692TIP3    H265568   1.612   4.336  11.943 -1.3939  0.7463  0.2667
14693TIP3   OH265569   2.640   1.065  13.624 -0.0904  0.2629 -0.1800
14693TIP3    H165570   2.732   1.092  13.623 -0.3912  1.5487  1.7070
14693TIP3    H265571   2.643   0.969  13.622  1.3770  0.2269  1.4531
14694TIP3   OH265572   5.402   6.266   3.238 -0.5459  0.0876  0.7259
14694TIP3    H165573   5.354   6.195   3.279  0.8463 -1.0622  0.4512
14694TIP3    H265574   5.446   6.225   3.163 -1.3036  1.6755 -0.6444
14695TIP3   OH265575   4.126   3.640   5.452 -0.9132  0.3186 -0.5564
14695TIP3    H165576   4.168   3.555   5.439 -2.0800 -0.3464 -0.1721
14695TIP3    H265577   4.130   3.654   5.547 -1.1888  0.4503 -0.5642
14696TIP3   OH265578   4.840   1.170  11.586 -0.4829  0.9256  0.2356
14696TIP3    H165579   4.870   1.210  11.505 -0.0290  0.6773  0.2753
14696TIP3    H265580   4.879   1.083  11.585 -1.7502  0.3513 -0.0157
14697TIP3   OH265581   0.432   0.285   1.150 -0.2375 -0.0234 -0.1452
14697TIP3    H165582   0.519   0.311   1.182 -0.8148  1.2146  0.4635
14697TIP3    H265583   0.380   0.271   1.229 -0.7953 -0.0693 -0.5130
14698TIP3   OH265584   0.823   6.128  12.324  0.1348 -0.0373  0.1440
14698TIP3    H165585   0.810   6.214  12.363 -0.7595  0.0350 -0.2872
14698TIP3    H265586   0.770   6.069  12.378  1.4058 -0.4712  0.9528
14699TIP3   OH265587   2.000   0.531  13.012  0.3780 -0.2790  0.1577
14699TIP3    H165588   2.086   0.492  13.000  0.6253 -0.3934  1.9825
14699TIP3    H265589   1.946   0.493  12.943  1.4192 -1.3594 -0.0896
14700TIP3   OH265590   3.636   5.221   3.907  0.5594 -0.4762 -0.6157
14700TIP3    H165591   3.702   5.228   3.839  2.5021 -1.2646  1.0934
14700TIP3    H265592   3.640   5.130   3.936 -1.5565 -0.6434 -0.6768
14701TIP3   OH265593   3.705   5.832  11.249 -0.6605  0.2570  0.2801
14701TIP3    H165594   3.646   5.890  11.298  1.3540  1.2952  1.5912
14701TIP3    H265595   3.713   5.754  11.303 -1.7622 -0.4261 -0.5038
14702TIP3   OH265596   5.911   3.972  10.652  0.3419 -0.0947  0.3245
14702TIP3    H165597   5.916   3.889  10.701  0.0891  0.6124  1.5993
14702TIP3    H265598   5.957   4.035  10.708  0.3913  0.6638 -0.5522
14703TIP3   OH265599   5.284   1.116  10.492 -0.0667 -0.1155 -0.0937
14703TIP3    H165600   5.229   1.130  10.414 -0.8486  0.6204  0.5645
14703TIP3    H265601   5.223   1.120  10.565  0.7173 -0.4246  0.5896
14704TIP3   OH265602   2.406   2.778  14.106  0.0773  0.1193 -0.1834
14704TIP3    H165603   2.405   2.689  14.140  0.0901  0.1855 -0.0085
14704TIP3    H265604   2.449   2.771  14.021 -0.2226 -0.0946 -0.3195
14705TIP3   OH265605   2.748   5.132  15.180  0.0880 -0.2397 -0.1747
14705TIP3    H165606   2.824   5.077  15.158 -0.4486 -2.7330  3.2278
14705TIP3    H265607   2.673   5.074  15.167 -0.5384 -0.3896  3.1281
14706TIP3   OH265608   1.147   1.219  11.924  0.2986 -0.1131  0.2788
14706TIP3    H165609   1.228   1.263  11.950  0.2235 -0.6117  1.3967
14706TIP3    H265610   1.077   1.273  11.960  0.0363  1.0814 -1.8456
14707TIP3   OH265611   2.155   0.701  15.923  0.0194 -0.0327  0.1757
14707TIP3    H165612   2.198   0.695  16.009  0.9021  1.0170 -0.1634
14707TIP3    H265613   2.095   0.775  15.932  0.0336  0.0099 -0.0799
14708TIP3   OH265614   6.836   4.094  15.336 -0.3083  0.0993  0.4253
14708TIP3    H165615   6.794   4.088  15.251 -1.2972  2.7236  0.6533
14708TIP3    H265616   6.878   4.008  15.348 -0.1932 -0.3756 -2.6224
14709TIP3   OH265617   6.544   1.242  12.014  0.9924  0.5608 -0.1075
14709TIP3    H165618   6.607   1.211  11.949  0.6800  0.4784 -0.3740
14709TIP3    H265619   6.471   1.180  12.009  0.6886  0.9141 -0.1214
14710TIP3   OH265620   2.984   4.422   3.512 -0.5790  0.0767 -0.1320
14710TIP3    H165621   2.945   4.334   3.511 -1.1971  0.3441  0.1429
14710TIP3    H265622   2.948   4.465   3.435 -1.5917  0.6480  0.6473
14711TIP3   OH265623   6.034   4.716  12.176 -0.3829  0.4615 -0.1059
14711TIP3    H165624   5.972   4.769  12.225 -0.1799  0.6274 -0.0248
14711TIP3    H265625   6.107   4.776  12.157  1.0174 -0.4145  2.1586
14712TIP3   OH265626   2.818   6.010   4.805  0.2309 -0.0988 -0.2258
14712TIP3    H165627   2.876   6.085   4.793  0.5511 -0.2554  0.3425
14712TIP3    H265628   2.825   5.988   4.898 -2.0380  0.9612  0.2700
14713TIP3   OH265629   0.923   1.462   0.553  0.2094 -0.1296  0.1808
14713TIP3    H165630   0.847   1.465   0.611 -0.7032 -0.4923 -0.9600
14713TIP3    H265631   0.903   1.525   0.483  1.6026  0.8185  0.6046
14714TIP3   OH265632   1.610   3.293   2.939 -0.1044 -0.1547 -0.0425
14714TIP3    H165633   1.570   3.272   3.024 -2.4648 -0.1312 -1.0729
14714TIP3    H265634   1.585   3.220   2.882  1.7061 -0.3223 -0.6901
14715TIP3   OH265635   0.764   4.484   1.157  0.0987 -0.0276  0.0408
14715TIP3    H165636   0.750   4.400   1.201  1.5774 -0.0390  0.5406
14715TIP3    H265637   0.814   4.536   1.220 -0.7051  1.2089 -0.3085
14716TIP3   OH265638   5.746   5.445   0.789 -0.6117 -0.4078  0.0104
14716TIP3    H165639   5.718   5.464   0.878  0.4842 -0.0028  0.2854
14716TIP3    H265640   5.841   5.460   0.790 -0.8744  2.0079 -1.8010
14717TIP3   OH265641   2.783   1.849   2.971  0.4096  0.4315  0.2038
14717TIP3    H165642   2.767   1.934   2.932  1.9133  0.7514  0.2159
14717TIP3    H265643   2.719   1.842   3.042  0.5175  1.7217  0.4475
14718TIP3   OH265644   2.953   0.859   5.847  0.6194 -0.0493 -0.4780
14718TIP3    H165645   3.045   0.874   5.825  0.6823 -2.1789 -1.9101
14718TIP3    H265646   2.955   0.817   5.932  0.8706  0.8093 -0.0412
14719TIP3   OH265647   1.514   6.079  14.131  0.3110  0.0402 -0.4590
14719TIP3    H165648   1.549   6.148  14.075 -0.4659  1.3221  0.5695
14719TIP3    H265649   1.424   6.107  14.149 -0.0846 -1.3552 -0.1692
14720TIP3   OH265650   2.803   3.815   3.228 -0.1614 -0.5082  0.6861
14720TIP3    H165651   2.815   3.721   3.242 -1.0398 -0.6708  0.4392
14720TIP3    H265652   2.760   3.820   3.142  1.7475  0.2418 -0.2887
14721TIP3   OH265653   4.469   2.668  13.271  0.1072 -0.1468  0.0638
14721TIP3    H165654   4.546   2.612  13.284  2.0624  2.2427 -0.3729
14721TIP3    H265655   4.398   2.607  13.252  1.5798 -2.5511  1.7181
14722TIP3   OH265656   2.894   3.408  16.621 -0.2231 -0.2365  0.0673
14722TIP3    H165657   2.886   3.313  16.629  0.3334 -0.1456  3.9847
14722TIP3    H265658   2.808   3.442  16.647 -0.3479  0.3779 -1.0724
14723TIP3   OH265659   1.454   5.343  14.004  0.8412  0.3340  0.0946
14723TIP3    H165660   1.397   5.420  14.003  0.8588  0.4369  2.2909
14723TIP3    H265661   1.402   5.274  13.962 -0.2303  0.8774  0.4826
14724TIP3   OH265662   2.773   5.111  11.432  0.0621 -0.4238  0.4162
14724TIP3    H165663   2.866   5.128  11.447  0.6036 -3.9301  2.3046
14724TIP3    H265664   2.732   5.125  11.518 -1.1103  0.6540 -0.2890
14725TIP3   OH265665   5.388   3.974   0.501  0.0375 -0.1620  0.0186
14725TIP3    H165666   5.392   4.033   0.426 -1.4040 -1.3181 -1.0345
14725TIP3    H265667   5.301   3.933   0.494  1.3508 -3.2046  0.0084
14726TIP3   OH265668   2.863   1.910   5.720  0.5013 -0.3423  0.2381
14726TIP3    H165669   2.775   1.886   5.692  0.2722 -1.5155  1.8212
14726TIP3    H265670   2.852   1.939   5.811  1.9008 -1.7611  0.9055
14727TIP3   OH265671   1.594   3.168  11.475 -0.4483  0.3123 -0.4380
14727TIP3    H165672   1.533   3.126  11.415  0.3121 -0.2732 -0.8293
14727TIP3    H265673   1.641   3.095  11.517  1.9164  0.6921 -2.1893
14728TIP3   OH265674   0.133   6.230   1.406  0.1748  0.1946 -0.1656
14728TIP3    H165675   0.058   6.233   1.465 -1.3447  0.7351 -2.0281
14728TIP3    H265676   0.149   6.137   1.393  0.9132  0.0507  1.4862
14729TIP3   OH265677   5.690   5.016   5.637  0.3216 -0.0147 -0.1203
14729TIP3    H165678   5.756   4.960   5.677  0.6346  0.5374  0.1508
14729TIP3    H265679   5.724   5.037   5.551  0.4876  0.2441  0.0073
14730TIP3   OH265680   0.284   3.563  17.106  0.1627  0.3462 -0.3174
14730TIP3    H165681   0.347   3.521  17.047 -0.0884 -0.6684  0.1011
14730TIP3    H265682   0.208   3.581  17.051 -0.0710 -0.5938 -0.3208
14731TIP3   OH265683   0.427   3.279  14.806  0.2684  1.0296 -0.2995
14731TIP3    H165684   0.498   3.337  14.778  0.7822  1.6825  2.0996
14731TIP3    H265685   0.453   3.192  14.775  1.8476  1.3409  0.0492
14732TIP3   OH265686   6.691   4.363   3.723 -0.5959 -0.3010 -0.0118
14732TIP3    H165687   6.753   4.296   3.750  1.0853  0.6695 -1.2502
14732TIP3    H265688   6.672   4.412   3.803 -1.5930 -2.0049  0.8329
14733TIP3   OH265689   1.353   2.690  13.678 -0.0430 -0.5358 -0.0613
14733TIP3    H165690   1.365   2.617  13.738 -0.7759  0.6756  1.6414
14733TIP3    H265691   1.269   2.672  13.635 -0.1447 -0.7646  0.2348
14734TIP3   OH265692   4.307   5.345   4.679  0.5899  0.2783  0.3413
14734TIP3    H165693   4.255   5.299   4.612  0.9968  3.0209 -2.0490
14734TIP3    H265694   4.242   5.387   4.735  0.2458 -0.8719  0.8268
14735TIP3   OH265695   0.952   0.131  15.072 -0.3361  0.6072  0.4200
14735TIP3    H165696   0.947   0.110  15.165  1.2397 -1.2614  0.1480
14735TIP3    H265697   0.912   0.055  15.029  1.0118  0.3828 -0.4767
14736TIP3   OH265698   5.608   4.133  12.838 -0.0973 -0.2729  0.2851
14736TIP3    H165699   5.564   4.213  12.868 -0.1566 -0.1100 -0.2401
14736TIP3    H265700   5.563   4.110  12.757 -0.3043 -1.0259  0.6020
14737TIP3   OH265701   3.741   4.626  13.687 -0.1795  0.4546  0.3163
14737TIP3    H165702   3.698   4.711  13.683 -0.9938  0.0502  0.1623
14737TIP3    H265703   3.797   4.630  13.764 -2.2148  0.2302  1.8958
14738TIP3   OH265704   1.783   6.782  14.257  0.2218 -0.6922  0.3169
14738TIP3    H165705   1.727   6.856  14.234  1.3070  0.7665  2.0856
14738TIP3    H265706   1.844   6.774  14.183  0.1809  0.2932  0.1617
14739TIP3   OH265707   1.148   2.845  16.005 -0.1606  0.2281  0.1331
14739TIP3    H165708   1.121   2.897  15.930  0.7519  0.6155  0.0556
14739TIP3    H265709   1.238   2.820  15.986  0.4838  1.2754  1.5938
14740TIP3   OH265710   3.724   0.595  16.395  0.4772  1.0739  0.1261
14740TIP3    H165711   3.746   0.659  16.328  1.4329 -1.1693 -1.8453
14740TIP3    H265712   3.772   0.624  16.473  1.2207  2.4800 -0.8233
14741TIP3   OH265713   2.323   6.845   2.193  0.5548  0.1361  0.3231
14741TIP3    H165714   2.387   6.850   2.122  1.4951 -0.3862  1.1086
14741TIP3    H265715   2.318   6.752   2.215 -0.9888  0.0849 -0.1677
14742TIP3   OH265716   1.550   3.931  16.843  0.1395  0.5068 -0.0479
14742TIP3    H165717   1.562   3.958  16.752 -1.9669  2.9087  0.2712
14742TIP3    H265718   1.513   3.843  16.837  0.1685  0.5687 -1.4872
14743TIP3   OH265719   1.037   4.288  13.499  0.2067  0.3422 -0.1035
14743TIP3    H165720   1.045   4.381  13.478  0.9771  0.1869 -0.5345
14743TIP3    H265721   0.953   4.261  13.460  0.3593  0.6752 -0.6748
14744TIP3   OH265722   5.830   4.858   0.179 -0.2019 -0.1004  0.3591
14744TIP3    H165723   5.801   4.909   0.103 -0.3285  0.7440  0.9559
14744TIP3    H265724   5.918   4.893   0.198  0.0532 -0.6872  0.2746
14745TIP3   OH265725   0.734   0.274  12.274 -0.4736 -0.1606  0.3107
14745TIP3    H165726   0.817   0.308  12.308  0.3139 -0.8948 -0.8091
14745TIP3    H265727   0.729   0.185  12.309  0.5763 -1.0987 -1.7541
14746TIP3   OH265728   0.777   3.800  10.410 -0.2174  0.0687  0.0748
14746TIP3    H165729   0.729   3.793  10.328  1.0912 -1.3532 -0.6379
14746TIP3    H265730   0.731   3.741  10.470  0.6499 -1.4361 -0.6619
14747TIP3   OH265731   6.253   0.123   5.725 -0.0457 -0.1583  0.3500
14747TIP3    H165732   6.163   0.132   5.754 -0.9238  0.3181 -2.2437
14747TIP3    H265733   6.267   0.028   5.719 -0.4697 -0.2346  0.5221
14748TIP3   OH265734   0.478   2.690  11.665  0.6096 -0.1992  0.0641
14748TIP3    H165735   0.515   2.776  11.681  2.0653 -0.5070 -1.3835
14748TIP3    H265736   0.552   2.630  11.673 -0.2896 -1.2842  0.5911
14749TIP3   OH265737   5.846   1.742   3.987 -0.0042  0.6800 -0.3116
14749TIP3    H165738   5.752   1.763   3.988 -0.7048 -1.8563  2.3066
14749TIP3    H265739   5.876   1.765   4.075  1.6489  0.5887 -0.8168
14750TIP3   OH265740   5.438   0.198  14.549  0.0510 -0.1221 -0.2841
14750TIP3    H165741   5.351   0.184  14.587  0.5292 -1.5690  0.3028
14750TIP3    H265742   5.467   0.282  14.585 -1.1038  0.4063 -0.5296
14751TIP3   OH265743   5.621   0.602   0.158  0.2742 -0.3126 -0.0265
14751TIP3    H165744   5.586   0.661   0.225 -1.6452 -2.6249  1.1727
14751TIP3    H265745   5.695   0.560   0.200  0.7753  0.1945 -0.3842
14752TIP3   OH265746   3.121   0.399   0.822 -0.5316  0.1169  0.2261
14752TIP3    H165747   3.190   0.352   0.869 -0.3866  0.5879  0.4913
14752TIP3    H265748   3.131   0.372   0.731  1.1466  1.5105 -0.0586
14753TIP3   OH265749   1.830   1.793   1.100 -0.3770  0.4998 -0.7190
14753TIP3    H165750   1.765   1.766   1.165 -0.3121  0.0551 -0.8376
14753TIP3    H265751   1.799   1.879   1.071  0.2866  1.3098  0.8258
14754TIP3   OH265752   5.849   5.692   4.336  0.1708  0.3032  0.0919
14754TIP3    H165753   5.938   5.658   4.346 -0.0285 -0.0171  0.8957
14754TIP3    H265754   5.856   5.759   4.268  1.0338  0.2973  0.1648
14755TIP3   OH265755   2.904   3.316  15.771  0.1297 -0.0001 -0.6472
14755TIP3    H165756   2.960   3.274  15.706 -0.1365 -1.1649 -0.1514
14755TIP3    H265757   2.883   3.247  15.834 -2.2158  0.2630 -1.0382
14756TIP3   OH265758   5.215   4.058   3.575  0.0440  0.1170 -0.2629
14756TIP3    H165759   5.166   4.113   3.514 -0.7997 -1.0210 -0.6258
14756TIP3    H265760   5.156   3.987   3.597  0.3759  0.4062  1.7761
14757TIP3   OH265761   4.901   0.239   3.438  0.0087  0.5096 -0.6010
14757TIP3    H165762   4.961   0.165   3.438 -0.9697 -0.3162  0.1825
14757TIP3    H265763   4.948   0.308   3.390  0.7235 -0.7785 -1.8414
14758TIP3   OH265764   0.310   4.054   2.835  0.0332  0.7915  0.4458
14758TIP3    H165765   0.308   4.009   2.919  1.0509  2.0365  1.1769
14758TIP3    H265766   0.223   4.093   2.827 -0.5056 -0.3866  0.2842
14759TIP3   OH265767   3.969   5.445  12.254 -0.3923 -0.1231 -0.4273
14759TIP3    H165768   4.060   5.458  12.227 -0.3458  1.0759  0.2305
14759TIP3    H265769   3.924   5.418  12.174  0.4036 -0.0573 -0.9139
14760TIP3   OH265770   3.851   4.081   2.285  0.2578 -0.0192 -0.4841
14760TIP3    H165771   3.775   4.032   2.252 -1.2514  0.9637  1.2849
14760TIP3    H265772   3.860   4.154   2.225  0.6709 -0.8539 -1.4643
14761TIP3   OH265773   0.433   6.311  15.787  0.2165  0.7994  0.3948
14761TIP3    H165774   0.404   6.290  15.698  1.5028  0.8869 -0.0615
14761TIP3    H265775   0.445   6.225  15.828 -1.9778  0.7476  1.0664
14762TIP3   OH265776   2.645   2.182  16.641  0.3859 -0.6434  0.3829
14762TIP3    H165777   2.676   2.133  16.717  0.6630  1.1688  1.4994
14762TIP3    H265778   2.710   2.251  16.629 -0.0563 -0.4359 -1.0514
14763TIP3   OH265779   4.961   6.025  16.581 -0.0356  0.2427  0.2663
14763TIP3    H165780   4.939   6.092  16.516  0.7359 -0.8655 -1.1842
14763TIP3    H265781   4.933   6.063  16.664  0.5910  2.4705 -0.4705
14764TIP3   OH265782   1.192   4.712  14.752 -0.1688  0.4255  0.2123
14764TIP3    H165783   1.147   4.755  14.680 -0.0331  0.6588  0.2670
14764TIP3    H265784   1.284   4.708  14.724 -0.1713  0.2256  0.2327
14765TIP3   OH265785   2.218   3.507   1.935 -0.4275  0.3808  0.1716
14765TIP3    H165786   2.164   3.484   1.859 -1.5021 -2.2384  1.6058
14765TIP3    H265787   2.277   3.576   1.902  0.0206 -1.4461 -3.3802
14766TIP3   OH265788   0.627   2.121   4.504 -0.1741 -0.2333  0.5539
14766TIP3    H165789   0.556   2.061   4.480 -0.0981 -0.1486  0.1159
14766TIP3    H265790   0.645   2.170   4.424 -0.3656  0.5111  0.9584
14767TIP3   OH265791   5.468   4.896  15.600 -0.0232  0.3325  0.0523
14767TIP3    H165792   5.496   4.946  15.676  1.3752  0.7230 -0.6907
14767TIP3    H265793   5.547   4.851  15.569  0.5493  3.2716 -3.4875
14768TIP3   OH265794   5.112   4.485  12.824  0.0081  0.3885 -0.5838
14768TIP3    H165795   5.021   4.508  12.845 -0.4577  0.5496 -2.5372
14768TIP3    H265796   5.152   4.464  12.908 -1.7614  0.5862  0.3542
14769TIP3   OH265797   1.957   2.781  16.793  0.0566 -0.3897  0.6656
14769TIP3    H165798   1.977   2.777  16.887 -1.3203 -0.8711  0.9614
14769TIP3    H265799   1.876   2.831  16.788  0.1384 -0.3338 -0.2858
14770TIP3   OH265800   5.537   5.835  16.511  0.4633  0.1534 -0.1734
14770TIP3    H165801   5.517   5.747  16.481 -0.7430  0.4692 -0.3464
14770TIP3    H265802   5.532   5.830  16.607  0.9530 -0.0778 -0.1544
14771TIP3   OH265803   2.188   6.428  15.544 -0.5368  0.3725 -0.4855
14771TIP3    H165804   2.192   6.336  15.519 -1.2446  0.8725 -2.7241
14771TIP3    H265805   2.259   6.439  15.607 -0.9414 -1.8461  0.4406
14772TIP3   OH265806   5.260   6.762  12.256  0.0200 -0.6367 -0.0799
14772TIP3    H165807   5.236   6.739  12.346 -0.3050 -0.7354 -0.1901
14772TIP3    H265808   5.182   6.806  12.221  0.7210  0.9163  0.2306
14773TIP3   OH265809   1.813   1.563   0.292 -0.1888 -0.1779  0.2566
14773TIP3    H165810   1.832   1.497   0.359 -0.7932  0.6214  1.2384
14773TIP3    H265811   1.722   1.549   0.270  0.2279 -0.9687 -1.0179
14774TIP3   OH265812   6.783   3.250  14.011 -0.1940 -0.6331 -0.2215
14774TIP3    H165813   6.712   3.306  13.981  0.2025  0.6765  1.1346
14774TIP3    H265814   6.740   3.172  14.046 -1.0598  0.4070  1.1589
14775TIP3   OH265815   2.072   4.584  11.094 -0.3325 -0.3585 -0.1218
14775TIP3    H165816   1.999   4.634  11.058  0.8685  1.2098 -0.4939
14775TIP3    H265817   2.084   4.511  11.033  0.5498  1.2798 -2.0309
14776TIP3   OH265818   2.877   1.963  12.511 -0.7237 -0.5951  0.2619
14776TIP3    H165819   2.913   1.950  12.423  0.1733  2.3882  0.0726
14776TIP3    H265820   2.949   2.002  12.560 -1.1310 -2.4376  2.4555
14777TIP3   OH265821   5.338   2.240   0.607  0.6154  0.4945  0.2019
14777TIP3    H165822   5.366   2.251   0.516  0.0066  2.9110  0.2349
14777TIP3    H265823   5.410   2.193   0.650  1.6781  0.8657 -1.1302
14778TIP3   OH265824   5.089   2.804   2.712  0.6256 -0.5310  0.0589
14778TIP3    H165825   5.063   2.818   2.803 -1.3041 -0.5975 -0.4301
14778TIP3    H265826   5.109   2.710   2.707 -0.7543 -0.8543  0.1131
14779TIP3   OH265827   0.300   0.980   1.383 -0.0799  0.0697  0.3404
14779TIP3    H165828   0.300   1.055   1.442 -1.0655  0.9190 -0.6923
14779TIP3    H265829   0.254   1.011   1.305  2.1196 -0.6785 -1.3302
14780TIP3   OH265830   5.560   3.605   0.649  0.2081  0.4822  0.1950
14780TIP3    H165831   5.610   3.534   0.690 -1.8657  0.2918  2.7033
14780TIP3    H265832   5.582   3.599   0.556 -0.5890 -4.1642  0.0456
14781TIP3   OH265833   0.197   5.017  10.811 -0.2272  0.0236  0.0569
14781TIP3    H165834   0.208   5.046  10.720 -1.0608 -2.5364 -0.9693
14781TIP3    H265835   0.109   4.978  10.813  0.0967 -0.7146  1.7469
14782TIP3   OH265836   4.199   4.121  12.777 -0.3140  0.3263 -0.0001
14782TIP3    H165837   4.171   4.148  12.689  1.7564  1.6453 -0.3114
14782TIP3    H265838   4.183   4.198  12.832  1.1906  0.5921  0.1122
14783TIP3   OH265839   5.971   5.735  16.595  0.0072 -0.2118 -0.0911
14783TIP3    H165840   6.017   5.805  16.548  0.0449 -1.4264 -1.9909
14783TIP3    H265841   5.916   5.781  16.658 -0.7249  1.6350 -1.9360
14784TIP3   OH265842   2.252   2.200  15.323  0.8362 -0.9513  0.1088
14784TIP3    H165843   2.186   2.252  15.278  0.9376 -1.3181 -0.4667
14784TIP3    H265844   2.309   2.265  15.365  1.3185 -0.5646 -1.0955
14785TIP3   OH265845   0.978   0.566   4.799 -0.2299  0.4969  0.1472
14785TIP3    H165846   1.044   0.625   4.762  0.0604 -1.6000 -3.0167
14785TIP3    H265847   1.025   0.520   4.869  0.6764  1.3260  0.1103
14786TIP3   OH265848   1.773   1.897  11.582  0.2637 -0.0390  0.0752
14786TIP3    H165849   1.864   1.881  11.558  0.5080 -0.8178  1.4304
14786TIP3    H265850   1.757   1.839  11.656 -0.8243  1.3152  0.9415
14787TIP3   OH265851   0.079   3.919   3.739 -0.2479  0.2806  0.7737
14787TIP3    H165852   0.125   3.871   3.808  0.5599 -0.4683 -0.2456
14787TIP3    H265853   0.117   3.885   3.658 -2.5665 -0.3294 -0.1354
14788TIP3   OH265854   5.939   3.616   4.936 -0.7777 -0.2203  0.0933
14788TIP3    H165855   5.917   3.693   4.883 -0.5226  0.6762  1.2392
14788TIP3    H265856   5.855   3.573   4.952 -0.9732  0.0416 -0.2100
14789TIP3   OH265857   0.831   1.043  16.637  0.1034  0.1488  0.0888
14789TIP3    H165858   0.865   1.076  16.554  2.1517  0.7596  1.0986
14789TIP3    H265859   0.903   0.989  16.671  0.2755  1.7557  2.5017
14790TIP3   OH265860   1.579   3.962   6.193 -0.8890 -0.1990  0.0655
14790TIP3    H165861   1.603   3.878   6.154  0.0498  0.2814 -0.4271
14790TIP3    H265862   1.579   4.024   6.119  0.6883  0.6811  0.7296
14791TIP3   OH265863   2.577   0.073  11.293  0.1871 -0.6784 -0.4333
14791TIP3    H165864   2.560   0.071  11.199 -0.6181 -0.4350 -0.3050
14791TIP3    H265865   2.656   0.126  11.302 -1.3374  1.8531 -0.7996
14792TIP3   OH265866   6.777   5.899  15.470  0.2960  0.1618  0.1026
14792TIP3    H165867   6.717   5.914  15.397 -1.7538  1.0357  1.8674
14792TIP3    H265868   6.729   5.842  15.530  1.5387  0.2329  1.2262
14793TIP3   OH265869   1.931   5.385  12.626 -0.3520  0.2381 -0.5974
14793TIP3    H165870   1.992   5.319  12.659  1.3949  1.5070 -1.1744
14793TIP3    H265871   1.844   5.349  12.645  0.5481 -1.8681 -0.2284
14794TIP3   OH265872   0.916   6.213   2.219 -0.1633 -0.4921  0.5309
14794TIP3    H165873   0.986   6.198   2.156  0.8787 -1.4992  1.8686
14794TIP3    H265874   0.870   6.129   2.226 -0.7219 -0.1903  0.5837
14795TIP3   OH265875   2.153   5.880   2.662 -0.2750 -0.0530  0.3556
14795TIP3    H165876   2.219   5.812   2.674 -0.0871  0.0092 -0.2829
14795TIP3    H265877   2.183   5.929   2.585 -1.6302 -0.7033 -0.6345
14796TIP3   OH265878   1.612   6.037  11.522 -0.1754 -0.2868 -0.2957
14796TIP3    H165879   1.707   6.035  11.539 -0.3676  1.0193  1.1991
14796TIP3    H265880   1.605   6.038  11.427  1.1547 -3.9468 -0.5818
14797TIP3   OH265881   2.967   4.249   4.335  0.7087  0.0089  0.4535
14797TIP3    H165882   2.994   4.266   4.244 -0.9508  1.1267  0.1263
14797TIP3    H265883   2.954   4.336   4.372  0.3652 -0.4627  1.4602
14798TIP3   OH265884   6.276   4.166  12.585  0.4033 -0.2774 -0.2057
14798TIP3    H165885   6.198   4.195  12.537 -1.0569  0.2200  2.2873
14798TIP3    H265886   6.342   4.231  12.562 -0.7199  0.8776 -0.3362
14799TIP3   OH265887   3.609   3.572  12.436  1.2479  0.6741 -0.2766
14799TIP3    H165888   3.594   3.616  12.352 -2.5246  2.2224  1.0142
14799TIP3    H265889   3.527   3.527  12.455  3.2355 -2.7952  0.9627
14800TIP3   OH265890   5.709   4.711   3.665 -0.0815  0.4587 -0.6644
14800TIP3    H165891   5.640   4.766   3.626 -1.3508 -0.2312  0.4906
14800TIP3    H265892   5.680   4.700   3.756  0.0941 -2.1469 -0.8633
14801TIP3   OH265893   3.189   2.334   4.276  0.2878  0.7335  0.2902
14801TIP3    H165894   3.094   2.333   4.285  0.1607 -1.7076 -0.5385
14801TIP3    H265895   3.222   2.333   4.366 -0.5308 -0.5086  0.5981
14802TIP3   OH265896   4.278   2.757  12.398  0.4230  0.0303  0.5265
14802TIP3    H165897   4.210   2.763  12.330  0.9480  4.0042  0.1076
14802TIP3    H265898   4.358   2.739  12.350  0.3935  0.1641  0.4260
14803TIP3   OH265899   2.387   2.540   6.456 -0.2761  0.5203  0.1274
14803TIP3    H165900   2.301   2.560   6.419 -0.3688  1.0721  0.6424
14803TIP3    H265901   2.379   2.450   6.486 -0.4783  0.3603 -0.3808
14804TIP3   OH265902   1.881   6.076  11.573 -0.0492  0.0727  0.3027
14804TIP3    H165903   1.892   6.063  11.479 -1.8773  0.5297 -0.0103
14804TIP3    H265904   1.905   6.168  11.588  0.1309  0.0316  0.2697
14805TIP3   OH265905   5.111   6.461   5.244 -0.0517 -0.3297  0.0166
14805TIP3    H165906   5.137   6.375   5.212 -0.5695  0.2538 -2.1551
14805TIP3    H265907   5.141   6.464   5.334  1.4791 -2.1428 -0.3886
14806TIP3   OH265908   4.541   2.567  14.001  0.0653  0.3697 -0.1619
14806TIP3    H165909   4.458   2.519  14.000  0.7360 -0.8343 -0.8913
14806TIP3    H265910   4.537   2.621  14.080 -0.8923 -0.5997  0.4821
14807TIP3   OH265911   1.241   2.406  13.173  0.3130 -0.2679 -0.1481
14807TIP3    H165912   1.307   2.433  13.110 -0.2854  0.7676 -0.3480
14807TIP3    H265913   1.288   2.348  13.233  0.7765 -1.7052 -1.8147
14808TIP3   OH265914   2.668   3.557   4.809  0.2378  0.0657  0.1710
14808TIP3    H165915   2.659   3.649   4.784  0.5641  0.1784  0.4577
14808TIP3    H265916   2.762   3.545   4.823  0.3400 -0.6196 -1.0189
14809TIP3   OH265917   3.563   2.440  12.878 -0.2523 -0.0983 -0.0185
14809TIP3    H165918   3.597   2.526  12.852  0.4956 -0.2121  0.5354
14809TIP3    H265919   3.494   2.421  12.814 -0.3555  0.8626 -0.2122
14810TIP3   OH265920   5.916   4.465  15.424 -0.0755 -0.5652  0.2415
14810TIP3    H165921   5.867   4.488  15.503  1.6660  0.6991  1.0244
14810TIP3    H265922   5.941   4.549  15.386  0.0030 -1.1650 -1.1079
14811TIP3   OH265923   1.392   6.368  12.306  0.4614  0.3175  0.0669
14811TIP3    H165924   1.456   6.369  12.377  0.9122 -0.5229 -0.3150
14811TIP3    H265925   1.435   6.319  12.235  0.8314  2.8032 -1.5527
14812TIP3   OH265926   4.225   4.019  14.823  0.1758 -0.5823 -0.2720
14812TIP3    H165927   4.223   3.932  14.864 -2.2519 -0.5511 -0.1859
14812TIP3    H265928   4.173   4.009  14.743 -1.3634  1.0789  0.4464
14813TIP3   OH265929   0.148   2.868  16.361  0.5812  0.7187 -0.1530
14813TIP3    H165930   0.110   2.926  16.296 -0.2444  0.5893  0.2042
14813TIP3    H265931   0.236   2.851  16.329  0.4459  1.2662 -0.8384
14814TIP3   OH265932   2.047   5.844   5.748  0.4876  1.0173 -0.2030
14814TIP3    H165933   2.034   5.935   5.776  1.0585  1.1261 -0.2807
14814TIP3    H265934   2.068   5.850   5.655 -0.7030  0.7047 -0.5051
14815TIP3   OH265935   6.025   1.098   0.715 -0.2671  0.0083 -0.0089
14815TIP3    H165936   6.027   1.170   0.778 -0.3508 -1.8774  2.2660
14815TIP3    H265937   5.932   1.076   0.707 -0.6190  1.8670 -2.9508
14816TIP3   OH265938   5.622   5.348   0.382 -0.1562  0.1930 -0.1024
14816TIP3    H165939   5.701   5.316   0.427  0.0250  0.0097 -0.5480
14816TIP3    H265940   5.602   5.431   0.426  1.5146  1.3219 -1.3392
14817TIP3   OH265941   3.841   1.668  11.110 -0.1158 -0.2466 -0.2087
14817TIP3    H165942   3.915   1.674  11.169 -0.5826 -0.4265  0.4118
14817TIP3    H265943   3.853   1.739  11.047  0.8392 -0.5893 -0.4203
14818TIP3   OH265944   4.918   0.850  15.495 -0.0274 -0.3690  0.5802
14818TIP3    H165945   4.971   0.776  15.524  3.1422  1.8251  0.9054
14818TIP3    H265946   4.927   0.850  15.399  1.3770  0.4786  0.6867
14819TIP3   OH265947   3.625   0.795   2.062  0.4003  0.3156  0.1770
14819TIP3    H165948   3.666   0.709   2.047  0.6403  0.6299 -1.0510
14819TIP3    H265949   3.630   0.807   2.157  2.1884 -0.1634  0.1960
14820TIP3   OH265950   0.766   5.524  15.694  0.3011  0.1588 -0.1999
14820TIP3    H165951   0.768   5.606  15.645  1.6612  0.3040  0.0586
14820TIP3    H265952   0.801   5.546  15.780 -0.0855 -0.5257  0.1426
14821TIP3   OH265953   2.401   4.765  14.314 -0.5548  0.3885  0.0689
14821TIP3    H165954   2.356   4.739  14.233  1.6692 -0.9328 -0.8663
14821TIP3    H265955   2.455   4.840  14.288 -1.2821  1.2089  0.8653
14822TIP3   OH265956   1.019   2.514  16.825 -0.7523  0.0066  0.6282
14822TIP3    H165957   0.940   2.530  16.773 -1.5662 -2.6541  0.9013
14822TIP3    H265958   0.988   2.469  16.903  0.9857 -0.9381  0.8292
14823TIP3   OH265959   5.571   0.717   3.721 -0.1576 -0.2087  0.2200
14823TIP3    H165960   5.585   0.739   3.629  1.4487 -1.4163  0.1341
14823TIP3    H265961   5.482   0.683   3.725 -0.1136 -0.4867 -0.9617
14824TIP3   OH265962   2.082   2.869   4.879  0.0875  0.2569  0.1674
14824TIP3    H165963   2.118   2.813   4.949  0.2402  1.0163  0.7138
14824TIP3    H265964   1.991   2.883   4.904  0.1841  0.6581  0.3081
14825TIP3   OH265965   2.711   5.926  15.977  0.3816 -0.0317  0.0282
14825TIP3    H165966   2.692   5.930  16.070  1.9279  1.4835  0.3469
14825TIP3    H265967   2.727   5.833  15.959 -0.5851 -0.4211  1.1158
14826TIP3   OH265968   2.967   4.898   3.582 -0.2788 -0.1177  0.5806
14826TIP3    H165969   2.893   4.842   3.606  0.0379 -0.1837  1.4580
14826TIP3    H265970   2.940   4.941   3.501 -0.7864 -1.0494  0.2498
14827TIP3   OH265971   2.073   2.153  14.512 -0.1084  0.0199  0.0395
14827TIP3    H165972   1.999   2.136  14.454 -2.4915 -0.4833  2.9965
14827TIP3    H265973   2.088   2.247  14.505  0.5850 -0.1939 -2.2757
14828TIP3   OH265974   0.320   6.443  10.735 -0.2956  0.2059  0.4800
14828TIP3    H165975   0.341   6.360  10.777 -0.2295 -0.1375 -0.2190
14828TIP3    H265976   0.229   6.435  10.709 -0.0103 -0.0430 -0.4768
14829TIP3   OH265977   5.387   2.000  13.392 -0.1808 -0.2973 -0.6614
14829TIP3    H165978   5.445   2.003  13.316  2.7161 -1.4079  1.3305
14829TIP3    H265979   5.371   1.907  13.406  0.3516 -0.1918  0.7820
14830TIP3   OH265980   6.679   1.063  17.040  0.3273 -0.7883 -0.0311
14830TIP3    H165981   6.751   1.004  17.059  0.8084 -0.1466  0.1659
14830TIP3    H265982   6.719   1.137  16.994 -0.4890 -1.3239 -1.6954
14831TIP3   OH265983   1.579   3.014   1.487  0.3647  0.6299  0.2871
14831TIP3    H165984   1.673   3.025   1.473  0.1317  0.0008 -2.1722
14831TIP3    H265985   1.556   2.936   1.437 -1.7312  1.6306 -0.3959
14832TIP3   OH265986   1.440   3.814  16.093 -0.1530  0.4439 -0.2459
14832TIP3    H165987   1.495   3.803  16.015  1.3216 -1.8455  0.9638
14832TIP3    H265988   1.352   3.793  16.063  0.2283  0.5267 -1.5003
14833TIP3   OH265989   4.882   1.983   3.975 -0.2825  0.5126  0.2898
14833TIP3    H165990   4.865   2.062   3.923 -0.8320  0.9726  1.1454
14833TIP3    H265991   4.799   1.963   4.016 -0.1100 -0.4537  0.1918
14834TIP3   OH265992   0.946   4.779   4.070  0.1079  0.3448 -0.0930
14834TIP3    H165993   0.877   4.796   4.134  0.3726 -0.2764  0.3701
14834TIP3    H265994   0.906   4.797   3.985 -0.4887  0.4129  0.1989
14835TIP3   OH265995   5.046   3.420   0.738  0.1869 -0.6989 -0.5688
14835TIP3    H165996   5.137   3.448   0.749 -0.3097  0.7914 -0.0458
14835TIP3    H265997   5.053   3.329   0.709  1.8188 -0.9062  0.3336
14836TIP3   OH265998   1.757   4.158  10.607 -0.0574  0.5415 -0.6510
14836TIP3    H165999   1.772   4.091  10.541  1.9372 -1.0756  1.2998
14836TIP3    H266000   1.759   4.241  10.559 -1.4312 -0.6732 -2.9533
14837TIP3   OH266001   1.884   1.232  13.302  0.4662 -0.3539 -0.0444
14837TIP3    H166002   1.943   1.254  13.373 -1.8767 -1.9363  2.5786
14837TIP3    H266003   1.941   1.226  13.225  3.4776 -0.5397  2.0121
14838TIP3   OH266004   3.801   5.868   4.343 -0.0327 -0.0596  0.4168
14838TIP3    H166005   3.763   5.794   4.295 -0.2617  0.3242 -0.0015
14838TIP3    H266006   3.729   5.898   4.400 -0.8639  1.5506 -1.3819
14839TIP3   OH266007   3.694   0.066  12.802  0.7711  0.3222  0.2760
14839TIP3    H166008   3.746   0.146  12.795 -1.2259  1.7711  1.2419
14839TIP3    H266009   3.604   0.094  12.785  0.3794 -2.5095 -4.1366
14840TIP3   OH266010   3.320   5.571  15.110  0.2831 -0.0178 -0.6931
14840TIP3    H166011   3.385   5.568  15.181 -1.2812 -2.6930  0.7564
14840TIP3    H266012   3.338   5.494  15.057 -1.0678 -0.2552 -0.8448
14841TIP3   OH266013   4.895   4.685   1.212  0.2487  0.4258  0.2117
14841TIP3    H166014   4.979   4.686   1.166  0.0363  1.8551 -0.1938
14841TIP3    H266015   4.866   4.777   1.212 -0.5815  0.1970  1.6949
14842TIP3   OH266016   4.482   1.176   5.125 -0.5217  0.5829  0.0424
14842TIP3    H166017   4.492   1.255   5.072  0.1481 -1.0193 -2.4309
14842TIP3    H266018   4.430   1.117   5.070  1.2008 -1.6135  0.5876
14843TIP3   OH266019   2.781   6.387  14.733 -0.4975 -0.4540  0.0181
14843TIP3    H166020   2.790   6.480  14.715  1.2125 -0.5961 -0.0013
14843TIP3    H266021   2.799   6.379  14.827 -1.3774 -0.6814  0.1733
14844TIP3   OH266022   2.755   0.244   1.439 -0.3250 -0.2410 -0.0785
14844TIP3    H166023   2.719   0.282   1.518 -0.5773  1.4122 -0.9407
14844TIP3    H266024   2.847   0.269   1.440 -0.0178 -1.3259  0.3074
14845TIP3   OH266025   0.187   5.419  13.955  0.1865  0.0045  0.3478
14845TIP3    H166026   0.096   5.390  13.967  0.4071 -1.9893 -1.8894
14845TIP3    H266027   0.239   5.344  13.985  1.0203  0.3927 -0.1168
14846TIP3   OH266028   2.970   4.910   4.699 -0.3710 -0.3596 -0.1043
14846TIP3    H166029   3.041   4.857   4.665  0.1634  1.5270 -2.1959
14846TIP3    H266030   3.013   4.976   4.753 -0.4685  0.6886 -1.2446
14847TIP3   OH266031   0.171   4.368   5.873 -0.3270 -0.1595 -0.1968
14847TIP3    H166032   0.224   4.316   5.812 -1.6392 -1.7535 -0.0626
14847TIP3    H266033   0.184   4.459   5.846  0.9185 -0.6646 -1.3759
14848TIP3   OH266034   4.816   4.938  11.071 -0.5325 -0.6032  0.0583
14848TIP3    H166035   4.764   4.974  10.999  0.4794 -2.3473 -1.6293
14848TIP3    H266036   4.900   4.983  11.067 -0.9291  0.2882  1.0887
14849TIP3   OH266037   0.223   1.164  16.588 -0.5358  0.4114 -0.0643
14849TIP3    H166038   0.151   1.102  16.598 -0.2902  0.4348  2.5862
14849TIP3    H266039   0.301   1.109  16.587 -0.4331  0.5502  0.2087
14850TIP3   OH266040   1.314   4.696   6.284 -0.8057 -0.5360  0.3017
14850TIP3    H166041   1.324   4.760   6.355 -0.9330 -1.0990  0.8247
14850TIP3    H266042   1.309   4.750   6.205  1.5600  0.0417  0.4541
14851TIP3   OH266043   6.090   3.488   0.066  0.5374  0.5684  0.5949
14851TIP3    H166044   6.098   3.392   0.072  4.2807  0.2450 -3.8322
14851TIP3    H266045   6.129   3.520   0.147 -0.8274 -1.5893  2.2045
14852TIP3   OH266046   0.712   4.493   5.884 -0.4842 -0.2945  0.4625
14852TIP3    H166047   0.709   4.586   5.908  2.9798 -0.0300  0.4654
14852TIP3    H266048   0.721   4.447   5.968 -1.7600 -0.6459  0.4299
14853TIP3   OH266049   3.304   0.572   3.434  0.1281 -0.6055  0.0151
14853TIP3    H166050   3.397   0.564   3.452  0.4081 -1.7009 -1.6923
14853TIP3    H266051   3.299   0.621   3.353 -0.8071 -0.2999  0.2445
14854TIP3   OH266052   0.942   0.959   1.810  0.3058  0.4327  0.1644
14854TIP3    H166053   0.959   1.007   1.729  1.1671  0.0165  0.0977
14854TIP3    H266054   1.026   0.920   1.834  0.0371  0.4685  1.2088
14855TIP3   OH266055   2.346   5.003  13.982  0.4084  0.6967 -0.1926
14855TIP3    H166056   2.403   4.927  13.999 -1.4006 -0.3601  1.5439
14855TIP3    H266057   2.272   4.968  13.935  0.5530  1.8328 -1.3173
14856TIP3   OH266058   1.377   1.365  11.947  0.0594 -0.1487  0.0573
14856TIP3    H166059   1.395   1.459  11.948 -1.7573  0.2482 -0.7207
14856TIP3    H266060   1.462   1.324  11.927  0.6187  1.3936 -0.8834
14857TIP3   OH266061   4.996   6.309   0.864 -0.5480  0.4275 -0.1657
14857TIP3    H166062   5.049   6.379   0.828 -0.1252  2.8227  4.3755
14857TIP3    H266063   4.910   6.321   0.824 -0.4274  3.4971  0.2622
14858TIP3   OH266064   5.693   0.190  11.333 -0.2619 -0.1678  0.7599
14858TIP3    H166065   5.717   0.275  11.296  0.2476 -1.3819 -1.9455
14858TIP3    H266066   5.620   0.159  11.278  0.7212 -2.2079  0.5048
14859TIP3   OH266067   0.689   4.932  14.509  0.2299  0.3007  0.6564
14859TIP3    H166068   0.742   4.852  14.507 -0.5699 -0.2374  0.3602
14859TIP3    H266069   0.676   4.950  14.602 -0.0957 -0.2738  0.7319
14860TIP3   OH266070   1.731   2.849  10.763  0.2639 -0.1654  0.0906
14860TIP3    H166071   1.707   2.934  10.727  0.6803  0.2961  0.8824
14860TIP3    H266072   1.709   2.855  10.856  0.8385 -0.7154  0.2683
14861TIP3   OH266073   3.974   4.496  16.354 -0.3563  0.2992 -0.4332
14861TIP3    H166074   3.954   4.433  16.285 -0.5397 -2.5544  2.0022
14861TIP3    H266075   4.062   4.474  16.382 -0.7989  0.4170  1.1497
14862TIP3   OH266076   4.069   3.781   4.272 -0.2025 -0.7271 -0.0581
14862TIP3    H166077   4.102   3.828   4.348 -1.9255  2.4856 -1.1193
14862TIP3    H266078   4.137   3.793   4.205  0.3196 -1.6686  0.2825
14863TIP3   OH266079   0.541   3.969   3.260  0.0293 -0.1449  0.0965
14863TIP3    H166080   0.584   3.974   3.346  0.0727  0.3633  0.0490
14863TIP3    H266081   0.549   4.058   3.224 -1.5196  0.1030  0.2961
14864TIP3   OH266082   0.830   1.880  14.937  0.3255  0.1220 -0.3018
14864TIP3    H166083   0.814   1.970  14.964 -0.5780 -0.0079 -0.3987
14864TIP3    H266084   0.766   1.828  14.986  0.1257 -0.3476 -1.0446
14865TIP3   OH266085   0.541   1.635   4.107 -0.3445  0.4391 -0.4713
14865TIP3    H166086   0.574   1.682   4.183  0.3758  0.1275 -0.5860
14865TIP3    H266087   0.460   1.594   4.138 -0.0608  0.3155  0.1268
14866TIP3   OH266088   0.101   2.284   4.381 -0.0743  0.2679 -0.4568
14866TIP3    H166089   0.114   2.378   4.371 -0.7351  0.2370 -1.9071
14866TIP3    H266090   0.185   2.250   4.411  0.0628  1.3521  0.4587
14867TIP3   OH266091   6.250   0.386   5.628 -0.2157  0.1117 -0.5475
14867TIP3    H166092   6.299   0.450   5.679  0.0684  1.0521 -1.9511
14867TIP3    H266093   6.280   0.301   5.661  2.2751  0.6483 -1.2496
14868TIP3   OH266094   3.193   5.140  13.270 -0.1068  0.1823 -0.1011
14868TIP3    H166095   3.127   5.129  13.201  1.1896 -0.3073 -1.3278
14868TIP3    H266096   3.175   5.069  13.331  0.7853 -1.5656 -1.7434
14869TIP3   OH266097   0.521   3.626  13.634  0.1360  0.3895 -0.1104
14869TIP3    H166098   0.427   3.611  13.624 -0.0995  0.7875  1.2461
14869TIP3    H266099   0.546   3.573  13.710  0.7258  1.3025  0.3566
14870TIP3   OH266100   2.077   6.366   0.753 -0.2060 -0.2178  0.0444
14870TIP3    H166101   2.114   6.401   0.672 -2.0320  0.6655 -0.4726
14870TIP3    H266102   2.153   6.336   0.803  0.9526 -1.2935 -2.1900
14871TIP3   OH266103   4.909   0.199   4.717 -0.4118  0.2781  1.1783
14871TIP3    H166104   4.884   0.116   4.758 -0.9178  0.3375  0.9911
14871TIP3    H266105   4.828   0.233   4.679 -0.3341  1.1419  1.7487
14872TIP3   OH266106   1.569   6.425   0.778 -0.3831  0.1851 -0.0434
14872TIP3    H166107   1.571   6.507   0.827 -0.3455  0.3750 -0.3620
14872TIP3    H266108   1.656   6.418   0.739 -0.9125  0.8748 -1.4520
14873TIP3   OH266109   4.232   3.072  16.012 -0.5049 -0.4831 -0.0354
14873TIP3    H166110   4.322   3.067  16.043 -1.0412  1.3479  2.1372
14873TIP3    H266111   4.186   3.003  16.059 -0.6711  0.1609  0.7774
14874TIP3   OH266112   6.728   2.104   3.153  0.4038 -0.2701 -0.4453
14874TIP3    H166113   6.721   2.011   3.133 -1.3672 -0.2323 -0.1799
14874TIP3    H266114   6.811   2.131   3.115  0.5175 -1.7668 -1.3230
14875TIP3   OH266115   4.155   0.387  11.662  0.1200  0.2864 -0.2444
14875TIP3    H166116   4.153   0.482  11.660  0.3339  0.2971 -2.3347
14875TIP3    H266117   4.219   0.365  11.730  1.4406  1.6796 -0.9975
14876TIP3   OH266118   0.886   4.408  12.436 -0.4091  0.1989 -0.0753
14876TIP3    H166119   0.827   4.395  12.511 -0.5013 -0.4724 -0.2547
14876TIP3    H266120   0.852   4.348  12.369  2.6322 -3.1683  1.0512
14877TIP3   OH266121   3.982   5.236   2.629 -0.3079 -0.6656  0.1561
14877TIP3    H166122   3.979   5.255   2.535 -0.1644 -2.5995 -0.2864
14877TIP3    H266123   3.890   5.230   2.655 -0.3691  0.9282  0.4161
14878TIP3   OH266124   6.462   0.223  15.567 -0.1333 -0.5371  0.6055
14878TIP3    H166125   6.520   0.283  15.615 -0.8508  0.2425  0.5187
14878TIP3    H266126   6.382   0.221  15.618 -1.1258  0.7473 -0.7948
14879TIP3   OH266127   6.015   6.741  12.024  0.4129  0.2768  0.0848
14879TIP3    H166128   5.945   6.700  12.076 -0.4050 -0.1085 -1.2864
14879TIP3    H266129   6.073   6.669  12.002  0.9383  0.4964  0.7042
14880TIP3   OH266130   3.308   1.095  15.250 -0.2993 -0.0131  0.1345
14880TIP3    H166131   3.236   1.107  15.188  0.4507  0.2904 -0.7093
14880TIP3    H266132   3.304   1.172  15.307 -0.6289  0.0174  0.0701
14881TIP3   OH266133   1.098   6.408   1.754 -0.2795  0.4327 -0.2813
14881TIP3    H166134   1.177   6.461   1.742 -0.7403  1.0592 -0.6015
14881TIP3    H266135   1.081   6.370   1.668 -0.5651  0.6368 -0.3147
14882TIP3   OH266136   2.266   5.584  13.538 -0.2153 -0.0704  0.2608
14882TIP3    H166137   2.313   5.509  13.576  0.6018  0.5328  0.4673
14882TIP3    H266138   2.231   5.631  13.613 -1.9295 -0.9660  0.0882
14883TIP3   OH266139   3.903   5.693  11.033 -0.0935  0.9289 -0.3456
14883TIP3    H166140   3.994   5.714  11.053 -0.1818 -0.4215  1.7271
14883TIP3    H266141   3.852   5.734  11.103 -0.7027 -1.4791  0.7109
14884TIP3   OH266142   6.323   5.126   0.460  0.4871 -0.1438 -0.2498
14884TIP3    H166143   6.365   5.134   0.546 -0.3109 -1.0615  0.2450
14884TIP3    H266144   6.233   5.101   0.480 -0.4941  2.3167 -1.2651
14885TIP3   OH266145   1.714   2.480   2.051 -0.0418 -0.3117 -0.3830
14885TIP3    H166146   1.768   2.441   2.119  1.7625  0.0173 -1.5475
14885TIP3    H266147   1.632   2.430   2.053 -0.3135  0.0864  2.3743
14886TIP3   OH266148   6.283   1.974  15.513 -0.5818  0.1944  0.1116
14886TIP3    H166149   6.286   2.063  15.479  0.3215  0.4460  0.8001
14886TIP3    H266150   6.205   1.973  15.569  0.3644  1.1122  1.5167
14887TIP3   OH266151   1.210   1.533   6.841  1.0467 -0.3442 -0.0436
14887TIP3    H166152   1.298   1.521   6.806  1.3843  0.8219  0.3741
14887TIP3    H266153   1.193   1.627   6.831 -1.0280 -0.8380 -2.1901
14888TIP3   OH266154   3.655   0.074  16.536  0.1350 -0.2022  0.5479
14888TIP3    H166155   3.624  -0.012  16.565  0.1228 -0.3251  0.1654
14888TIP3    H266156   3.595   0.136  16.578 -2.6233 -0.5071 -2.5435
14889TIP3   OH266157   0.627   1.284  11.255  0.5445 -0.1371  0.3626
14889TIP3    H166158   0.668   1.337  11.323  3.7697 -0.5563 -1.0518
14889TIP3    H266159   0.694   1.218  11.232 -1.5112 -1.8312 -1.1891
14890TIP3   OH266160   4.349   1.526  10.941 -0.3095  0.3062  0.6008
14890TIP3    H166161   4.385   1.549  10.855  0.2647  2.7253  1.4060
14890TIP3    H266162   4.257   1.502  10.923  0.6228 -2.5411 -1.0280
14891TIP3   OH266163   4.982   2.930  16.857  0.6238  0.1397  0.4641
14891TIP3    H166164   5.033   3.011  16.850  1.1957 -0.2753 -0.2565
14891TIP3    H266165   4.988   2.906  16.949  1.1164  0.4876  0.5266
14892TIP3   OH266166   1.607   6.803  13.730  0.5082  0.1246  1.2849
14892TIP3    H166167   1.579   6.729  13.677  0.3905  0.8251  0.3500
14892TIP3    H266168   1.526   6.841  13.763  0.3842  1.2407 -0.1855
14893TIP3   OH266169   2.379   0.713   5.003  0.4325 -0.5803  0.2538
14893TIP3    H166170   2.365   0.758   4.919 -3.1767 -2.6293 -0.4946
14893TIP3    H266171   2.354   0.777   5.069  0.3259  0.1170 -0.4447
14894TIP3   OH266172   0.717   5.938   3.586 -0.1681 -0.1724  0.3481
14894TIP3    H166173   0.791   5.878   3.599  0.1841  0.2322  0.2435
14894TIP3    H266174   0.674   5.906   3.507  0.0382 -0.2660  0.2722
14895TIP3   OH266175   0.492   0.312  11.503  0.3508 -0.0696  0.3348
14895TIP3    H166176   0.462   0.403  11.510 -0.0874 -0.3054  1.9752
14895TIP3    H266177   0.411   0.261  11.506  0.6613 -0.5496  0.6522
14896TIP3   OH266178   3.665   2.387   1.223  0.1470  0.0771 -0.0338
14896TIP3    H166179   3.728   2.337   1.170 -0.9374  0.1586 -1.4898
14896TIP3    H266180   3.689   2.368   1.313 -0.5183 -3.5871 -0.4577
14897TIP3   OH266181   4.332   5.794  16.716 -0.3678 -0.3011 -0.1159
14897TIP3    H166182   4.324   5.707  16.676  0.2479 -0.9426  1.0819
14897TIP3    H266183   4.319   5.855  16.644  1.4311 -1.4108 -1.4709
14898TIP3   OH266184   0.103   1.578  10.912  0.2405  0.3772  0.2535
14898TIP3    H166185   0.116   1.622  10.996  0.4807 -0.1578  0.5040
14898TIP3    H266186   0.171   1.510  10.910 -0.4361 -0.3163  0.1099
14899TIP3   OH266187   5.225   5.630  11.748  0.2216 -0.6751  0.4004
14899TIP3    H166188   5.232   5.610  11.655 -1.7391  1.4396 -0.3253
14899TIP3    H266189   5.289   5.700  11.762  0.5543 -1.0300  0.6579
14900TIP3   OH266190   4.546   5.680   3.080 -0.2325  0.4633 -0.2458
14900TIP3    H166191   4.475   5.676   3.144  1.4292  1.8343  1.8141
14900TIP3    H266192   4.597   5.601   3.095  1.5912  1.9512  2.0372
14901TIP3   OH266193   0.810   0.874   2.029  0.0244 -0.1514  0.0188
14901TIP3    H166194   0.847   0.917   1.952 -0.8763 -1.1151 -0.9988
14901TIP3    H266195   0.716   0.888   2.022 -0.0763 -0.2791  0.9356
14902TIP3   OH266196   0.154   5.790  14.943 -0.0831 -0.5701 -0.6787
14902TIP3    H166197   0.191   5.797  15.031  0.3498 -0.7649 -0.8445
14902TIP3    H266198   0.077   5.847  14.946  0.0475 -0.4074 -0.2366
14903TIP3   OH266199   2.720   0.602  11.556  0.1549 -0.4217  0.0844
14903TIP3    H166200   2.660   0.606  11.630 -1.1951 -0.5150 -0.9671
14903TIP3    H266201   2.664   0.615  11.479  1.3377 -1.4496 -0.9958
14904TIP3   OH266202   4.412   2.742   1.477 -0.0378 -0.3769 -0.4842
14904TIP3    H166203   4.501   2.710   1.489 -0.0020  0.4628  1.9083
14904TIP3    H266204   4.414   2.832   1.508 -1.6537 -0.2079 -0.7507
14905TIP3   OH266205   2.718   3.582  14.760  0.1656 -0.2732  0.0205
14905TIP3    H166206   2.780   3.644  14.722 -0.8096 -0.8344 -2.6750
14905TIP3    H266207   2.774   3.512  14.795  1.1594  0.9598  0.9827
14906TIP3   OH266208   6.618   0.566  11.908 -0.7089 -0.1214 -0.2521
14906TIP3    H166209   6.602   0.587  11.816 -1.2547 -0.4780 -0.2443
14906TIP3    H266210   6.695   0.509  11.907  0.6090  1.5793 -0.2955
14907TIP3   OH266211   3.973   3.849  14.494 -0.0528 -0.6564 -0.1666
14907TIP3    H166212   3.972   3.939  14.462  0.0545 -0.0941  1.3435
14907TIP3    H266213   3.922   3.800  14.429 -0.9060  0.6548 -0.5298
14908TIP3   OH266214   1.617   2.765   2.509  1.0057  0.0170  0.1407
14908TIP3    H166215   1.696   2.798   2.553  1.8921 -2.0655  0.2203
14908TIP3    H266216   1.556   2.747   2.581 -0.9514  4.5975 -0.0295
14909TIP3   OH266217   1.562   3.584  11.752  0.4568  0.1361 -0.3062
14909TIP3    H166218   1.479   3.542  11.727  0.8409 -0.1566 -1.1254
14909TIP3    H266219   1.626   3.513  11.752  0.8619  0.4949 -0.4380
14910TIP3   OH266220   1.112   3.492  16.862 -0.1798 -0.6697 -0.7416
14910TIP3    H166221   1.063   3.455  16.788  0.9064  2.8344 -3.5293
14910TIP3    H266222   1.192   3.441  16.866 -0.5403 -1.3213 -1.6029
14911TIP3   OH266223   2.659   4.877  16.215  0.5625 -0.1766  0.0807
14911TIP3    H166224   2.573   4.905  16.184  0.6716 -0.5695 -0.6026
14911TIP3    H266225   2.693   4.952  16.265  0.7030  0.7806 -1.4000
14912TIP3   OH266226   4.888   3.827   2.353  0.8672  0.9080  0.1151
14912TIP3    H166227   4.892   3.803   2.260 -2.6240  0.7562 -0.1095
14912TIP3    H266228   4.930   3.913   2.357 -1.9321  2.5935 -2.3902
14913TIP3   OH266229   0.860   1.791   1.098  0.1994 -0.6678  0.4373
14913TIP3    H166230   0.786   1.852   1.106  0.8903  0.7903 -2.6098
14913TIP3    H266231   0.920   1.818   1.167 -0.4907  0.6788  0.5515
14914TIP3   OH266232   3.438   6.432  12.857 -0.8589 -0.5685 -0.1309
14914TIP3    H166233   3.385   6.442  12.936  0.1224 -1.7611  0.7105
14914TIP3    H266234   3.476   6.519  12.842  0.6251 -0.7875  1.9626
14915TIP3   OH266235   1.384   3.822   0.808  0.2925 -0.6259 -0.2227
14915TIP3    H166236   1.409   3.786   0.893 -2.3669 -0.3706  0.7685
14915TIP3    H266237   1.289   3.807   0.803 -0.4832  3.4548 -1.0692
14916TIP3   OH266238   0.655   4.544  15.753  0.5066  0.1533  0.4987
14916TIP3    H166239   0.668   4.467  15.808  0.9195  0.5278  0.9341
14916TIP3    H266240   0.744   4.577  15.736  0.4373 -0.3598 -0.9841
14917TIP3   OH266241   1.610   1.263   4.711 -0.1663  0.1330 -0.0058
14917TIP3    H166242   1.637   1.234   4.624 -1.4846 -0.8016 -0.1328
14917TIP3    H266243   1.565   1.187   4.749  0.3101  0.5496  1.4637
14918TIP3   OH266244   4.931   3.367   4.204 -0.4397 -0.2173 -0.4402
14918TIP3    H166245   4.976   3.448   4.227 -1.7524  0.2464  0.6236
14918TIP3    H266246   4.961   3.304   4.270 -1.2483  0.0742  0.2281
14919TIP3   OH266247   2.169   5.357   0.708  0.5351 -0.0002 -0.5910
14919TIP3    H166248   2.244   5.308   0.742  0.3395  0.0938  0.0044
14919TIP3    H266249   2.125   5.297   0.648  1.2073  0.0193 -1.1014
14920TIP3   OH266250   5.190   2.922   5.717  0.2137 -0.4609 -0.2653
14920TIP3    H166251   5.193   2.827   5.708 -1.7065 -0.4280 -1.9380
14920TIP3    H266252   5.279   2.946   5.745  0.9842 -2.6500 -0.6311
14921TIP3   OH266253   0.061   5.960  16.887  0.2469 -0.2625 -0.0520
14921TIP3    H166254   0.003   5.992  16.818  0.3992  0.2831  0.0686
14921TIP3    H266255   0.018   5.882  16.921  0.6549 -1.1431 -1.4522
14922TIP3   OH266256   3.375   2.837  15.488 -0.1897 -0.1004  0.0160
14922TIP3    H166257   3.433   2.764  15.505 -0.9603 -0.7281  0.0254
14922TIP3    H266258   3.392   2.861  15.396  1.1180  0.6913  0.4418
14923TIP3   OH266259   6.021   3.314   0.601  0.4057  0.4070  0.1933
14923TIP3    H166260   5.929   3.329   0.579  0.7120  1.6896 -0.2761
14923TIP3    H266261   6.047   3.240   0.546 -0.2854  0.1755  0.1733
14924TIP3   OH266262   3.473   5.873  16.620  0.3028  0.1502 -0.7102
14924TIP3    H166263   3.453   5.921  16.539 -0.7914  1.1243  0.1120
14924TIP3    H266264   3.392   5.879  16.671  0.6047 -1.4339 -0.0144
14925TIP3   OH266265   3.888   0.192   1.451  0.4089  0.0998 -0.6393
14925TIP3    H166266   3.863   0.154   1.535  2.5195 -1.4584 -0.6610
14925TIP3    H266267   3.943   0.268   1.474  1.0592 -0.3788 -0.5928
14926TIP3   OH266268   5.361   2.296  16.674  0.3475 -0.0275  0.9054
14926TIP3    H166269   5.285   2.284  16.618  1.4824 -0.0782 -0.6884
14926TIP3    H266270   5.349   2.232  16.744 -0.7270 -0.5200  0.2924
14927TIP3   OH266271   1.545   5.008   4.316  0.4991 -0.2671 -0.7073
14927TIP3    H166272   1.609   4.949   4.277  1.3253  0.0447  0.1608
14927TIP3    H266273   1.481   4.950   4.358  1.7840 -0.5567  0.9111
14928TIP3   OH266274   1.207   6.449  13.939 -0.0766 -0.5073 -0.2958
14928TIP3    H166275   1.115   6.477  13.943  0.1854  0.3765 -0.1961
14928TIP3    H266276   1.220   6.424  13.848  0.2848  1.9861 -1.0184
14929TIP3   OH266277   1.208   6.584   0.011 -0.4102  0.2086 -1.0772
14929TIP3    H166278   1.257   6.634  -0.054 -0.5710 -0.3284 -1.6262
14929TIP3    H266279   1.228   6.492  -0.010  1.6986  0.0327  1.2929
14930TIP3   OH266280   3.140   2.961   3.781 -0.0818  0.5135 -0.2565
14930TIP3    H166281   3.053   2.922   3.772  0.1409 -0.3687  1.1580
14930TIP3    H266282   3.136   3.010   3.862  0.9013 -0.0225  0.1375
14931TIP3   OH266283   5.160   4.795   1.943  0.1705 -0.3813  0.1883
14931TIP3    H166284   5.212   4.829   2.015  1.3238  1.0832 -1.2740
14931TIP3    H266285   5.070   4.818   1.965  0.5606  0.5011  0.9126
14932TIP3   OH266286   2.991   5.482  15.286  0.5006  0.1268  0.2167
14932TIP3    H166287   2.943   5.414  15.333  2.1886  0.2708  2.2562
14932TIP3    H266288   2.985   5.455  15.194 -1.9273 -0.7750  0.5457
14933TIP3   OH266289   6.502   0.495   1.926  0.5674  0.2599  0.2562
14933TIP3    H166290   6.501   0.475   1.833  0.3414 -0.4375  0.4051
14933TIP3    H266291   6.437   0.435   1.964  0.4041  0.7784  0.8108
14934TIP3   OH266292   2.257   4.193   0.606  0.4311  0.3153  0.4421
14934TIP3    H166293   2.320   4.157   0.668  0.4731 -0.2994  0.0440
14934TIP3    H266294   2.310   4.235   0.538  0.4114 -0.2152  0.0995
14935TIP3   OH266295   0.005   2.060  13.148  0.1221 -0.0883  0.1264
14935TIP3    H166296   0.021   1.966  13.144 -0.7077 -0.2551  0.6093
14935TIP3    H266297   0.084   2.096  13.188  0.4360 -0.5742 -0.0432
14936TIP3   OH266298   2.129   3.358   1.504  0.1490 -0.1518 -0.5861
14936TIP3    H166299   2.212   3.314   1.522  1.5553  2.0098 -1.4527
14936TIP3    H266300   2.104   3.327   1.417  0.7951  0.2344 -0.9172
14937TIP3   OH266301   6.234   4.953   1.833 -0.1255  0.5610 -0.2204
14937TIP3    H166302   6.162   4.910   1.879  0.4320 -0.8814 -0.6706
14937TIP3    H266303   6.191   5.024   1.785 -0.8835  1.3681  1.5326
14938TIP3   OH266304   3.523   5.982  14.246  0.5887 -0.1083 -0.5307
14938TIP3    H166305   3.454   5.999  14.182 -1.1266 -0.0887  1.2255
14938TIP3    H266306   3.487   5.915  14.304  1.7194  0.4630  0.9129
14939TIP3   OH266307   3.940   5.663  15.523  0.3912 -0.4414 -0.0770
14939TIP3    H166308   3.941   5.756  15.501  1.5507 -0.1467  1.1007
14939TIP3    H266309   4.018   5.627  15.482  1.5642 -0.2567  1.8657
14940TIP3   OH266310   3.948   0.155  15.324 -0.0840  0.1450  0.0878
14940TIP3    H166311   3.923   0.210  15.251 -1.3686  1.1770  1.2492
14940TIP3    H266312   3.868   0.105  15.345  0.4566 -0.6262  0.3716
14941TIP3   OH266313   0.299   0.319   2.063 -0.3680  0.1846  0.1194
14941TIP3    H166314   0.352   0.295   2.139 -1.5995 -1.3764  0.5374
14941TIP3    H266315   0.323   0.254   1.997  0.8384  1.6509 -0.9492
14942TIP3   OH266316   2.568   6.768   6.328  0.0757 -0.6321  0.3165
14942TIP3    H166317   2.514   6.843   6.303 -0.2851 -1.0791 -0.2664
14942TIP3    H266318   2.657   6.793   6.302 -0.0761 -0.4979 -0.0848
14943TIP3   OH266319   4.648   2.152   2.617  0.1128  0.5903 -0.3253
14943TIP3    H166320   4.718   2.160   2.552  0.8125 -0.4923  0.2684
14943TIP3    H266321   4.569   2.179   2.571  0.7294  0.6744 -1.3628
14944TIP3   OH266322   2.675   3.746   4.512  0.2947 -0.2212 -0.3476
14944TIP3    H166323   2.667   3.651   4.506  1.5228 -0.2594 -1.6832
14944TIP3    H266324   2.622   3.780   4.440  2.0226 -0.0180 -1.5559
14945TIP3   OH266325   3.686   0.682  11.299 -0.2769  0.4016  0.3147
14945TIP3    H166326   3.658   0.595  11.273  0.7878 -0.1811  1.0264
14945TIP3    H266327   3.744   0.711  11.229  0.1347  0.1273  0.5389
14946TIP3   OH266328   1.254   1.134  12.607  0.1275 -0.0156 -0.7976
14946TIP3    H166329   1.161   1.126  12.628  0.3049  1.4107  0.7462
14946TIP3    H266330   1.261   1.103  12.517 -1.4814 -2.0569 -0.2870
14947TIP3   OH266331   6.324   6.519   3.957 -0.2895  0.3392  0.1114
14947TIP3    H166332   6.405   6.544   3.913  0.6964  0.0230  1.6933
14947TIP3    H266333   6.335   6.425   3.975  0.0241  0.7601  2.3783
14948TIP3   OH266334   2.299   0.709   3.683 -0.5074 -0.1138  0.0531
14948TIP3    H166335   2.307   0.676   3.772  0.6577  0.6463  0.2407
14948TIP3    H266336   2.248   0.642   3.637 -1.2995 -0.4149  1.3229
14949TIP3   OH266337   6.738   1.786   0.900  0.6715  0.6081 -0.6757
14949TIP3    H166338   6.666   1.840   0.869  1.1043  1.5449 -0.1043
14949TIP3    H266339   6.741   1.803   0.995  1.6045  0.5589 -0.6833
14950TIP3   OH266340   5.652   4.652   3.935 -0.0413 -0.0709  0.2969
14950TIP3    H166341   5.661   4.739   3.973 -1.5253  0.1814  0.1263
14950TIP3    H266342   5.735   4.608   3.957  2.4953  2.5840 -2.9502
14951TIP3   OH266343   5.883   0.726  11.663 -0.7179 -0.3224 -0.5361
14951TIP3    H166344   5.964   0.757  11.623  0.4099 -0.5153  1.4645
14951TIP3    H266345   5.878   0.633  11.639 -0.3930 -0.2893 -0.7352
14952TIP3   OH266346   6.069   4.264   2.971  0.5057  0.4175  0.0843
14952TIP3    H166347   6.139   4.209   3.007 -0.4521  0.2397  1.7709
14952TIP3    H266348   6.115   4.334   2.924  1.7709 -0.8356 -0.6353
14953TIP3   OH266349   1.829   5.765   6.017  0.0084  0.4855  0.4957
14953TIP3    H166350   1.906   5.784   6.072  0.0347  1.2282  0.2135
14953TIP3    H266351   1.854   5.795   5.930  0.4817 -1.9197 -0.2700
14954TIP3   OH266352   2.570   5.657   0.579  0.0152  0.4130 -0.1634
14954TIP3    H166353   2.594   5.741   0.616  0.2320  0.3703 -0.2044
14954TIP3    H266354   2.642   5.598   0.603  0.6540  0.6167 -1.4900
14955TIP3   OH266355   2.442   6.180  14.895  0.2431  0.5834 -0.0910
14955TIP3    H166356   2.389   6.101  14.896  0.7184  0.2570  0.9284
14955TIP3    H266357   2.487   6.180  14.979 -0.0493  2.1446  0.1116
14956TIP3   OH266358   4.773   5.223   3.460 -0.2388  0.3667 -0.3010
14956TIP3    H166359   4.686   5.229   3.420 -0.5248  4.2548  0.5123
14956TIP3    H266360   4.834   5.236   3.387 -0.4525  0.5101 -0.4547
14957TIP3   OH266361   3.613   6.228   3.134  0.7817  0.0102  0.1117
14957TIP3    H166362   3.654   6.192   3.212  0.4887 -1.9321 -0.5762
14957TIP3    H266363   3.528   6.184   3.128 -0.7238  2.6476  0.5350
14958TIP3   OH266364   0.907   0.013   4.127  0.0158 -0.7539 -0.5618
14958TIP3    H166365   0.862   0.097   4.129 -1.2174 -1.4027 -0.1279
14958TIP3    H266366   0.961   0.012   4.206  1.2719  0.2545 -1.3633
14959TIP3   OH266367   5.354   3.260  11.221  0.6835  0.9834  0.6212
14959TIP3    H166368   5.271   3.293  11.255 -0.1129  0.4774 -0.7481
14959TIP3    H266369   5.421   3.303  11.274 -0.4197  2.1878  1.0789
14960TIP3   OH266370   0.852   2.181  13.184  0.1247  0.6605  0.2082
14960TIP3    H166371   0.757   2.185  13.186  0.0138 -1.2364  0.6719
14960TIP3    H266372   0.874   2.099  13.229  2.0267  1.5432  0.9812
14961TIP3   OH266373   0.622   5.849  14.857  0.3778  0.7639 -0.4718
14961TIP3    H166374   0.583   5.827  14.772  0.5957 -1.9143  0.0477
14961TIP3    H266375   0.553   5.898  14.902 -0.3527  0.7997 -1.5789
14962TIP3   OH266376   6.259   0.264   1.349 -0.1821  0.2768 -0.3211
14962TIP3    H166377   6.246   0.193   1.412 -0.5596  0.5724 -0.0570
14962TIP3    H266378   6.354   0.269   1.338 -0.1805 -0.7397 -0.9007
14963TIP3   OH266379   1.331   3.846  15.405  0.2404  0.0935  0.1753
14963TIP3    H166380   1.350   3.937  15.383  0.7199  0.5464  2.2661
14963TIP3    H266381   1.236   3.843  15.416  0.2502  0.4111  0.3555
14964TIP3   OH266382   2.946   2.044  14.599 -0.0899  0.8117 -0.2780
14964TIP3    H166383   2.995   2.053  14.681  1.9918  0.9453 -1.4915
14964TIP3    H266384   3.002   2.083  14.532 -1.5905  0.4166 -1.8502
14965TIP3   OH266385   2.752   1.094  13.931  0.1848 -0.0823  0.1998
14965TIP3    H166386   2.845   1.076  13.944  0.1115  0.1219  1.0664
14965TIP3    H266387   2.724   1.030  13.865  0.9547 -0.0838 -0.1359
14966TIP3   OH266388   1.835   1.186  12.808  0.3573  0.3827 -0.5131
14966TIP3    H166389   1.835   1.254  12.876 -0.0506  1.3020 -1.4158
14966TIP3    H266390   1.927   1.168  12.793  0.4548  0.0834  0.3571
14967TIP3   OH266391   4.175   3.278   6.282  0.0663  0.4959 -0.2043
14967TIP3    H166392   4.262   3.261   6.245 -1.6864 -1.2536 -4.1538
14967TIP3    H266393   4.168   3.217   6.355  2.4011  1.2724  0.7420
14968TIP3   OH266394   6.227   5.886  17.118 -0.9771 -0.2152 -0.2389
14968TIP3    H166395   6.157   5.824  17.135 -0.5407 -1.2003 -1.7990
14968TIP3    H266396   6.248   5.874  17.025  0.4705  0.8743 -0.0985
14969TIP3   OH266397   3.434   2.565  13.355 -0.2855 -0.0548 -0.3295
14969TIP3    H166398   3.366   2.523  13.408 -0.5644  0.2470 -0.4456
14969TIP3    H266399   3.448   2.649  13.398 -0.7814  0.3509 -0.9497
14970TIP3   OH266400   4.581   2.380   0.288 -0.6954 -0.0796 -0.0229
14970TIP3    H166401   4.643   2.422   0.229 -1.7408  0.9892 -0.4026
14970TIP3    H266402   4.541   2.311   0.234 -0.9551  0.2592 -0.2683
14971TIP3   OH266403   6.004   1.474  12.646 -0.1170 -0.1272 -0.1177
14971TIP3    H166404   5.974   1.499  12.734  1.0990  0.8024  0.0746
14971TIP3    H266405   5.944   1.405  12.618 -0.2825 -0.7333  1.6137
14972TIP3   OH266406   3.123   6.133  15.765  0.1735  0.5896  0.0686
14972TIP3    H166407   3.167   6.206  15.722  0.5485 -0.6613 -1.7863
14972TIP3    H266408   3.032   6.138  15.735 -0.5643  1.9759  2.2935
14973TIP3   OH266409   4.558   5.098  15.542 -0.5337  0.7561  0.2439
14973TIP3    H166410   4.482   5.122  15.488 -0.7824  1.9842  1.1011
14973TIP3    H266411   4.620   5.169  15.528  1.3975 -1.2095 -2.0637
14974TIP3   OH266412   5.291   6.290  16.356  0.4647 -0.9151 -0.4185
14974TIP3    H166413   5.253   6.249  16.278 -0.2068  0.8483 -1.0709
14974TIP3    H266414   5.291   6.384  16.336  0.3379 -0.4210  1.6963
14975TIP3   OH266415   2.666   0.780   2.446 -0.6609 -0.1202 -0.5149
14975TIP3    H166416   2.717   0.784   2.366  1.3135 -1.4171  0.6059
14975TIP3    H266417   2.723   0.817   2.513 -1.7737 -0.2533  0.5465
14976TIP3   OH266418   2.888   5.027  12.692 -0.2850 -0.3671 -0.2336
14976TIP3    H166419   2.976   5.026  12.655  0.2742 -1.1021  1.0705
14976TIP3    H266420   2.864   5.120  12.695  0.8363 -0.0833  0.2849
14977TIP3   OH266421   4.604   3.907  13.864 -0.1273 -0.2225 -0.3052
14977TIP3    H166422   4.667   3.973  13.836 -1.5136  0.6947 -1.4275
14977TIP3    H266423   4.541   3.955  13.918  0.2597 -1.1705  1.0214
14978TIP3   OH266424   0.720   1.694   0.489 -0.2296 -0.0507 -0.0172
14978TIP3    H166425   0.720   1.715   0.582 -1.4440  0.0346 -0.0171
14978TIP3    H266426   0.655   1.624   0.480  1.1031 -1.2673 -0.5667
14979TIP3   OH266427   3.662   4.793  16.561 -0.0391  0.5103  0.2548
14979TIP3    H166428   3.657   4.888  16.548  0.3428  0.6215  0.8649
14979TIP3    H266429   3.571   4.765  16.571 -0.0772  1.0593  1.6742
14980TIP3   OH266430   0.637   0.055  14.783 -0.3014  0.1151 -0.1932
14980TIP3    H166431   0.702   0.108  14.736 -2.2322  1.7655 -1.1899
14980TIP3    H266432   0.607  -0.009  14.719 -0.7163  0.3547 -0.2463
14981TIP3   OH266433   2.905   0.419   3.293  0.1026  0.4148  0.3625
14981TIP3    H166434   2.956   0.411   3.212  0.7298  0.8327  0.7142
14981TIP3    H266435   2.816   0.438   3.263  0.3473  0.6464 -0.2311
14982TIP3   OH266436   4.791   4.200   2.030  0.2016 -0.1832  0.2314
14982TIP3    H166437   4.733   4.138   1.986  0.3195 -1.5468  1.8826
14982TIP3    H266438   4.731   4.262   2.073  0.0623  0.2733 -0.6014
14983TIP3   OH266439   0.333   1.910   0.806  0.1530  0.2206 -0.0584
14983TIP3    H166440   0.340   1.956   0.890 -0.0566 -0.0193  0.0929
14983TIP3    H266441   0.264   1.845   0.821 -0.4189  0.6765 -0.6416
14984TIP3   OH266442   6.577   1.142  15.891  0.7221  0.5015  0.2251
14984TIP3    H166443   6.505   1.201  15.911 -0.2952 -0.4822 -0.4167
14984TIP3    H266444   6.656   1.192  15.911 -0.1453  1.3294  1.6866
14985TIP3   OH266445   1.316   4.843   1.819 -0.9346  0.1163 -0.3148
14985TIP3    H166446   1.355   4.806   1.740  0.9182  0.2444  0.4864
14985TIP3    H266447   1.222   4.831   1.807 -0.7357  0.3441 -2.6328
14986TIP3   OH266448   4.719   1.294  16.670  0.2138 -0.2251  0.2943
14986TIP3    H166449   4.793   1.340  16.631  0.4313 -0.6208  0.2421
14986TIP3    H266450   4.719   1.323  16.762 -0.1791  0.5515  0.0623
14987TIP3   OH266451   3.084   6.108   1.813 -0.6606 -0.7554 -0.1634
14987TIP3    H166452   3.074   6.116   1.718 -0.3292 -4.6078 -0.6783
14987TIP3    H266453   3.167   6.062   1.824  1.0194  2.4280  2.3104
14988TIP3   OH266454   2.873   3.486   6.149 -0.3547 -0.4166  0.5876
14988TIP3    H166455   2.868   3.550   6.220 -0.5761 -0.7374  0.8675
14988TIP3    H266456   2.782   3.473   6.121 -0.3780 -1.0238  0.9172
14989TIP3   OH266457   0.385   4.627   0.304 -0.3523 -0.1124 -0.0098
14989TIP3    H166458   0.349   4.697   0.358  0.1439 -0.2267  0.4749
14989TIP3    H266459   0.467   4.603   0.347 -1.1330 -1.8803  0.5777
14990TIP3   OH266460   1.621   0.979  16.834  0.1941 -0.8620  0.1551
14990TIP3    H166461   1.686   0.917  16.803 -0.0858 -1.2884  0.4096
14990TIP3    H266462   1.652   1.065  16.804  1.0966 -1.0077  0.6582
14991TIP3   OH266463   4.710   1.554  15.562  0.0833 -0.3295  0.1902
14991TIP3    H166464   4.630   1.566  15.510 -0.0929 -0.8817  0.3258
14991TIP3    H266465   4.729   1.641  15.597 -0.8885 -0.3346  0.7812
14992TIP3   OH266466   4.775   2.685  15.128 -0.7476 -0.1867  0.2529
14992TIP3    H166467   4.797   2.593  15.117  0.6659  0.2142 -0.5152
14992TIP3    H266468   4.850   2.732  15.092 -0.7886  1.2689  1.9584
14993TIP3   OH266469   4.819   2.035   5.454  0.1183  0.2582  0.0035
14993TIP3    H166470   4.897   1.995   5.415 -0.7528  1.0751 -2.8166
14993TIP3    H266471   4.850   2.117   5.492  1.1690 -1.0117  2.0834
14994TIP3   OH266472   3.805   1.240  11.899 -0.4188 -0.3101 -0.3266
14994TIP3    H166473   3.735   1.217  11.838  0.0062 -0.9608 -0.5755
14994TIP3    H266474   3.864   1.165  11.897  0.1988  0.1605  0.0180
14995TIP3   OH266475   6.564   6.025  14.053 -0.0827  0.3309  0.2750
14995TIP3    H166476   6.569   5.929  14.057 -2.1495  0.1358 -0.4361
14995TIP3    H266477   6.470   6.044  14.060  0.3781  2.4117  1.7956
14996TIP3   OH266478   2.279   1.848  12.886 -0.3945  0.0262  0.2997
14996TIP3    H166479   2.265   1.889  12.972 -0.3296  1.5811 -0.3930
14996TIP3    H266480   2.222   1.897  12.827 -1.4564 -1.9098 -0.3352
14997TIP3   OH266481   2.292   0.364  12.894  0.7589  0.2771  0.3167
14997TIP3    H166482   2.330   0.390  12.978 -1.7598  0.2891  1.5529
14997TIP3    H266483   2.257   0.277  12.909 -1.2804  0.9503 -0.1133
14998TIP3   OH266484   6.127   2.317  11.632 -0.3221 -0.5140 -0.6249
14998TIP3    H166485   6.178   2.369  11.694 -2.8046 -0.8064  1.8560
14998TIP3    H266486   6.154   2.227  11.649 -0.0606 -0.4997 -0.9449
14999TIP3   OH266487   0.101   3.378  16.027  0.9325 -0.3585 -0.0445
14999TIP3    H166488   0.148   3.403  15.948 -1.4606  1.5578 -0.9773
14999TIP3    H266489   0.044   3.305  15.999  0.6054 -0.1562  0.0914
15000TIP3   OH266490   0.439   3.315   5.110  0.2050 -0.3370 -0.4130
15000TIP3    H166491   0.388   3.250   5.062  0.6925 -0.5442 -0.6597
15000TIP3    H266492   0.528   3.279   5.112  0.1642 -0.3950  0.7600
15001TIP3   OH266493   0.219   0.546   0.124  0.3066  0.3311 -0.7292
15001TIP3    H166494   0.137   0.506   0.093  1.0842  0.7486 -3.6108
15001TIP3    H266495   0.288   0.488   0.092  1.2111  0.8819  0.1817
15002TIP3   OH266496   6.162   1.908  12.945  0.0070  0.1229 -0.6563
15002TIP3    H166497   6.085   1.875  12.898 -0.6965 -0.1986  0.6807
15002TIP3    H266498   6.223   1.834  12.945  0.4746  0.4773 -1.9919
15003TIP3   OH266499   0.721   2.489  11.404 -0.0506 -0.0906  0.0117
15003TIP3    H166500   0.779   2.524  11.471 -0.5109 -1.1823  1.0108
15003TIP3    H266501   0.770   2.418  11.364  0.3163  0.7081 -1.0057
15004TIP3   OH266502   0.954   1.522  14.117 -0.0405 -0.1594 -0.0783
15004TIP3    H166503   0.963   1.616  14.104 -0.7247  0.2341  1.9804
15004TIP3    H266504   1.043   1.488  14.103  0.6247  1.0491  0.9928
15005TIP3   OH266505   4.803   0.762   5.460  0.3153 -0.0386  0.1299
15005TIP3    H166506   4.835   0.765   5.550 -2.6382  0.9675  1.2903
15005TIP3    H266507   4.862   0.702   5.414  2.6429  0.3789  2.3933
15006TIP3   OH266508   6.254   4.887   1.520 -0.4519  0.2708 -0.4263
15006TIP3    H166509   6.201   4.952   1.475  0.1827  0.2278 -1.2626
15006TIP3    H266510   6.233   4.804   1.477 -0.4528  0.0902 -0.0870
15007TIP3   OH266511   5.196   4.549   4.297  0.1456 -0.1755  0.4401
15007TIP3    H166512   5.169   4.519   4.210  2.2467  1.1611 -0.7470
15007TIP3    H266513   5.292   4.550   4.293  0.3889 -1.5244  3.3153
15008TIP3   OH266514   4.916   4.283  13.710 -0.1229  0.2292 -0.3658
15008TIP3    H166515   5.002   4.321  13.690 -0.4536  1.1290 -0.1699
15008TIP3    H266516   4.860   4.360  13.725 -0.9802 -0.3461 -0.5876
15009TIP3   OH266517   0.003   1.811   2.007 -0.2149 -0.2245 -0.1923
15009TIP3    H166518   0.047   1.768   1.934  1.1109  1.3450 -0.3610
15009TIP3    H266519   0.067   1.808   2.078 -0.4584  0.6331  0.0706
15010TIP3   OH266520   3.916   1.856  13.939  0.0045 -0.4619  0.3204
15010TIP3    H166521   3.959   1.916  13.879 -0.4829  0.2855  0.7036
15010TIP3    H266522   3.883   1.785  13.883  0.0179 -0.0454 -0.2168
15011TIP3   OH266523   4.465   5.718   5.757  0.1555  0.6926  0.3091
15011TIP3    H166524   4.469   5.663   5.835 -0.0886 -1.5272 -1.1608
15011TIP3    H266525   4.381   5.697   5.717  1.2557  0.0023 -1.7556
15012TIP3   OH266526   5.299   3.716  10.935  0.8878 -0.3913 -0.5710
15012TIP3    H166527   5.282   3.625  10.960  0.2381 -0.4309 -1.1187
15012TIP3    H266528   5.280   3.719  10.841  1.6935  0.1251 -0.7273
15013TIP3   OH266529   2.487   4.983  12.307  0.3206  0.6692  0.2586
15013TIP3    H166530   2.510   4.971  12.399 -1.2606 -0.6532  0.5439
15013TIP3    H266531   2.426   4.911  12.289 -0.0638  1.4138 -1.5855
15014TIP3   OH266532   3.752   6.429   5.175 -0.3531 -0.4078 -0.2096
15014TIP3    H166533   3.759   6.460   5.266  1.3488 -0.8334 -0.1621
15014TIP3    H266534   3.763   6.334   5.181 -0.6662 -0.4844 -0.8131
15015TIP3   OH266535   6.549   1.637  16.439  0.0890  0.4989 -0.3541
15015TIP3    H166536   6.582   1.554  16.404  1.0442  0.3168  0.9441
15015TIP3    H266537   6.570   1.701  16.371 -0.6973 -0.2947 -1.3930
15016TIP3   OH266538   4.900   1.545  10.930  0.1236 -0.5479  0.2949
15016TIP3    H166539   4.849   1.525  10.851 -1.2798 -0.1408  1.0611
15016TIP3    H266540   4.855   1.496  11.000  0.8126 -0.1971  0.9947
15017TIP3   OH266541   2.356   6.086   5.113  0.1359 -0.2107 -0.0042
15017TIP3    H166542   2.368   6.011   5.056 -0.0551 -1.0409  1.0160
15017TIP3    H266543   2.436   6.138   5.100  0.1409 -0.4296 -0.9303
15018TIP3   OH266544   1.980   1.527   1.870  0.0002 -0.4801  0.1304
15018TIP3    H166545   1.925   1.599   1.840  0.8333 -0.0239 -0.3364
15018TIP3    H266546   2.008   1.483   1.790 -1.0218 -1.7406  0.4352
15019TIP3   OH266547   4.115   5.613   0.156  0.2195 -0.5210  0.5239
15019TIP3    H166548   4.092   5.616   0.063  0.2722  1.2007  0.5334
15019TIP3    H266549   4.203   5.651   0.160 -0.0060 -0.0788  1.3469
15020TIP3   OH266550   4.268   2.755  11.799  0.6416 -0.5492 -0.4306
15020TIP3    H166551   4.342   2.814  11.784  1.3025 -1.5401 -1.2217
15020TIP3    H266552   4.294   2.704  11.876  0.0763  0.1636  0.2451
15021TIP3   OH266553   5.807   4.622  15.889 -0.0223  0.2568  0.8657
15021TIP3    H166554   5.714   4.634  15.870  0.6225  0.8575 -2.5882
15021TIP3    H266555   5.834   4.706  15.929 -0.6289  0.7054  0.3489
15022TIP3   OH266556   6.702   5.398   5.610  0.3774  0.0178 -0.5509
15022TIP3    H166557   6.752   5.353   5.678  0.4413 -0.3832 -0.8563
15022TIP3    H266558   6.744   5.484   5.601  2.6789 -1.1926 -2.5637
15023TIP3   OH266559   2.501   0.372  13.995 -0.6844  0.1079 -0.7395
15023TIP3    H166560   2.450   0.304  13.950  0.6895 -0.4392 -1.5507
15023TIP3    H266561   2.592   0.353  13.970 -0.1703  1.5796 -0.0635
15024TIP3   OH266562   5.717   6.026   0.523 -0.4348 -0.3507  0.4131
15024TIP3    H166563   5.635   6.073   0.537  0.4522  1.9043 -1.3293
15024TIP3    H266564   5.784   6.094   0.525  0.9304 -1.4749 -2.2356
15025TIP3   OH266565   2.211   6.630  16.170 -0.1692 -0.1390  0.4956
15025TIP3    H166566   2.233   6.722  16.153  1.6738 -0.0232  3.0050
15025TIP3    H266567   2.217   6.621  16.265 -1.0666 -2.7184  0.3910
15026TIP3   OH266568   3.068   2.908  13.793  0.4489 -0.1865 -0.2085
15026TIP3    H166569   3.159   2.939  13.790  0.5401 -0.0595  2.3633
15026TIP3    H266570   3.040   2.923  13.883 -1.3246 -2.5434 -0.2851
15027TIP3   OH266571   2.551   3.637  11.993 -0.3418  0.2641 -0.6598
15027TIP3    H166572   2.591   3.696  12.058 -0.3733 -1.1355  0.6701
15027TIP3    H266573   2.625   3.589  11.957 -0.6745 -2.2727  1.7457
15028TIP3   OH266574   2.337   0.597  13.658 -0.2168 -0.2014  0.0187
15028TIP3    H166575   2.360   0.556  13.742 -0.1183 -0.8394 -0.3132
15028TIP3    H266576   2.302   0.683  13.682  0.6065 -0.0346  0.6631
15029TIP3   OH266577   0.331   6.389   0.846 -0.3092  0.2230 -0.2056
15029TIP3    H166578   0.355   6.440   0.923  3.6080  0.5610 -1.4039
15029TIP3    H266579   0.293   6.453   0.786 -0.7813  0.5047  0.3815
15030TIP3   OH266580   4.730   0.326   3.657 -0.0846  0.0413 -0.0893
15030TIP3    H166581   4.764   0.288   3.576  0.1771  0.0945 -0.0038
15030TIP3    H266582   4.795   0.392   3.682 -1.6558  2.2906 -1.5283
15031TIP3   OH266583   5.925   3.012   3.141  0.2546  0.4713  0.3377
15031TIP3    H166584   5.949   2.953   3.069 -0.7730  1.6554 -1.0426
15031TIP3    H266585   6.008   3.042   3.176  0.7923 -1.0410  0.4522
15032TIP3   OH266586   1.203   4.177  14.911 -0.0088 -0.0687 -0.0528
15032TIP3    H166587   1.279   4.122  14.926 -0.2464 -0.7015 -1.0429
15032TIP3    H266588   1.192   4.179  14.816 -0.9808  0.3455  0.0440
15033TIP3   OH266589   6.387   4.952  15.579 -0.0757 -0.8385 -0.2255
15033TIP3    H166590   6.322   4.886  15.555 -1.1468 -0.3835  1.2696
15033TIP3    H266591   6.374   4.965  15.673 -0.6461  2.2380 -0.6243
15034TIP3   OH266592   2.355   4.353  11.075  0.3781 -0.6016  0.3988
15034TIP3    H166593   2.260   4.356  11.066  0.3451 -1.8217  0.0840
15034TIP3    H266594   2.388   4.368  10.986  0.4596 -0.5831  0.4317
15035TIP3   OH266595   5.139   0.747  16.553  0.0317  0.4808  0.0096
15035TIP3    H166596   5.113   0.825  16.503 -1.7848 -0.2562 -0.2896
15035TIP3    H266597   5.186   0.781  16.629  2.1410  1.6903 -1.6945
15036TIP3   OH266598   5.255   6.427  13.645  0.4368 -0.0699 -0.4292
15036TIP3    H166599   5.242   6.475  13.727  1.8032  2.5677 -1.6281
15036TIP3    H266600   5.244   6.335  13.669 -0.5805  0.6730  2.3993
15037TIP3   OH266601   6.774   4.516   2.427 -0.1010  0.0009  0.0697
15037TIP3    H166602   6.820   4.535   2.345  0.9303  0.4870  0.7353
15037TIP3    H266603   6.746   4.425   2.418  0.4093 -0.1028 -0.6275
15038TIP3   OH266604   0.470   3.967  11.934  0.2918 -1.0222  0.3694
15038TIP3    H166605   0.380   3.942  11.911  0.1495 -1.0646  0.9665
15038TIP3    H266606   0.525   3.912  11.878 -0.0451  0.8386 -1.9422
15039TIP3   OH266607   1.660   2.958  12.267  0.8636  0.3306 -0.2438
15039TIP3    H166608   1.650   3.016  12.191 -1.0563  1.3924  0.7170
15039TIP3    H266609   1.733   2.996  12.316  2.4041 -0.6167 -1.7090
15040TIP3   OH266610   6.035   5.912  12.402  0.2495 -0.1203  0.3242
15040TIP3    H166611   5.984   5.975  12.454 -0.7076 -1.2219  0.7774
15040TIP3    H266612   6.126   5.938  12.415 -0.1635  2.8503 -1.7224
15041TIP3   OH266613   5.293   3.600  16.196  0.2763 -0.3675 -0.1526
15041TIP3    H166614   5.276   3.687  16.160  1.1077 -0.2319 -0.2266
15041TIP3    H266615   5.382   3.605  16.230  0.0445 -0.9548  0.5645
15042TIP3   OH266616   0.316   1.282  15.033 -0.2285  0.4596 -0.2019
15042TIP3    H166617   0.365   1.200  15.033 -0.1655  0.4942  0.2747
15042TIP3    H266618   0.241   1.265  14.976  0.6553  0.6071 -1.4470
15043TIP3   OH266619   6.145   3.820  12.176 -0.4125 -0.3675  0.3657
15043TIP3    H166620   6.083   3.854  12.240 -0.6926  0.5026 -0.3443
15043TIP3    H266621   6.090   3.782  12.107 -0.1310 -0.7957  0.3752
15044TIP3   OH266622   5.552   6.799  17.022 -0.0961  0.0493 -0.6635
15044TIP3    H166623   5.605   6.797  16.942 -0.1575  0.4534 -0.7174
15044TIP3    H266624   5.549   6.708  17.052 -2.1954 -0.5945 -2.5260
15045TIP3   OH266625   3.690   6.474   2.469  0.3514 -0.3105 -0.0617
15045TIP3    H166626   3.685   6.489   2.564  0.4632 -0.7657  0.0198
15045TIP3    H266627   3.731   6.553   2.434  2.5678 -1.1090  0.5518
15046TIP3   OH266628   5.398   3.024  15.278  1.0201  0.0946  0.2005
15046TIP3    H166629   5.372   3.036  15.369 -0.7916  0.8849 -0.3847
15046TIP3    H266630   5.435   2.936  15.275 -1.8131 -1.2306  1.1013
15047TIP3   OH266631   1.973   3.865  14.805 -0.5431  0.0741  0.0865
15047TIP3    H166632   2.056   3.817  14.810 -1.4877 -1.5572  1.0917
15047TIP3    H266633   1.990   3.947  14.851  0.8151  0.2562 -0.6992
15048TIP3   OH266634   6.493   4.626  12.200  0.0525  0.2660  0.0414
15048TIP3    H166635   6.448   4.647  12.119  1.1966 -0.2663 -0.7534
15048TIP3    H266636   6.457   4.687  12.264 -0.9580  0.6039 -0.8266
15049TIP3   OH266637   3.593   5.934   6.083 -0.2625 -0.4683  0.1694
15049TIP3    H166638   3.519   5.894   6.129 -3.0260  1.7890 -1.8713
15049TIP3    H266639   3.667   5.924   6.142 -2.3993 -2.0538  2.8174
15050TIP3   OH266640   0.075   1.645   1.765  0.4642 -0.6372 -0.2995
15050TIP3    H166641   0.110   1.604   1.686 -0.5132 -1.5735 -0.2661
15050TIP3    H266642   0.107   1.590   1.836 -1.1117 -1.5852 -0.2764
15051TIP3   OH266643   6.589   0.257   0.530 -0.5067  0.1060  0.3093
15051TIP3    H166644   6.510   0.287   0.486 -0.0098  2.1303  0.7143
15051TIP3    H266645   6.657   0.260   0.463 -0.3106  0.5545  0.5257
15052TIP3   OH266646   2.686   1.962  13.518 -0.0769 -0.9022 -0.9566
15052TIP3    H166647   2.641   1.882  13.544 -0.8110 -0.8606 -2.0355
15052TIP3    H266648   2.773   1.954  13.557 -0.0960 -2.2779 -1.1493
15053TIP3   OH266649   0.663   5.548   3.017  0.4012 -0.3600 -0.6083
15053TIP3    H166650   0.724   5.521   3.086 -0.1863 -1.0234 -0.3408
15053TIP3    H266651   0.660   5.474   2.957  1.1288  0.3238 -1.5258
15054TIP3   OH266652   1.337   3.159   1.540  0.1289 -0.5262  0.4014
15054TIP3    H166653   1.429   3.139   1.519  0.1992  0.3751 -0.2071
15054TIP3    H266654   1.332   3.254   1.537 -1.4253 -0.5965 -2.3025
15055TIP3   OH266655   0.583   0.427  12.872  0.4320 -0.0004  0.8686
15055TIP3    H166656   0.536   0.388  12.799  1.0056  2.8626 -1.2351
15055TIP3    H266657   0.651   0.363  12.894 -0.7733 -1.6371  0.0490
15056TIP3   OH266658   4.974   4.266  15.398  0.2136 -0.1235  0.2128
15056TIP3    H166659   5.019   4.218  15.329 -1.0364  0.6934 -1.2454
15056TIP3    H266660   5.028   4.343  15.413  0.2328 -0.0473 -0.2358
15057TIP3   OH266661   3.460   1.661  16.547 -0.4021 -0.2780  0.0306
15057TIP3    H166662   3.412   1.667  16.464  0.0967 -0.5618 -0.2841
15057TIP3    H266663   3.522   1.734  16.543 -0.0763 -0.5563 -0.0463
15058TIP3   OH266664   4.333   3.706  16.291  0.1602  0.3769 -0.5011
15058TIP3    H166665   4.353   3.754  16.371  0.5305 -0.2245 -0.2274
15058TIP3    H266666   4.237   3.700  16.290  0.2092 -2.4693  1.6517
15059TIP3   OH266667   4.973   5.608  16.917 -0.1817  0.3993  0.1743
15059TIP3    H166668   4.994   5.690  16.963 -2.2049  0.5384  0.9332
15059TIP3    H266669   4.911   5.633  16.849  1.6385 -0.0571 -1.7779
15060TIP3   OH266670   6.362   1.802  11.698 -0.1130 -0.3486  0.1472
15060TIP3    H166671   6.442   1.805  11.645  0.2898  0.2936  0.7739
15060TIP3    H266672   6.392   1.822  11.787 -0.9616 -0.1429  0.3914
15061TIP3   OH266673   1.133   6.059  16.303 -0.0752  0.2102  0.6806
15061TIP3    H166674   1.051   6.102  16.327 -1.0642 -0.8451 -0.6856
15061TIP3    H266675   1.108   5.969  16.282  1.5783 -0.3700  1.0591
15062TIP3   OH266676   0.777   2.520  14.772  0.3413 -0.7690  0.5027
15062TIP3    H166677   0.741   2.519  14.683 -0.3459  0.5581  0.7416
15062TIP3    H266678   0.808   2.431  14.786  0.4822 -1.0006 -1.0722
15063TIP3   OH266679   4.495   1.761  16.689  0.0851 -0.0659 -0.1408
15063TIP3    H166680   4.432   1.826  16.722  0.5775  0.8700 -0.9770
15063TIP3    H266681   4.474   1.753  16.596  1.3632  0.4633 -0.4917
15064TIP3   OH266682   1.188   1.276  16.504 -0.3401 -1.0824 -0.4465
15064TIP3    H166683   1.272   1.250  16.466  0.0521 -0.8746  0.2431
15064TIP3    H266684   1.197   1.370  16.520 -0.3858 -1.2075  0.3898
15065TIP3   OH266685   2.896   4.508   0.385 -0.4305 -0.2394  0.1373
15065TIP3    H166686   2.900   4.413   0.377 -2.4557 -0.5159  1.6141
15065TIP3    H266687   2.814   4.532   0.343 -0.2445  0.7998  0.3407
15066TIP3   OH266688   5.501   2.608   1.973 -0.4776 -0.3395 -0.0206
15066TIP3    H166689   5.587   2.568   1.987 -0.5679 -0.5299 -0.0084
15066TIP3    H266690   5.456   2.599   2.057 -0.1533  0.6367  0.2713
15067TIP3   OH266691   5.741   2.107   1.476  0.0528  0.6384  0.0433
15067TIP3    H166692   5.692   2.038   1.522  2.3187 -1.8060 -0.9053
15067TIP3    H266693   5.797   2.145   1.543 -0.2435  0.6003  0.3147
15068TIP3   OH266694   2.875   5.888  15.644  0.7285  0.1291  0.0337
15068TIP3    H166695   2.912   5.822  15.703 -1.6413  0.3664  1.9820
15068TIP3    H266696   2.791   5.852  15.618  0.9924  0.8110 -1.8953
15069TIP3   OH266697   6.004   2.640   3.292 -0.5671 -0.1365  0.3287
15069TIP3    H166698   6.084   2.674   3.332  0.6434 -1.5249 -0.8017
15069TIP3    H266699   5.936   2.703   3.316  1.0312  1.5619  0.5791
15070TIP3   OH266700   2.403   0.554  15.748 -0.1895  0.4572  0.3304
15070TIP3    H166701   2.355   0.615  15.692 -0.7079  1.2488  1.6152
15070TIP3    H266702   2.481   0.602  15.776 -0.5948  0.5520  1.3409
15071TIP3   OH266703   2.456   6.762   1.709 -0.4454  0.2901  0.4098
15071TIP3    H166704   2.421   6.807   1.632 -2.2740 -1.5014  0.0917
15071TIP3    H266705   2.540   6.727   1.681 -0.9885 -0.1455 -0.7511
15072TIP3   OH266706   4.733   3.151   5.881 -0.0341 -0.5765  0.1072
15072TIP3    H166707   4.774   3.183   5.801 -0.5272 -3.5065 -1.4595
15072TIP3    H266708   4.698   3.229   5.924  3.3622  1.5252 -0.6423
15073TIP3   OH266709   4.311   4.745  14.891 -0.0997  0.0836  0.0280
15073TIP3    H166710   4.371   4.764  14.963  1.3776  1.2529 -1.4205
15073TIP3    H266711   4.300   4.650  14.892  2.4277 -0.2838 -0.0846
15074TIP3   OH266712   0.004   0.976  16.475  0.2688 -0.0244 -0.0841
15074TIP3    H166713  -0.013   0.997  16.384 -0.2152 -0.3758 -0.0767
15074TIP3    H266714   0.014   0.881  16.477  1.4202  0.0869  0.0499
15075TIP3   OH266715   3.511   6.679   0.014  0.2365 -0.5531  0.0905
15075TIP3    H166716   3.583   6.726   0.057  1.9367 -2.1637 -0.9026
15075TIP3    H266717   3.494   6.604   0.071 -0.1239 -0.6258 -0.1076
15076TIP3   OH266718   2.623   1.494   2.898 -0.3301 -0.2515  0.2921
15076TIP3    H166719   2.562   1.470   2.829 -0.7717  0.0480  0.5735
15076TIP3    H266720   2.625   1.418   2.957  1.3100 -1.1942 -0.8965
15077TIP3   OH266721   3.248   3.516   0.855 -0.4121  0.1944 -0.2704
15077TIP3    H166722   3.242   3.566   0.773 -2.0057  1.7287  0.7136
15077TIP3    H266723   3.319   3.560   0.903 -1.6317  1.4218  0.4800
15078TIP3   OH266724   5.038   5.199  15.292 -0.1761  0.0020  0.3672
15078TIP3    H166725   5.122   5.240  15.272  0.1730 -0.5030  0.7884
15078TIP3    H266726   5.043   5.176  15.385 -0.1503 -1.4782  0.0285
15079TIP3   OH266727   4.342   0.433  11.252 -0.3469  0.1735  0.3418
15079TIP3    H166728   4.276   0.375  11.214 -0.1230  0.4452 -0.4722
15079TIP3    H266729   4.318   0.520  11.221 -0.8584  0.5878  1.7967
15080TIP3   OH266730   3.404   1.480   0.593  0.2295 -0.5193  0.4434
15080TIP3    H166731   3.377   1.406   0.540  0.3192 -0.7590  0.7299
15080TIP3    H266732   3.395   1.556   0.535  1.7402 -0.9404 -0.3860
15081TIP3   OH266733   2.275   4.361   0.961  0.6621  0.0595  0.1056
15081TIP3    H166734   2.293   4.450   0.932  2.1774 -0.3625 -0.2945
15081TIP3    H266735   2.318   4.354   1.046  0.3663 -0.2325  0.2346
15082TIP3   OH266736   0.119   6.611  12.981 -0.3175  0.1085 -0.1834
15082TIP3    H166737   0.098   6.685  13.038  1.3837  0.6606 -0.2205
15082TIP3    H266738   0.146   6.651  12.898 -1.0670 -0.6254 -0.7921
15083TIP3   OH266739   6.102   0.255  14.291 -0.0762 -0.2744 -0.7958
15083TIP3    H166740   6.083   0.296  14.375 -1.5222  1.2621 -1.8104
15083TIP3    H266741   6.162   0.316  14.248  1.4537 -1.5295 -0.5380
15084TIP3   OH266742   0.658   4.294  15.575  0.2154  0.1347 -0.1837
15084TIP3    H166743   0.753   4.284  15.574  0.2328 -0.1165  1.4462
15084TIP3    H266744   0.644   4.387  15.590  0.1899  0.2154 -0.6864
15085TIP3   OH266745   5.261   0.115  11.909  0.0598 -0.2604 -0.2615
15085TIP3    H166746   5.181   0.113  11.963 -0.0903 -0.5682 -0.4930
15085TIP3    H266747   5.308   0.035  11.933  0.6243  0.2459  0.3561
15086TIP3   OH266748   4.749   1.471   2.935 -0.3350 -0.1855 -0.3506
15086TIP3    H166749   4.712   1.484   3.022  2.4636 -0.1067  0.9621
15086TIP3    H266750   4.711   1.540   2.881 -0.0337  1.5644  1.5878
15087TIP3   OH266751   2.440   4.325   6.660  0.0184  0.1246  0.1063
15087TIP3    H166752   2.399   4.406   6.628 -0.8700 -0.8345 -1.2960
15087TIP3    H266753   2.510   4.308   6.598  0.5516  0.0864  0.7103
15088TIP3   OH266754   6.619   1.743   4.579  0.6661 -0.0256 -0.5170
15088TIP3    H166755   6.617   1.647   4.581 -2.0149 -0.0399  1.7469
15088TIP3    H266756   6.653   1.769   4.664 -1.2515  0.9510  0.0184
15089TIP3   OH266757   0.378   1.564  14.964  0.0839  0.0509  0.0241
15089TIP3    H166758   0.310   1.518  15.013  1.0958 -0.1457  1.3149
15089TIP3    H266759   0.423   1.496  14.914 -0.0198  0.0206 -0.0275
15090TIP3   OH266760   5.353   3.215  10.959  0.0188  0.0851  0.2400
15090TIP3    H166761   5.340   3.229  11.053 -1.6250 -1.2455  0.2727
15090TIP3    H266762   5.363   3.303  10.923 -2.0799  0.8461  1.3372
15091TIP3   OH266763   2.152   4.646   0.981  0.5113 -0.1582 -0.6480
15091TIP3    H166764   2.179   4.623   1.070 -1.6378 -3.7092 -0.7511
15091TIP3    H266765   2.057   4.655   0.987  0.6111  3.8291 -1.8976
15092TIP3   OH266766   3.358   4.417   6.038 -0.2136  0.0793 -0.5791
15092TIP3    H166767   3.377   4.326   6.061  1.5616  0.2869 -1.0401
15092TIP3    H266768   3.303   4.449   6.109  1.3205 -0.6254  1.0052
15093TIP3   OH266769   3.860   6.723  14.006  0.8442 -0.0989  0.1023
15093TIP3    H166770   3.872   6.697  13.914  1.4034  1.8721 -0.4318
15093TIP3    H266771   3.948   6.745  14.037  0.4371  0.9459  0.5547
15094TIP3   OH266772   2.196   3.254  14.360  0.5115  0.2202 -0.0937
15094TIP3    H166773   2.141   3.187  14.401  1.7850 -1.8072 -1.4809
15094TIP3    H266774   2.163   3.259  14.270  1.3708  0.3660 -0.4075
15095TIP3   OH266775   0.978   2.709  13.006  0.3012 -0.8004  0.6906
15095TIP3    H166776   1.054   2.698  12.949 -0.8676  0.0966 -1.1500
15095TIP3    H266777   0.953   2.620  13.030  0.1736 -1.3156 -1.1814
15096TIP3   OH266778   3.265   2.302   4.534 -0.4614 -0.2417  0.1549
15096TIP3    H166779   3.252   2.315   4.628 -0.3019 -0.6630  0.2404
15096TIP3    H266780   3.268   2.206   4.524 -2.4179 -0.2613 -0.5497
15097TIP3   OH266781   2.856   6.284  12.475  0.6413 -0.4843 -0.2847
15097TIP3    H166782   2.857   6.378  12.490  1.3026 -0.6714  0.9155
15097TIP3    H266783   2.947   6.260  12.459  0.5646 -1.0153  0.0358
15098TIP3   OH266784   5.966   3.693  16.533 -0.3844 -0.0107  0.5707
15098TIP3    H166785   6.039   3.745  16.567 -1.9253  3.4460 -0.8958
15098TIP3    H266786   5.996   3.603  16.538  4.8562  1.2243 -1.8598
15099TIP3   OH266787   3.523   0.174  16.260  0.0672 -0.5001 -0.3965
15099TIP3    H166788   3.537   0.265  16.285 -0.3845 -0.6896  0.5929
15099TIP3    H266789   3.540   0.172  16.166  2.8167  0.0589  0.0171
15100TIP3   OH266790   1.361   0.402  12.347 -0.1831 -0.6506 -0.6968
15100TIP3    H166791   1.267   0.410  12.364 -0.2618 -1.1339 -0.8733
15100TIP3    H266792   1.368   0.325  12.291  0.5090 -1.9495  1.0590
15101TIP3   OH266793   2.725   4.683   0.950 -0.1526 -0.1050 -0.3149
15101TIP3    H166794   2.714   4.773   0.921  0.3226  0.2629  0.5916
15101TIP3    H266795   2.803   4.652   0.904 -0.6384 -0.2510 -1.0569
15102TIP3   OH266796   2.700   1.958   0.951  0.2544  0.4974  0.6227
15102TIP3    H166797   2.758   1.981   1.024 -0.6467 -1.3146  2.0064
15102TIP3    H266798   2.615   1.994   0.975 -0.2561 -0.8377  0.9569
15103TIP3   OH266799   6.778   1.709  11.694  0.3894  0.1648  0.1128
15103TIP3    H166800   6.794   1.617  11.716 -0.6449  0.2495  1.3227
15103TIP3    H266801   6.782   1.755  11.778 -1.4034  0.8672 -0.1480
15104TIP3   OH266802   6.307   3.394   4.976  0.0793  0.5066  0.1702
15104TIP3    H166803   6.396   3.420   4.953  0.0701  0.7093  0.3598
15104TIP3    H266804   6.271   3.470   5.022 -0.0447  0.2660  0.4742
15105TIP3   OH266805   2.107   4.260   6.256 -0.3487 -0.9000 -0.5521
15105TIP3    H166806   2.072   4.315   6.326 -3.2335 -1.9190 -1.0297
15105TIP3    H266807   2.201   4.275   6.258 -0.7242  1.9184  1.0874
15106TIP3   OH266808   3.501   0.204  13.231  0.2693  0.8698 -0.0145
15106TIP3    H166809   3.453   0.267  13.284 -0.4444 -0.7589  1.3424
15106TIP3    H266810   3.517   0.130  13.289  3.2253  0.7384 -0.8148
15107TIP3   OH266811   4.742   6.276   6.729  0.2871 -0.2056  0.0907
15107TIP3    H166812   4.708   6.327   6.656 -0.7889  0.1095  0.7845
15107TIP3    H266813   4.670   6.216   6.752  0.4010  0.0528  1.2009
15108TIP3   OH266814   0.197   1.636  10.513 -0.1484 -1.2657 -0.1614
15108TIP3    H166815   0.233   1.666  10.596  2.6735 -2.8773 -0.6803
15108TIP3    H266816   0.108   1.609  10.534  0.9336 -3.0161  2.7207
15109TIP3   OH266817   2.520   6.850  10.429 -0.1093 -0.0447 -0.0562
15109TIP3    H166818   2.475   6.897  10.499  0.7681 -1.8866  1.8259
15109TIP3    H266819   2.613   6.855  10.451  0.0432 -2.3445  0.0646
15110TIP3   OH266820   0.953   4.380   0.188 -0.2936  0.5002 -0.1441
15110TIP3    H166821   0.863   4.355   0.169  0.2837 -0.4774 -1.8641
15110TIP3    H266822   0.995   4.386   0.102  1.4379  0.2890  0.6372
15111TIP3   OH266823   1.635   2.706  16.714 -0.7064  0.0962 -0.4176
15111TIP3    H166824   1.691   2.646  16.763 -1.7103 -0.0531  0.5902
15111TIP3    H266825   1.653   2.686  16.622  0.1065 -0.6695 -0.1096
15112TIP3   OH266826   2.147   2.625   1.677 -0.4758 -0.3736  0.1540
15112TIP3    H166827   2.168   2.564   1.748 -0.1384  0.2321  0.5917
15112TIP3    H266828   2.220   2.687   1.677 -0.9548  0.2018 -0.0766
15113TIP3   OH266829   5.780   4.264   2.147 -0.2271  0.1680 -0.4696
15113TIP3    H166830   5.734   4.275   2.230 -0.0112 -0.0995 -0.3122
15113TIP3    H266831   5.846   4.333   2.147  0.4512 -0.4584  0.0532
15114TIP3   OH266832   1.313   0.134  14.817 -0.2342  0.3697  0.1034
15114TIP3    H166833   1.233   0.155  14.865 -0.3900 -1.1937  0.5879
15114TIP3    H266834   1.382   0.180  14.865 -0.6593  0.5970  0.5148
15115TIP3   OH266835   2.360   2.829  15.957  0.4012 -0.1730  0.1770
15115TIP3    H166836   2.390   2.891  16.023 -0.8417 -0.1051  0.7121
15115TIP3    H266837   2.366   2.744  15.999 -1.1822 -0.0541  0.7285
15116TIP3   OH266838   5.856   5.443  12.168 -0.5955 -0.8186  0.2742
15116TIP3    H166839   5.786   5.462  12.106 -1.0978 -0.9954  0.7740
15116TIP3    H266840   5.857   5.519  12.226 -2.1915 -1.9316  1.8972
15117TIP3   OH266841   1.409   6.237   3.841 -0.3600 -0.2803  0.2661
15117TIP3    H166842   1.345   6.264   3.906  0.4715 -1.3404  1.5622
15117TIP3    H266843   1.494   6.252   3.882  0.1675 -1.7995 -0.1998
15118TIP3   OH266844   6.697   1.580   1.572 -0.0285  0.2015 -0.1651
15118TIP3    H166845   6.791   1.564   1.569  0.3138  1.9099  0.2735
15118TIP3    H266846   6.681   1.613   1.660 -0.8595  0.8920 -0.5582
15119TIP3   OH266847   2.104   4.572  16.640  0.0588 -0.0466  0.0081
15119TIP3    H166848   2.034   4.571  16.575  0.0864 -0.8255 -0.0192
15119TIP3    H266849   2.165   4.504  16.610  1.7316  1.7887 -0.9538
15120TIP3   OH266850   0.582   2.710   4.859 -0.5163  0.2803 -0.1768
15120TIP3    H166851   0.595   2.753   4.944  1.9569  1.8126 -1.2293
15120TIP3    H266852   0.554   2.621   4.882  3.3945 -0.5344  2.4450
15121TIP3   OH266853   2.144   4.363  15.260 -0.0194  0.9240  0.7068
15121TIP3    H166854   2.084   4.297  15.297  1.4581 -0.5784  0.5197
15121TIP3    H266855   2.124   4.443  15.310 -2.1545  0.5009  0.6491
15122TIP3   OH266856   0.489   1.354  11.031  0.5126  0.3114  0.5873
15122TIP3    H166857   0.562   1.338  10.972  0.2308  1.0413  0.0217
15122TIP3    H266858   0.527   1.350  11.119  0.6592 -2.1819  0.4561
15123TIP3   OH266859   2.638   2.521   3.992 -0.0846 -0.4743 -0.5069
15123TIP3    H166860   2.545   2.545   3.998  0.0401 -0.0565 -0.2620
15123TIP3    H266861   2.657   2.522   3.898 -0.0922  0.3441 -0.5057
15124TIP3   OH266862   1.603   5.608  11.134  0.5023 -0.0235  0.2021
15124TIP3    H166863   1.649   5.581  11.054 -1.5464  0.5736 -1.2855
15124TIP3    H266864   1.522   5.557  11.133 -0.4900  1.4724  0.7777
15125TIP3   OH266865   5.690   6.310  16.717 -0.4168 -0.0982 -0.3110
15125TIP3    H166866   5.749   6.285  16.646 -0.2190 -0.4975 -0.0103
15125TIP3    H266867   5.621   6.244  16.714 -0.4553 -0.0635 -0.1900
15126TIP3   OH266868   5.608   4.016   2.409  0.8902  0.2478 -0.1354
15126TIP3    H166869   5.566   3.969   2.337  2.5427 -0.2697 -0.8143
15126TIP3    H266870   5.593   4.108   2.390  1.3891  0.1255 -1.2205
15127TIP3   OH266871   5.994   5.581  16.340  0.6555  0.2083 -0.4026
15127TIP3    H166872   6.002   5.619  16.428 -0.6210  1.6683 -0.8628
15127TIP3    H266873   5.956   5.494  16.355  1.0801  0.1709  0.5270
15128TIP3   OH266874   3.786   2.919   5.026 -0.3943 -0.3157 -0.5512
15128TIP3    H166875   3.866   2.891   4.981 -1.1850 -0.1476 -2.1320
15128TIP3    H266876   3.795   2.882   5.114  0.9857 -1.1044 -0.9770
15129TIP3   OH266877   0.930   0.444  16.960  0.3226 -0.1406 -0.0521
15129TIP3    H166878   1.005   0.494  16.992 -1.8192  2.4954  1.3239
15129TIP3    H266879   0.891   0.406  17.039  0.7715 -2.5011 -0.8688
15130TIP3   OH266880   5.926   2.754   4.632 -0.0110 -0.3971 -0.0146
15130TIP3    H166881   5.859   2.765   4.700 -0.5580 -0.1358 -0.5929
15130TIP3    H266882   6.009   2.774   4.677 -0.2127 -1.5477  0.9286
15131TIP3   OH266883   2.715   4.886   4.794  0.1928 -0.1819 -0.2044
15131TIP3    H166884   2.735   4.854   4.706 -0.8334  0.0575 -0.5349
15131TIP3    H266885   2.797   4.924   4.825  0.7934 -1.0086 -0.7224
15132TIP3   OH266886   4.942   0.038  16.380 -0.9384 -0.5193  0.9013
15132TIP3    H166887   4.871   0.101  16.366 -1.1485 -0.9616 -0.1861
15132TIP3    H266888   4.920  -0.035  16.322 -0.0413 -1.0446  1.2007
15133TIP3   OH266889   1.154   1.269   2.905 -0.0818 -0.1747  0.2025
15133TIP3    H166890   1.098   1.324   2.851 -0.9507  0.6353  1.8792
15133TIP3    H266891   1.107   1.185   2.910 -2.2971  1.0637  3.1798
15134TIP3   OH266892   3.648   6.519   3.402  0.0776  0.0590  0.4968
15134TIP3    H166893   3.666   6.602   3.447  0.1937 -0.8743  2.2442
15134TIP3    H266894   3.699   6.454   3.450 -0.2362 -1.0881 -0.6659
15135TIP3   OH266895   3.497   4.632   0.031  0.2536  0.3948 -0.0328
15135TIP3    H166896   3.473   4.642   0.123 -1.3960 -0.0795 -0.3758
15135TIP3    H266897   3.413   4.628  -0.015  1.0339  3.0098 -1.8546
15136TIP3   OH266898   6.677   6.844  15.782 -0.1304 -0.4560  0.6956
15136TIP3    H166899   6.584   6.865  15.792 -0.1978 -0.3038 -0.2211
15136TIP3    H266900   6.707   6.827  15.872 -1.5540 -2.6913  0.8394
15137TIP3   OH266901   1.594   1.901   5.794 -0.0507 -0.1407  0.0405
15137TIP3    H166902   1.589   1.918   5.888 -0.2342 -3.5881  0.7804
15137TIP3    H266903   1.503   1.901   5.764  0.0063  0.9307 -0.1735
15138TIP3   OH266904   0.400   2.980   5.118  0.3829  0.4815  0.0592
15138TIP3    H166905   0.426   2.970   5.027  0.7805  1.7025  0.0215
15138TIP3    H266906   0.479   2.962   5.168  0.0252 -0.7463  0.2039
15139TIP3   OH266907   6.152   6.801   1.717 -0.2643  0.5778  0.2368
15139TIP3    H166908   6.080   6.752   1.677 -0.6325  0.3659  1.1402
15139TIP3    H266909   6.184   6.744   1.787  0.1438  1.0918  0.4771
15140TIP3   OH266910   1.788   1.252   1.905  0.4694  0.4676  0.2441
15140TIP3    H166911   1.882   1.264   1.917  0.4683  0.6479  0.0851
15140TIP3    H266912   1.776   1.157   1.904  0.8119  0.4189 -0.8912
15141TIP3   OH266913   6.288   1.919   5.607  0.0827  0.0325 -0.1112
15141TIP3    H166914   6.275   1.846   5.668  1.8680 -0.3635 -0.1258
15141TIP3    H266915   6.359   1.970   5.646  1.1622 -0.1400 -1.7379
15142TIP3   OH266916   3.935   1.610   6.560  0.3070  0.2048  0.7038
15142TIP3    H166917   3.884   1.671   6.507  0.3295 -0.1105  0.3078
15142TIP3    H266918   3.905   1.625   6.650  0.1697  0.6532  0.5875
15143TIP3   OH266919   0.775   0.580  12.497 -0.1321 -0.4200 -0.1336
15143TIP3    H166920   0.778   0.628  12.580  0.5384 -0.5243 -0.0959
15143TIP3    H266921   0.682   0.577  12.476 -0.1257  3.0373 -1.3905
15144TIP3   OH266922   6.500   6.342  12.209  0.6700 -0.0418  0.3981
15144TIP3    H166923   6.493   6.261  12.260  0.4089 -2.3656 -2.9693
15144TIP3    H266924   6.440   6.403  12.252  0.1641 -1.9286  2.5662
15145TIP3   OH266925   1.494   1.793  14.049 -0.2054  0.1728 -0.1260
15145TIP3    H166926   1.430   1.762  13.985  0.3033 -1.4659  0.1128
15145TIP3    H266927   1.537   1.714  14.081 -0.9326  0.8345  2.7964
15146TIP3   OH266928   6.115   2.128  11.941 -0.1893 -0.6595 -0.0333
15146TIP3    H166929   6.049   2.068  11.904 -1.0084  0.2088 -0.0166
15146TIP3    H266930   6.077   2.215  11.930 -0.2144 -0.2976  2.2903
15147TIP3   OH266931   5.137   4.466  15.459 -0.4328 -0.0966  0.0494
15147TIP3    H166932   5.116   4.465  15.553 -0.3808  1.1270  0.0954
15147TIP3    H266933   5.233   4.469  15.457 -0.4434  0.2600 -0.0257
15148TIP3   OH266934   3.590   1.196   4.653 -0.4084  0.0562 -0.4336
15148TIP3    H166935   3.603   1.113   4.607  0.8815 -1.0733  1.8154
15148TIP3    H266936   3.497   1.217   4.640 -0.6829 -1.5712 -1.2804
15149TIP3   OH266937   2.761   0.918  11.457  0.0432 -0.2700  0.7999
15149TIP3    H166938   2.742   0.865  11.379  0.8169  0.9752 -0.2757
15149TIP3    H266939   2.694   0.892  11.520 -1.6108 -0.1861 -0.8253
15150TIP3   OH266940   3.149   1.412  11.729  0.1607 -0.5056  0.0663
15150TIP3    H166941   3.112   1.470  11.662  1.4366 -0.2825 -0.4768
15150TIP3    H266942   3.208   1.354  11.680  0.3639 -0.9874  0.8702
15151TIP3   OH266943   0.016   2.421   1.482  0.2447 -0.4897  0.2780
15151TIP3    H166944   0.069   2.466   1.416  1.4765  0.0454  1.5868
15151TIP3    H266945   0.045   2.330   1.479  0.3219 -0.4582  0.0952
15152TIP3   OH266946   2.582   6.043   1.196  0.2137 -0.1540  0.2797
15152TIP3    H166947   2.565   5.986   1.272  0.5495  0.2928  0.7009
15152TIP3    H266948   2.647   5.996   1.145  0.1339 -0.3698  0.3769
15153TIP3   OH266949   6.519   5.778   2.041 -0.1602 -0.2247  0.0912
15153TIP3    H166950   6.452   5.843   2.061  0.8131  1.3734 -1.5366
15153TIP3    H266951   6.602   5.823   2.056  0.5556 -0.6092 -2.2631
15154TIP3   OH266952   0.922   0.161  10.998 -0.6024 -0.1392 -0.0808
15154TIP3    H166953   0.849   0.185  10.941 -0.4390 -2.3382 -1.3666
15154TIP3    H266954   0.902   0.202  11.082 -0.8280  3.3083 -1.6501
15155TIP3   OH266955   1.543   4.671  12.353 -0.2041 -0.2507 -0.0942
15155TIP3    H166956   1.471   4.614  12.328 -0.9955 -1.0788  3.4131
15155TIP3    H266957   1.501   4.755  12.375  0.1480 -0.1659  0.2697
15156TIP3   OH266958   5.121   6.206   5.129 -0.2741 -0.6014  0.0288
15156TIP3    H166959   5.106   6.213   5.034  2.1613  0.1729 -0.3925
15156TIP3    H266960   5.096   6.117   5.151 -1.5867 -0.5666 -1.1889
15157TIP3   OH266961   1.501   0.312  13.531 -0.4378 -0.1703 -0.2276
15157TIP3    H166962   1.549   0.393  13.543 -1.0041  0.2929 -0.9425
15157TIP3    H266963   1.532   0.278  13.447 -0.8969 -0.1787 -0.4008
15158TIP3   OH266964   3.793   0.147  11.671 -0.3482  0.5260 -0.8062
15158TIP3    H166965   3.703   0.154  11.640 -0.7051 -0.2877 -0.0027
15158TIP3    H266966   3.801   0.056  11.701  1.2905  0.0119 -2.5648
15159TIP3   OH266967   5.442   5.860   1.558  0.1608 -0.0854 -0.4035
15159TIP3    H166968   5.461   5.947   1.522 -0.3818  0.4028  0.4518
15159TIP3    H266969   5.528   5.820   1.568  0.3808  0.1024 -1.3860
15160TIP3   OH266970   3.976   6.718   0.353 -0.1922  0.0809 -0.4098
15160TIP3    H166971   3.944   6.704   0.264 -2.4582 -1.0350  0.5220
15160TIP3    H266972   3.943   6.804   0.377 -0.3219  0.0066 -0.3256
15161TIP3   OH266973   1.729   4.480  12.418  0.1696 -0.5217 -0.7878
15161TIP3    H166974   1.667   4.552  12.409  0.7723  0.5524  2.4411
15161TIP3    H266975   1.693   4.410  12.363 -0.2444  2.2284 -4.3867
15162TIP3   OH266976   4.175   1.249   5.361 -0.1012 -0.4973  0.0382
15162TIP3    H166977   4.188   1.314   5.292 -1.2008 -0.9688 -0.6409
15162TIP3    H266978   4.255   1.254   5.415  0.0408  1.0508 -0.2831
15163TIP3   OH266979   2.252   3.680   1.063 -0.3948  0.0075  0.0250
15163TIP3    H166980   2.317   3.660   1.130  2.2538  3.2423 -1.3163
15163TIP3    H266981   2.262   3.611   0.998  1.3826  0.1044  0.1388
15164TIP3   OH266982   6.446   0.593  16.119 -1.1148  0.6170  0.4580
15164TIP3    H166983   6.459   0.535  16.194  3.0136  0.3897 -0.1745
15164TIP3    H266984   6.422   0.535  16.047  0.1080  0.0524  0.4846
15165TIP3   OH266985   3.733   3.528   0.654 -0.1336  0.0456  0.5907
15165TIP3    H166986   3.759   3.555   0.566 -1.7444 -1.4655 -0.3942
15165TIP3    H266987   3.677   3.600   0.685  0.6393  0.7000  0.5235
15166TIP3   OH266988   2.819   1.532   5.714  0.5256 -0.5747  0.7176
15166TIP3    H166989   2.878   1.538   5.639 -2.3048 -0.9178 -1.7165
15166TIP3    H266990   2.771   1.450   5.702 -2.1454  0.7794  1.1375
15167TIP3   OH266991   4.927   4.163   4.936 -0.0062  0.1793  0.1545
15167TIP3    H166992   4.995   4.140   4.873  0.6724  2.1246  0.0913
15167TIP3    H266993   4.848   4.176   4.883  0.0323 -0.2832 -0.0142
15168TIP3   OH266994   6.274   3.065  14.098 -0.5625 -0.0793 -0.5964
15168TIP3    H166995   6.265   3.028  14.186  0.1962  1.0435 -0.0188
15168TIP3    H266996   6.305   2.992  14.044 -1.0947 -0.7981  0.0449
15169TIP3   OH266997   4.556   6.595  13.988  0.1498  0.4607 -0.0993
15169TIP3    H166998   4.651   6.586  13.975 -0.1348 -0.5233 -1.7272
15169TIP3    H266999   4.541   6.567  14.079  1.4536  1.0981  0.3392
15170TIP3   OH267000   0.085   0.213   1.535 -0.0773 -0.1146 -0.0441
15170TIP3    H167001   0.010   0.167   1.497  0.5868 -1.3166  0.0678
15170TIP3    H267002   0.070   0.305   1.513 -0.9756 -0.4863 -1.0651
15171TIP3   OH267003   3.636   5.078  15.958 -0.0999 -0.2730  0.0320
15171TIP3    H167004   3.567   5.116  15.904  0.4905  0.2755 -0.3460
15171TIP3    H267005   3.600   5.079  16.047 -0.7288 -0.3590 -0.2165
15172TIP3   OH267006   5.454   3.243   5.280 -0.1647 -0.5142  0.3561
15172TIP3    H167007   5.511   3.182   5.232  0.3764  1.2805 -1.3921
15172TIP3    H267008   5.366   3.226   5.246 -0.0787 -0.5913  0.1722
15173TIP3   OH267009   6.670   4.027  12.477 -0.2950 -0.2826  0.2552
15173TIP3    H167010   6.691   3.952  12.422  0.1952  0.4282 -0.5445
15173TIP3    H267011   6.681   3.996  12.567  0.4755 -0.9886 -0.0836
15174TIP3   OH267012   0.743   4.247   1.281  0.1495  0.0708 -0.1253
15174TIP3    H167013   0.778   4.206   1.201 -0.1286 -0.4851  0.0296
15174TIP3    H267014   0.794   4.207   1.352 -0.6822 -0.6260  0.0888
15175TIP3   OH267015   1.992   3.097   1.290 -0.6231 -0.4702 -0.2119
15175TIP3    H167016   1.915   3.065   1.243 -0.9514  0.2587 -0.1834
15175TIP3    H267017   1.959   3.127   1.374 -0.6366  1.4593 -0.8358
15176TIP3   OH267018   0.272   1.129  14.241  0.2043 -0.0128  0.1490
15176TIP3    H167019   0.276   1.128  14.336  1.9903  0.4463  0.1238
15176TIP3    H267020   0.350   1.081  14.213  0.5769  1.2335 -1.0658
15177TIP3   OH267021   0.154   2.042   0.122  0.0532 -0.2035 -0.5014
15177TIP3    H167022   0.196   1.972   0.072  1.6898 -0.0970  0.6466
15177TIP3    H267023   0.086   1.998   0.172  1.1407 -1.0428  0.2993
15178TIP3   OH267024   2.371   2.921   4.851  0.6954 -0.0312  0.5025
15178TIP3    H167025   2.423   2.965   4.783  1.1964  0.5134  1.2141
15178TIP3    H267026   2.280   2.937   4.825  0.8468 -1.2439 -0.9189
15179TIP3   OH267027   0.740   1.466  10.877 -0.3938  0.1765 -0.2936
15179TIP3    H167028   0.699   1.521  10.944  0.2787  0.7072 -0.3047
15179TIP3    H267029   0.767   1.527  10.809 -1.1460 -0.3656 -1.1113
15180TIP3   OH267030   6.026   1.911   4.235 -0.3757 -0.1845 -0.0225
15180TIP3    H167031   5.959   1.924   4.301  0.0683  0.2264  0.3559
15180TIP3    H267032   5.994   1.958   4.158  0.0077  1.0309  0.5237
15181TIP3   OH267033   1.776   1.976   1.639 -0.2603  0.0548 -0.3393
15181TIP3    H167034   1.813   1.918   1.572 -1.9457  0.5655 -1.7836
15181TIP3    H267035   1.681   1.969   1.627 -0.5604  1.2046  1.1188
15182TIP3   OH267036   3.005   3.768  13.160 -0.8729  0.4146 -0.1207
15182TIP3    H167037   3.072   3.835  13.145 -1.5297  0.7546 -1.7753
15182TIP3    H267038   2.971   3.750  13.072 -2.0379 -0.7000  0.5480
15183TIP3   OH267039   5.630   1.690  12.973 -0.5785  0.1139  0.4388
15183TIP3    H167040   5.559   1.750  12.996 -0.2066  1.0772 -0.7824
15183TIP3    H267041   5.692   1.697  13.045 -1.0534  0.3837  0.8264
15184TIP3   OH267042   6.699   2.747   5.913 -0.1726 -0.6806 -0.2346
15184TIP3    H167043   6.683   2.652   5.918 -1.2074 -0.4527  1.8607
15184TIP3    H267044   6.789   2.758   5.943 -0.3539 -0.9252  0.4088
15185TIP3   OH267045   5.575   0.751   3.442 -0.4458 -0.1621  0.0168
15185TIP3    H167046   5.487   0.732   3.408 -0.8439 -1.9446  1.8510
15185TIP3    H267047   5.584   0.846   3.434 -2.2434 -0.0229 -0.8663
15186TIP3   OH267048   4.164   0.186   2.412 -0.0991  0.7368  0.3523
15186TIP3    H167049   4.136   0.141   2.332  0.2469 -0.5850  0.9432
15186TIP3    H267050   4.236   0.133   2.445 -1.6080 -0.0157  2.6907
15187TIP3   OH267051   2.846   0.123  12.508 -0.0210 -1.0464  0.0397
15187TIP3    H167052   2.852   0.218  12.521  2.1067 -0.9925 -0.9034
15187TIP3    H267053   2.759   0.109  12.469 -0.9692  0.3044  1.5512
15188TIP3   OH267054   6.653   1.072   6.000 -0.3747  0.0790 -0.5236
15188TIP3    H167055   6.717   1.142   6.014  0.3339 -0.3756 -1.3688
15188TIP3    H267056   6.579   1.096   6.055 -0.0111  1.3155 -0.5423
15189TIP3   OH267057   4.937   0.051  15.510 -0.1380 -0.3334  0.6295
15189TIP3    H167058   4.949  -0.042  15.531  1.1961 -0.0662  1.1663
15189TIP3    H267059   5.018   0.075  15.465  0.2979  0.9853  2.0311
15190TIP3   OH267060   2.947   2.427  13.959 -0.4944  0.6456  0.4392
15190TIP3    H167061   2.999   2.493  13.912  0.5135 -1.2514 -1.3045
15190TIP3    H267062   2.858   2.440  13.926 -0.1493  0.6281 -0.5644
15191TIP3   OH267063   0.688   5.140   6.483  0.3176  0.2395 -0.2580
15191TIP3    H167064   0.631   5.162   6.557 -0.8628 -1.7406 -0.5236
15191TIP3    H267065   0.764   5.097   6.523 -0.8717 -1.9158 -0.2243
15192TIP3   OH267066   2.224   2.059   4.199  0.1646  0.0630  0.4496
15192TIP3    H167067   2.239   1.983   4.256 -1.0166  0.9279  1.9918
15192TIP3    H267068   2.165   2.026   4.131  0.1420 -0.5547  0.7532
15193TIP3   OH267069   1.482   0.114   4.309 -0.3497  0.5364 -0.1371
15193TIP3    H167070   1.467   0.175   4.236 -1.1979  0.3360 -0.1497
15193TIP3    H267071   1.547   0.052   4.276  1.2099  1.9573  0.1960
15194TIP3   OH267072   0.556   1.018   0.808  0.8398  0.6729 -0.0989
15194TIP3    H167073   0.589   1.025   0.898 -1.0295  2.0430  0.5385
15194TIP3    H267074   0.465   0.990   0.818  1.1893 -1.2735 -1.7043
15195TIP3   OH267075   2.103   4.576  15.806  0.2847  0.2428 -0.3173
15195TIP3    H167076   2.165   4.642  15.774  1.3601 -0.4826  0.2379
15195TIP3    H267077   2.157   4.500  15.826 -0.8706 -0.5987 -0.3554
15196TIP3   OH267078   6.271   1.655   2.116  0.0381 -0.3400 -0.3412
15196TIP3    H167079   6.202   1.703   2.162  2.2354  2.3978  0.4014
15196TIP3    H267080   6.336   1.637   2.184  0.9441 -1.0406 -1.3729
15197TIP3   OH267081   2.597   5.951  15.007 -0.0035 -0.3612  0.5835
15197TIP3    H167082   2.628   5.861  15.007 -0.0548 -0.3901 -0.7183
15197TIP3    H267083   2.526   5.952  15.071  0.3778 -1.0921  1.0364
15198TIP3   OH267084   3.826   6.725   4.806 -0.0510 -0.1283 -0.5275
15198TIP3    H167085   3.857   6.812   4.830  0.0312 -0.4187  0.4748
15198TIP3    H267086   3.899   6.667   4.827  0.3490 -0.3330 -2.2899
15199TIP3   OH267087   3.220   2.979   5.217  0.0317  0.5010  0.5059
15199TIP3    H167088   3.154   2.956   5.282 -0.5411 -0.7923 -0.4972
15199TIP3    H267089   3.185   3.057   5.173 -1.0480 -0.3849 -0.2659
15200TIP3   OH267090   4.747   1.865  14.577 -0.3192  0.5315 -0.2620
15200TIP3    H167091   4.706   1.950  14.561 -1.1761  0.4813  1.5269
15200TIP3    H267092   4.838   1.887  14.600  0.4673  0.7024 -3.0949
15201TIP3   OH267093   0.476   2.196  11.192 -0.4039  0.2017  0.6068
15201TIP3    H167094   0.420   2.247  11.251  0.2045  0.4910  0.9431
15201TIP3    H267095   0.455   2.229  11.105  0.4943  1.5619  0.8740
15202TIP3   OH267096   3.245   4.868   2.017 -0.1248 -0.6327 -0.0341
15202TIP3    H167097   3.293   4.789   2.043  0.9680 -0.0108 -0.0849
15202TIP3    H267098   3.282   4.891   1.932 -0.7545 -0.3043 -0.2270
15203TIP3   OH267099   0.944   3.285  13.183  0.1563  0.1312 -0.6739
15203TIP3    H167100   0.926   3.348  13.252  0.3160 -0.9061  0.3317
15203TIP3    H267101   0.880   3.306  13.114 -0.1207  1.0516 -0.1522
15204TIP3   OH267102   4.214   1.764   4.284 -0.5548 -0.5371 -0.2027
15204TIP3    H167103   4.171   1.680   4.296 -0.9644 -0.6808 -2.3424
15204TIP3    H267104   4.155   1.814   4.228 -0.0621  1.0040  0.5707
15205TIP3   OH267105   2.823   6.197  13.763 -0.3297  0.0269 -0.0531
15205TIP3    H167106   2.916   6.193  13.741 -0.4074  0.1266 -0.4086
15205TIP3    H267107   2.819   6.169  13.855  0.2444  1.6290  0.4947
15206TIP3   OH267108   5.200   5.536   5.738 -0.1420 -0.0559 -0.0328
15206TIP3    H167109   5.240   5.523   5.652  0.3509  2.2213 -0.2221
15206TIP3    H267110   5.156   5.454   5.757  1.2320 -1.2389 -1.6577
15207TIP3   OH267111   3.934   4.711  12.234 -0.1140 -0.7723 -0.4179
15207TIP3    H167112   3.860   4.664  12.197  0.0859 -0.4122 -1.2963
15207TIP3    H267113   3.941   4.791  12.182 -1.8009  1.3712  2.3507
15208TIP3   OH267114   1.966   6.101  13.111  0.6348 -0.6797 -0.0294
15208TIP3    H167115   1.903   6.063  13.171  0.0885 -3.0813 -1.9786
15208TIP3    H267116   2.022   6.028  13.085  1.9065  0.6233 -1.1622
15209TIP3   OH267117   0.068   2.574  16.403 -0.2885 -0.0245  0.3706
15209TIP3    H167118   0.128   2.646  16.387 -1.0351  0.9868  1.8999
15209TIP3    H267119   0.067   2.563  16.498  0.3185 -2.5247  0.1683
15210TIP3   OH267120   3.338   0.844  14.670  0.4304  0.3799  0.1545
15210TIP3    H167121   3.306   0.904  14.738  0.5930  0.7902 -0.1268
15210TIP3    H267122   3.370   0.901  14.600 -1.5322 -0.0047 -1.1539
15211TIP3   OH267123   2.113   0.627   5.987  0.0373 -0.1810 -0.3326
15211TIP3    H167124   2.125   0.575   6.066  0.7731  0.3661 -0.0813
15211TIP3    H267125   2.182   0.693   5.990 -0.4975  0.4226 -0.9683
15212TIP3   OH267126   1.493   3.217  12.982 -0.0160  0.4112  0.3359
15212TIP3    H167127   1.585   3.208  12.957 -0.1818  0.0469 -0.1495
15212TIP3    H267128   1.496   3.264  13.066  0.6259  0.1497  0.4695
15213TIP3   OH267129   2.202   0.659   4.035  0.1257  0.3016 -0.2183
15213TIP3    H167130   2.265   0.625   4.099  0.3515 -0.9786 -1.0696
15213TIP3    H267131   2.146   0.583   4.015 -0.9733  1.1231 -0.3160
15214TIP3   OH267132   2.169   2.106  16.248  0.1908 -0.2233  0.0947
15214TIP3    H167133   2.112   2.161  16.301  0.7072  0.4206 -0.0060
15214TIP3    H267134   2.122   2.095  16.165  0.2425  0.3808 -0.0202
15215TIP3   OH267135   6.470   6.577   3.380  0.9411 -0.0057 -0.0163
15215TIP3    H167136   6.458   6.491   3.340  2.6898 -0.4704  0.4029
15215TIP3    H267137   6.384   6.597   3.419  0.6632 -1.8232  0.3987
15216TIP3   OH267138   4.660   3.688  14.048 -0.1853  0.4006  0.7356
15216TIP3    H167139   4.616   3.761  14.004 -1.5922 -0.8331  0.0205
15216TIP3    H267140   4.592   3.621  14.058  0.8798 -0.5307  2.0669
15217TIP3   OH267141   4.175   1.460  11.832  0.4292 -0.5311  0.5546
15217TIP3    H167142   4.079   1.454  11.829  0.4989 -1.4646 -0.3633
15217TIP3    H267143   4.194   1.548  11.798 -0.0260 -1.2624 -1.7844
15218TIP3   OH267144   1.362   1.292   5.755  0.1733 -0.1234  0.1247
15218TIP3    H167145   1.456   1.289   5.774  0.3280 -0.2096 -0.6442
15218TIP3    H267146   1.332   1.202   5.766  0.2081 -0.1262  0.1987
15219TIP3   OH267147   1.854   5.226   1.368 -0.1228  0.3035  0.8619
15219TIP3    H167148   1.839   5.237   1.274  0.0178 -3.3900  0.2926
15219TIP3    H267149   1.947   5.244   1.379  0.2493 -0.9610 -0.0522
15220TIP3   OH267150   3.122   1.587   4.400  0.6373  0.0085  0.5878
15220TIP3    H167151   3.158   1.552   4.481  2.4590 -1.5727 -0.8166
15220TIP3    H267152   3.196   1.589   4.339 -0.7846  0.5368 -1.2479
15221TIP3   OH267153   3.117   0.682   0.986  0.2230  0.3138 -0.4897
15221TIP3    H167154   3.039   0.681   1.041  1.0422 -0.4231  0.7061
15221TIP3    H267155   3.095   0.624   0.913  0.3776 -1.6681  0.9631
15222TIP3   OH267156   1.774   0.733  12.212 -0.0719  0.6742 -0.1271
15222TIP3    H167157   1.715   0.667  12.178  1.0613 -0.3437 -0.1718
15222TIP3    H267158   1.777   0.716  12.306 -0.1279  0.9688 -0.0698
15223TIP3   OH267159   3.885   5.796   3.097  0.0096  0.2073 -0.0228
15223TIP3    H167160   3.818   5.803   3.165  0.3634  1.9137  0.1939
15223TIP3    H267161   3.896   5.885   3.065  0.5504 -0.4137 -1.6672
15224TIP3   OH267162   0.303   0.402   4.506  0.2473  0.4796 -1.0509
15224TIP3    H167163   0.294   0.322   4.454 -1.8382 -0.2032  0.2481
15224TIP3    H267164   0.363   0.378   4.576 -0.7224 -0.1332 -0.4048
15225TIP3   OH267165   1.332   0.587  14.633 -0.5681  0.5299 -0.0078
15225TIP3    H167166   1.258   0.540  14.596 -0.2274 -0.2011  0.2063
15225TIP3    H267167   1.372   0.632  14.559 -1.3112  1.0644 -0.0951
15226TIP3   OH267168   5.857   3.906  14.345 -0.3951  0.0082  0.4069
15226TIP3    H167169   5.824   3.850  14.275 -0.9363 -0.6326  1.1576
15226TIP3    H267170   5.829   3.994  14.321 -0.8134 -0.2431 -0.0454
15227TIP3   OH267171   0.881   2.545  15.216 -0.5267  0.0495  0.0932
15227TIP3    H167172   0.921   2.596  15.286 -1.5094  1.0089  0.0001
15227TIP3    H267173   0.918   2.458  15.225  2.1049  1.0381 -0.4608
15228TIP3   OH267174   3.924   4.259   0.918 -0.2795  0.6826  0.1726
15228TIP3    H167175   4.001   4.293   0.873 -0.0767  3.1199  2.1710
15228TIP3    H267176   3.850   4.306   0.879 -0.1818  2.1959  1.7326
15229TIP3   OH267177   3.509   0.028   1.922  0.9079  0.0035  0.3819
15229TIP3    H167178   3.549   0.114   1.907  0.4915  0.2786  0.8095
15229TIP3    H267179   3.456   0.012   1.845  2.2062 -0.5900 -0.4264
15230TIP3   OH267180   2.551   0.554   5.163  0.4850  0.3520 -0.0255
15230TIP3    H167181   2.470   0.536   5.210  0.6324 -1.3059 -0.3645
15230TIP3    H267182   2.535   0.638   5.120 -1.3973 -0.3387 -0.8048
15231TIP3   OH267183   4.221   2.531   1.828 -0.3919 -0.3541  0.2769
15231TIP3    H167184   4.183   2.494   1.748  0.8679 -0.3635 -0.3432
15231TIP3    H267185   4.169   2.492   1.899 -0.0204 -2.2367 -0.4185
15232TIP3   OH267186   2.969   1.569   2.220  0.1636  0.3744  0.3372
15232TIP3    H167187   2.874   1.566   2.226  0.1815  0.8285  1.0459
15232TIP3    H267188   2.996   1.478   2.212 -0.5190  0.3196 -4.1351
15233TIP3   OH267189   3.409   2.881  16.556  0.7249  0.1010 -0.1715
15233TIP3    H167190   3.355   2.929  16.619  0.4522 -1.2135  0.6369
15233TIP3    H267191   3.472   2.833  16.610  1.0474 -0.3588 -0.9442
15234TIP3   OH267192   5.502   2.194  11.441  0.2236 -0.7046  0.4768
15234TIP3    H167193   5.480   2.284  11.465  0.0805 -0.7890  0.6665
15234TIP3    H267194   5.537   2.200  11.352  0.6350 -0.4027  0.6585
15235TIP3   OH267195   1.846   0.720   1.174 -0.3161 -0.1814 -0.6258
15235TIP3    H167196   1.907   0.652   1.203  0.1123  0.9301  1.2807
15235TIP3    H267197   1.791   0.678   1.108 -0.7322 -2.6742  1.1871
15236TIP3   OH267198   3.893   1.256   4.657 -0.0790 -0.0185 -0.5560
15236TIP3    H167199   3.830   1.217   4.718 -0.6076 -1.4038 -1.9262
15236TIP3    H267200   3.898   1.194   4.584 -1.5907  2.7989 -3.3055
15237TIP3   OH267201   2.339   6.041   3.882 -0.7112 -0.3821 -0.2182
15237TIP3    H167202   2.356   6.113   3.943 -1.5633  0.3281 -0.7983
15237TIP3    H267203   2.384   5.966   3.921 -0.7462  0.1911  0.9796
15238TIP3   OH267204   4.614   5.494   5.572  0.2312 -0.2955  0.0582
15238TIP3    H167205   4.652   5.407   5.559  1.4342  0.2800 -0.3905
15238TIP3    H267206   4.681   5.543   5.620 -1.0513 -0.0540  1.7179
15239TIP3   OH267207   0.077   5.990   3.971 -0.0954 -0.0429 -0.1903
15239TIP3    H167208   0.033   6.074   3.958 -0.0751  0.1075  0.6105
15239TIP3    H267209   0.077   5.948   3.885  2.3405  1.9536 -1.3236
15240TIP3   OH267210   1.159   2.419  14.964 -0.0772 -0.0748  0.2857
15240TIP3    H167211   1.098   2.487  14.935  0.8070  0.6211  0.0458
15240TIP3    H267212   1.161   2.356  14.892 -0.2035  0.1100  0.1192
15241TIP3   OH267213   1.548   3.490   4.827 -0.1183  0.0745  0.3598
15241TIP3    H167214   1.579   3.399   4.832 -1.4249 -0.6053 -2.1186
15241TIP3    H267215   1.604   3.531   4.761 -1.9222 -0.1045 -1.3861
15242TIP3   OH267216   6.358   3.044   2.906  0.6912 -0.1296  0.6565
15242TIP3    H167217   6.299   3.025   2.834  1.2790  0.6225 -0.0422
15242TIP3    H267218   6.424   2.974   2.903  1.4709  0.6252 -0.3859
15243TIP3   OH267219   5.693   5.393   2.476  0.1280  0.1680 -0.3551
15243TIP3    H167220   5.773   5.445   2.479  0.1780  0.0572  0.9086
15243TIP3    H267221   5.669   5.392   2.384  0.5601  1.7490 -0.5188
15244TIP3   OH267222   1.703   2.741   6.009 -0.0810  0.7364  0.4772
15244TIP3    H167223   1.730   2.653   5.982 -0.9226  0.7290 -0.4078
15244TIP3    H267224   1.647   2.727   6.085 -0.6943  0.4399 -0.0171
15245TIP3   OH267225   2.926   4.206   0.340  0.2634 -0.3268 -0.2444
15245TIP3    H167226   2.980   4.129   0.358 -1.8643 -1.8993 -0.2914
15245TIP3    H267227   2.855   4.173   0.284 -0.1858  1.8768 -1.0591
15246TIP3   OH267228   6.463   2.352   2.169 -0.0644  0.6007 -0.6097
15246TIP3    H167229   6.463   2.391   2.256  0.6284  1.9067 -1.1659
15246TIP3    H267230   6.482   2.425   2.110  0.4713 -0.4347 -1.7703
15247TIP3   OH267231   6.042   6.177   4.672 -0.2645 -0.1225  0.2685
15247TIP3    H167232   6.056   6.084   4.690 -2.3228 -0.6796 -0.7069
15247TIP3    H267233   5.948   6.185   4.655 -0.2552  2.2586  0.9110
15248TIP3   OH267234   2.493   1.240   1.127  0.2445 -0.6890  0.3599
15248TIP3    H167235   2.409   1.199   1.144  0.8044 -1.5291  1.2468
15248TIP3    H267236   2.546   1.219   1.205  1.7703 -1.5383 -0.8580
15249TIP3   OH267237   2.876   5.482  13.662  0.5298 -0.7984 -0.5681
15249TIP3    H167238   2.882   5.551  13.728  1.8910  0.0108 -1.4977
15249TIP3    H267239   2.907   5.403  13.708 -0.4785 -0.6965  0.3235
15250TIP3   OH267240   1.316   2.751   1.544  0.3315  0.4107  0.3243
15250TIP3    H167241   1.398   2.794   1.517 -0.2588  0.6066 -1.3083
15250TIP3    H267242   1.313   2.762   1.639  1.1946  2.2196  0.1826
15251TIP3   OH267243   5.585   3.643  13.458 -0.0783  0.0613  0.5872
15251TIP3    H167244   5.550   3.655  13.370 -1.9622  1.2943  1.4510
15251TIP3    H267245   5.674   3.680  13.454  0.0801 -0.4163 -0.9053
15252TIP3   OH267246   1.681   2.747  16.128 -0.6055  0.1484 -0.7709
15252TIP3    H167247   1.686   2.655  16.155 -2.2444  0.2578  0.0842
15252TIP3    H267248   1.731   2.751  16.046 -0.3130 -1.4512 -0.7095
15253TIP3   OH267249   0.763   6.079  13.293  0.3393 -0.2272  0.4466
15253TIP3    H167250   0.707   6.026  13.350  1.0910 -0.8481  0.6256
15253TIP3    H267251   0.703   6.118  13.230 -0.2900 -0.8916  0.6218
15254TIP3   OH267252   6.668   6.236   3.879  0.3371 -0.1319  0.2798
15254TIP3    H167253   6.743   6.263   3.933  0.4031 -0.5572  0.4103
15254TIP3    H267254   6.706   6.184   3.809  0.0886 -1.2558  0.9427
15255TIP3   OH267255   6.264   6.248   4.819  0.2598 -0.4955 -0.2337
15255TIP3    H167256   6.338   6.197   4.785  0.5604  0.1968 -0.6581
15255TIP3    H267257   6.196   6.239   4.752 -0.3063 -1.6895  0.4756
15256TIP3   OH267258   3.098   2.740   5.082 -0.3295 -0.2950 -0.6427
15256TIP3    H167259   3.026   2.681   5.103  0.1911 -0.2141  1.6430
15256TIP3    H267260   3.139   2.759   5.167  1.6489  0.5975 -1.7324
15257TIP3   OH267261   6.256   3.631  10.350 -0.2248 -0.3432 -0.9507
15257TIP3    H167262   6.333   3.647  10.404 -0.7131 -2.1501  0.3906
15257TIP3    H267263   6.265   3.541  10.322 -1.4784 -0.3465 -1.3995
15258TIP3   OH267264   3.492   6.706   3.018  0.3658 -0.3811  0.3624
15258TIP3    H167265   3.544   6.704   3.099  0.2948 -0.4241  0.4069
15258TIP3    H267266   3.403   6.722   3.047  0.4966  0.6658  0.2101
15259TIP3   OH267267   4.583   3.935   3.163  0.0640 -0.0771 -0.3250
15259TIP3    H167268   4.672   3.967   3.181 -0.8384  1.7583  1.3407
15259TIP3    H267269   4.527   4.009   3.186 -2.0164 -1.8142  0.4859
15260TIP3   OH267270   1.492   1.863   2.874 -0.0972  0.8145  0.0600
15260TIP3    H167271   1.495   1.769   2.859  0.2692  0.5227  1.7615
15260TIP3    H267272   1.430   1.896   2.809  0.0853 -0.5295 -0.8363
15261TIP3   OH267273   4.156   3.224   5.093  0.1183 -0.4618  0.3360
15261TIP3    H167274   4.158   3.168   5.016 -1.9416  0.9125 -0.7954
15261TIP3    H267275   4.086   3.287   5.076  0.9878  1.2139  2.4184
15262TIP3   OH267276   6.406   5.796  14.264  0.6063 -0.5056 -0.0195
15262TIP3    H167277   6.489   5.805  14.218  0.9480 -0.7925  0.5286
15262TIP3    H267278   6.411   5.710  14.308 -0.5527 -1.1714 -1.1176
15263TIP3   OH267279   0.176   3.535  16.696  0.3264 -0.8844 -0.0829
15263TIP3    H167280   0.187   3.630  16.697  1.2516 -0.9849  0.8152
15263TIP3    H267281   0.247   3.501  16.751  1.1639 -2.2247 -1.8506
15264TIP3   OH267282   5.126   2.053   6.021  0.0072  0.6366 -0.0450
15264TIP3    H167283   5.107   2.130   6.075 -1.5044 -0.1761  0.6400
15264TIP3    H267284   5.137   1.982   6.084 -1.1082 -0.1932 -0.7611
15265TIP3   OH267285   4.254   4.621   1.795  0.7275  0.2342  0.1320
15265TIP3    H167286   4.307   4.586   1.724 -0.3581 -1.7282  0.2134
15265TIP3    H267287   4.303   4.600   1.875  0.0710 -1.2585  0.1828
15266TIP3   OH267288   0.192   4.443   4.657  0.2148  0.3423 -1.0780
15266TIP3    H167289   0.121   4.443   4.721  1.5547  0.4990  0.4454
15266TIP3    H267290   0.192   4.354   4.620  0.1561 -0.0996 -0.0323
15267TIP3   OH267291   4.905   6.292  15.822  0.0697 -0.3097 -0.1111
15267TIP3    H167292   4.841   6.308  15.753  0.6454  0.1856 -0.5371
15267TIP3    H267293   4.870   6.217  15.870  0.1886 -1.3707 -1.5919
15268TIP3   OH267294   3.704   3.020   2.114  0.2967  0.4189 -0.4304
15268TIP3    H167295   3.733   2.929   2.114  1.8716  0.8872  0.3566
15268TIP3    H267296   3.730   3.053   2.200 -0.8558  1.4414 -0.4485
15269TIP3   OH267297   5.255   3.798  11.918 -0.0853  0.1381  0.3696
15269TIP3    H167298   5.311   3.873  11.900  0.1078 -0.1086 -0.0615
15269TIP3    H267299   5.312   3.722  11.908 -0.3846 -0.0904  0.3715
15270TIP3   OH267300   2.664   4.142  15.347 -0.2248 -0.5012 -0.3716
15270TIP3    H167301   2.745   4.141  15.400 -0.5419 -0.7821  0.1159
15270TIP3    H267302   2.632   4.231  15.356  1.5020  0.4707 -2.8666
15271TIP3   OH267303   6.455   6.682  11.611  0.0507 -0.0395  0.4897
15271TIP3    H167304   6.368   6.677  11.573  0.0836  0.6593  0.3163
15271TIP3    H267305   6.446   6.738  11.688  0.5202  0.7905 -0.0508
15272TIP3   OH267306   4.466   3.175  15.822 -0.1990  0.2325  0.3283
15272TIP3    H167307   4.419   3.113  15.766  1.9896 -0.1556 -1.2001
15272TIP3    H267308   4.559   3.161  15.801  0.4496  3.2714  0.7082
15273TIP3   OH267309   5.381   6.825  13.054 -0.4145 -0.2151 -0.2784
15273TIP3    H167310   5.402   6.754  13.115 -0.4160 -0.8662 -1.0210
15273TIP3    H267311   5.287   6.815  13.038 -0.2047 -0.7360 -1.2348
15274TIP3   OH267312   1.420   3.193   1.232 -0.0059  0.2190 -0.2470
15274TIP3    H167313   1.337   3.204   1.186  0.8487 -0.3625 -2.0071
15274TIP3    H267314   1.469   3.273   1.214  1.2097 -0.8979 -2.3555
15275TIP3   OH267315   3.834   2.803  12.394  0.7366 -0.3110  0.1284
15275TIP3    H167316   3.874   2.734  12.342 -0.2306 -0.1190 -0.8914
15275TIP3    H267317   3.777   2.757  12.456  1.7959 -0.5293  0.9730
15276TIP3   OH267318   2.705   3.702   6.366  0.6242  0.7174  0.0113
15276TIP3    H167319   2.688   3.715   6.460 -0.2361  1.7990 -0.2739
15276TIP3    H267320   2.627   3.656   6.335 -0.6167  3.1763 -0.7575
15277TIP3   OH267321   5.693   2.700  12.975 -0.1659  0.2518  0.9493
15277TIP3    H167322   5.668   2.656  13.056  0.0160 -0.5790  0.5647
15277TIP3    H267323   5.754   2.769  13.003 -1.3332  1.0103  1.6705
15278TIP3   OH267324   1.783   0.644   3.293 -0.0272  0.6196  0.7642
15278TIP3    H167325   1.688   0.639   3.304 -0.0082 -1.9471  0.3573
15278TIP3    H267326   1.818   0.635   3.381 -0.1487 -0.1096  0.7410
15279TIP3   OH267327   5.962   5.611  14.421  0.4238  0.6898 -0.2300
15279TIP3    H167328   6.041   5.594  14.473  0.2461  0.8758  0.1010
15279TIP3    H267329   5.916   5.527  14.421  1.2888  0.1817 -1.5829
15280TIP3   OH267330   6.706   2.676   2.139  0.1816 -0.3289  0.2917
15280TIP3    H167331   6.642   2.640   2.077  0.0709 -0.7006  0.6166
15280TIP3    H267332   6.770   2.605   2.151  1.1297  0.3342 -0.6765
15281TIP3   OH267333   1.825   6.262   0.697 -0.2600  0.1873 -0.2854
15281TIP3    H167334   1.809   6.265   0.603 -0.6058  0.5609 -0.2174
15281TIP3    H267335   1.901   6.319   0.710 -0.9692  1.1280 -0.1895
15282TIP3   OH267336   4.788   0.293   0.891 -0.6341 -0.2998  0.0525
15282TIP3    H167337   4.833   0.377   0.887  0.2786 -0.7861 -0.1088
15282TIP3    H267338   4.697   0.316   0.911 -0.3060  0.6883  0.4748
15283TIP3   OH267339   6.061   4.453   4.381  0.5107  0.3401 -0.4569
15283TIP3    H167340   6.152   4.483   4.390  0.2240  1.5362 -1.3012
15283TIP3    H267341   6.068   4.358   4.378  1.6280  0.3613  0.6222
15284TIP3   OH267342   4.544   1.512  11.144 -0.0724  0.3889 -0.8748
15284TIP3    H167343   4.498   1.487  11.224  1.1651 -3.4271 -1.1118
15284TIP3    H267344   4.478   1.508  11.075 -0.4789  0.3435 -0.4824
15285TIP3   OH267345   1.317   3.415  16.553  0.1937 -0.2818  0.1391
15285TIP3    H167346   1.355   3.350  16.494  1.0831  2.0622 -2.0621
15285TIP3    H267347   1.308   3.369  16.637  1.8095 -2.8644 -0.9774
15286TIP3   OH267348   4.736   4.904  16.628  0.1442 -0.1388 -0.5741
15286TIP3    H167349   4.677   4.905  16.552  0.4706  1.3152 -0.8372
15286TIP3    H267350   4.808   4.962  16.604 -1.2920  3.0545  1.9856
15287TIP3   OH267351   4.618   1.172   4.394  0.3347 -0.1781  0.1256
15287TIP3    H167352   4.600   1.130   4.478 -0.1521 -2.6482 -1.1183
15287TIP3    H267353   4.708   1.146   4.374  0.9735  1.6065  0.4901
15288TIP3   OH267354   1.166   5.671   5.125 -0.1971  0.1636  0.0733
15288TIP3    H167355   1.117   5.668   5.207 -0.2870  1.3958  0.0798
15288TIP3    H267356   1.250   5.631   5.146 -1.0416 -1.7084  0.1382
15289TIP3   OH267357   2.898   2.722  11.794 -0.3395 -0.2321  0.1242
15289TIP3    H167358   2.920   2.660  11.725  0.0226  0.5230 -0.4598
15289TIP3    H267359   2.899   2.670  11.874  2.4457 -0.5397  0.0133
15290TIP3   OH267360   5.109   2.678   4.405 -0.3458 -0.2934  0.2953
15290TIP3    H167361   5.015   2.681   4.424 -0.4375  0.5157 -0.2407
15290TIP3    H267362   5.150   2.659   4.490 -0.9217  0.5966  0.7898
15291TIP3   OH267363   3.884   1.503  11.832  0.2499 -0.3366  0.1795
15291TIP3    H167364   3.847   1.425  11.874  1.6938 -0.2983  1.6190
15291TIP3    H267365   3.869   1.573  11.896  4.0259 -0.6057  1.5597
15292TIP3   OH267366   6.827   3.449  10.543  0.0319  0.4266  1.0578
15292TIP3    H167367   6.886   3.422  10.472 -1.8924 -0.2265 -0.3816
15292TIP3    H267368   6.853   3.539  10.563  1.6612  0.0867  0.6852
15293TIP3   OH267369   0.793   1.190  14.102  0.9800  0.6907 -0.0178
15293TIP3    H167370   0.869   1.189  14.160  2.0534 -0.5583 -1.3377
15293TIP3    H267371   0.796   1.105  14.058  0.0619  1.4558 -1.6613
15294TIP3   OH267372   3.433   0.206  12.291  0.1561 -0.4030  0.8465
15294TIP3    H167373   3.422   0.243  12.379  0.2807 -0.0716  0.7218
15294TIP3    H267374   3.527   0.197  12.280  0.1574 -0.0955  0.6022
15295TIP3   OH267375   4.819   4.899   3.229 -0.8248  0.0406  0.1889
15295TIP3    H167376   4.760   4.828   3.255 -0.8158  0.5870  1.7618
15295TIP3    H267377   4.761   4.966   3.193 -0.7464 -1.1679 -2.4675
15296TIP3   OH267378   0.935   0.203  11.494 -0.2325 -0.2758 -0.1296
15296TIP3    H167379   1.023   0.218  11.529 -0.0161 -1.2343 -0.2253
15296TIP3    H267380   0.932   0.109  11.476 -1.4425 -0.3394  0.3092
15297TIP3   OH267381   1.649   0.055  15.329  0.3411 -0.0316 -0.8587
15297TIP3    H167382   1.624   0.127  15.387 -0.3960 -1.1050  0.2115
15297TIP3    H267383   1.734   0.027  15.362  0.1615 -0.3030 -0.6226
15298TIP3   OH267384   2.535   2.071   1.341 -0.0150  0.3470 -0.3757
15298TIP3    H167385   2.490   2.134   1.397  0.2274 -0.3205  0.6027
15298TIP3    H267386   2.464   2.022   1.300 -0.2349 -0.6181  1.0643
15299TIP3   OH267387   2.179   6.432   2.069 -0.3471  0.5997  0.3004
15299TIP3    H167388   2.150   6.515   2.105  1.1859  0.1817  2.6979
15299TIP3    H267389   2.117   6.367   2.103 -1.4883  0.6841 -1.4917
15300TIP3   OH267390   5.197   4.621   1.442 -0.0206 -0.2952  0.1166
15300TIP3    H167391   5.274   4.564   1.448  1.2844  1.2172 -1.2508
15300TIP3    H267392   5.176   4.623   1.348  0.0092  1.4557  0.1169
15301TIP3   OH267393   6.825   3.817  11.883  0.8056 -0.3278 -0.6851
15301TIP3    H167394   6.805   3.910  11.888 -0.1806 -0.3434 -2.9467
15301TIP3    H267395   6.740   3.775  11.873  1.1317 -1.6308  1.4067
15302TIP3   OH267396   2.786   1.526   4.702 -0.3237 -0.1226 -0.7910
15302TIP3    H167397   2.853   1.482   4.755 -0.3708  0.2581 -0.4118
15302TIP3    H267398   2.834   1.593   4.654 -0.6549  1.1718  0.6326
15303TIP3   OH267399   0.184   1.463  13.250  0.2953 -0.1744 -0.0605
15303TIP3    H167400   0.098   1.503  13.240 -0.0999 -0.8137  0.6159
15303TIP3    H267401   0.240   1.507  13.186 -0.4949  0.3638 -0.3865
15304TIP3   OH267402   0.491   0.570  12.437  0.0941  0.1037 -0.3511
15304TIP3    H167403   0.474   0.619  12.517  0.9866  0.6320 -0.4712
15304TIP3    H267404   0.411   0.579  12.385  0.0657  1.0053 -0.1540
15305TIP3   OH267405   6.205   5.338   5.071  0.1467 -0.4163 -0.3187
15305TIP3    H167406   6.300   5.346   5.072  0.0164  1.6911  0.7079
15305TIP3    H267407   6.189   5.245   5.056  2.3476 -0.7181 -1.1536
15306TIP3   OH267408   2.441   1.215  10.490  0.1594  0.3544  0.6610
15306TIP3    H167409   2.382   1.185  10.420  0.6503 -1.3354  0.9296
15306TIP3    H267410   2.383   1.232  10.564 -0.1617  0.3364  0.4159
15307TIP3   OH267411   6.622   6.230   0.893  0.2397 -0.8431 -0.1890
15307TIP3    H167412   6.555   6.296   0.877  0.1314 -0.7986  0.4218
15307TIP3    H267413   6.701   6.266   0.854  0.2805 -0.1480  0.5069
15308TIP3   OH267414   5.814   3.161  14.925 -0.0764  0.3895  0.3288
15308TIP3    H167415   5.827   3.217  14.849  0.3695  0.7850  0.6842
15308TIP3    H267416   5.736   3.196  14.968 -1.4802 -1.0059 -0.9506
15309TIP3   OH267417   0.675   4.351   0.121  0.1684 -0.5817 -0.6854
15309TIP3    H167418   0.615   4.276   0.127 -0.5592  0.0225 -0.3311
15309TIP3    H267419   0.712   4.345   0.033 -0.2899 -1.0542 -0.8508
15310TIP3   OH267420   4.288   1.509   1.287  0.2162 -0.0783 -0.1347
15310TIP3    H167421   4.347   1.582   1.268 -0.0134  0.3486  0.7607
15310TIP3    H267422   4.318   1.474   1.371  0.2922 -0.9947 -0.5248
15311TIP3   OH267423   1.002   1.718   4.621  0.3675  0.6679  0.4616
15311TIP3    H167424   0.972   1.760   4.702 -1.3162  1.1362 -0.3525
15311TIP3    H267425   1.043   1.789   4.571 -0.4350  0.8636  0.0578
15312TIP3   OH267426   4.436   5.061  17.021 -0.1623 -0.3565  0.2122
15312TIP3    H167427   4.395   5.085  16.938 -0.7415 -0.5076  0.4534
15312TIP3    H267428   4.410   4.970  17.035  0.5573 -0.5735  0.1891
15313TIP3   OH267429   5.575   3.984  16.401 -0.3040  0.0531  0.5670
15313TIP3    H167430   5.608   4.001  16.313  0.6607 -0.4306  0.8215
15313TIP3    H267431   5.513   4.055  16.418 -0.6418  0.0414 -0.5690
15314TIP3   OH267432   3.760   6.128  14.188 -0.6454 -0.0907 -0.7076
15314TIP3    H167433   3.828   6.103  14.251  0.0199  2.0727 -0.4814
15314TIP3    H267434   3.683   6.076  14.214  0.8509 -2.6030 -0.9802
15315TIP3   OH267435   5.622   6.401  12.057 -0.0574  0.6880 -0.0280
15315TIP3    H167436   5.666   6.446  11.985 -2.0045  1.2762 -0.9170
15315TIP3    H267437   5.607   6.313  12.025 -2.5306  1.4375 -1.1514
15316TIP3   OH267438   0.987   3.171   6.376 -0.1193 -0.3863  0.3432
15316TIP3    H167439   0.936   3.250   6.395  0.4161 -0.0636  0.4949
15316TIP3    H267440   0.975   3.115   6.453  0.8850  0.3006  1.0430
15317TIP3   OH267441   1.803   1.955  12.957 -0.1462 -0.0211  0.3562
15317TIP3    H167442   1.834   2.037  12.996 -0.7328 -0.6621  2.2550
15317TIP3    H267443   1.712   1.948  12.985 -0.4187 -0.8186 -0.6648
15318TIP3   OH267444   3.176   4.522  10.944 -0.1031 -0.3363 -0.4591
15318TIP3    H167445   3.223   4.573  10.878 -0.6423 -0.0265 -0.6079
15318TIP3    H267446   3.084   4.544  10.930 -0.2326 -0.3788  0.2995
15319TIP3   OH267447   2.061   2.614   0.809  0.6989 -0.7410 -0.1477
15319TIP3    H167448   2.066   2.681   0.877  0.4239  0.4830 -1.2689
15319TIP3    H267449   1.970   2.585   0.810  0.3632  0.2366 -0.8401
15320TIP3   OH267450   4.622   3.659   1.718 -0.4515  0.2663  0.5635
15320TIP3    H167451   4.698   3.640   1.773  1.3158  0.1864 -1.7060
15320TIP3    H267452   4.596   3.574   1.682  0.1399  0.6031 -0.7304
15321TIP3   OH267453   1.831   5.138  14.780 -0.4012 -0.2334 -0.0353
15321TIP3    H167454   1.862   5.079  14.848  2.2465  0.2769 -0.6697
15321TIP3    H267455   1.832   5.225  14.820  2.8106  0.3237 -1.0346
15322TIP3   OH267456   4.107   0.338  11.122  0.6295 -0.0009  0.1624
15322TIP3    H167457   4.018   0.326  11.155  1.1029  0.1023  1.5115
15322TIP3    H267458   4.125   0.258  11.073  0.4180 -0.8056  1.3553
15323TIP3   OH267459   1.574   4.152   1.210  0.4380  0.1910 -0.2438
15323TIP3    H167460   1.534   4.132   1.294  0.9954 -0.1926 -0.0638
15323TIP3    H267461   1.518   4.108   1.146 -0.2288  0.8394 -0.1156
15324TIP3   OH267462   0.045   4.225   4.859 -0.2092 -0.1273  0.2121
15324TIP3    H167463  -0.001   4.174   4.925 -0.6798 -0.2026 -0.1710
15324TIP3    H267464  -0.002   4.209   4.778  1.6108 -1.7159 -0.6020
15325TIP3   OH267465   6.228   1.239  15.128  0.0761  0.3862  0.0387
15325TIP3    H167466   6.203   1.260  15.038 -0.8426 -1.4331 -0.1924
15325TIP3    H267467   6.305   1.183  15.119  0.5183  0.9127  0.4519
15326TIP3   OH267468   0.860   5.199   0.890  0.2484 -0.1157 -0.1446
15326TIP3    H167469   0.903   5.196   0.975  0.5009  1.1857 -0.2173
15326TIP3    H267470   0.766   5.205   0.911  0.2731 -0.3233  0.0308
15327TIP3   OH267471   0.126   3.286  15.184 -0.1903  0.4118 -0.2348
15327TIP3    H167472   0.214   3.275  15.150 -0.9725 -1.6673 -1.7853
15327TIP3    H267473   0.113   3.213  15.245 -1.2373 -0.0487 -0.9746
15328TIP3   OH267474   2.538   6.602  11.046 -0.0338 -0.3937 -0.3916
15328TIP3    H167475   2.542   6.521  10.996  1.5821  0.1510 -1.2117
15328TIP3    H267476   2.568   6.577  11.134  0.5050 -0.6832 -0.6524
15329TIP3   OH267477   3.532   2.247  11.120 -0.4140  0.2073  0.4847
15329TIP3    H167478   3.512   2.190  11.046 -0.5617  1.5092 -0.4991
15329TIP3    H267479   3.474   2.322  11.110  1.4362  1.7054  0.3514
15330TIP3   OH267480   3.701   5.867  12.676  0.1855 -0.1510  0.6103
15330TIP3    H167481   3.642   5.793  12.691 -0.5268 -0.1882 -1.8181
15330TIP3    H267482   3.787   5.827  12.666  0.2218 -0.3673  1.6751
15331TIP3   OH267483   5.220   1.075  14.693 -0.1003  0.4197 -0.7667
15331TIP3    H167484   5.313   1.094  14.705 -0.4378  1.5678  0.2545
15331TIP3    H267485   5.216   1.025  14.612  1.2755  1.5014 -1.5434
15332TIP3   OH267486   6.186   4.331  12.817 -0.5050  0.2015  0.8938
15332TIP3    H167487   6.257   4.330  12.752  2.1100  1.1797  3.4956
15332TIP3    H267488   6.187   4.243  12.855 -0.6028  0.2521  1.0131
15333TIP3   OH267489   5.890   0.091  14.646 -0.3863 -0.4925  0.2809
15333TIP3    H167490   5.977   0.052  14.646 -1.5728 -3.4506 -1.2313
15333TIP3    H267491   5.898   0.169  14.592  1.2130 -1.0653 -0.3739
15334TIP3   OH267492   0.966   1.409  16.643 -0.0641  0.4437 -0.2547
15334TIP3    H167493   1.035   1.351  16.611 -2.7013 -3.0341 -0.1442
15334TIP3    H267494   1.013   1.486  16.676  3.5825 -1.0180 -1.5735
15335TIP3   OH267495   6.250   0.168  12.297  0.3874 -0.2181  0.1216
15335TIP3    H167496   6.228   0.170  12.204  2.1919 -1.1190 -0.3620
15335TIP3    H267497   6.344   0.183  12.300  0.4859 -0.9454  1.7600
15336TIP3   OH267498   1.655   0.540   0.726  0.0878 -0.1754 -0.5146
15336TIP3    H167499   1.594   0.540   0.799 -0.1483  0.4528 -0.7128
15336TIP3    H267500   1.673   0.447   0.710  1.8233 -0.3122  1.7244
15337TIP3   OH267501   4.988   6.302  12.147 -0.1847  0.5886 -0.7908
15337TIP3    H167502   4.899   6.330  12.167 -0.1995 -0.4878  0.7702
15337TIP3    H267503   4.977   6.230  12.085 -0.7054 -2.1618  2.2650
15338TIP3   OH267504   3.946   5.067  15.354  0.3923  0.0522  0.0734
15338TIP3    H167505   4.003   5.131  15.312  1.9476 -1.5509 -0.4120
15338TIP3    H267506   3.892   5.032  15.283  0.6469 -0.2558  0.0260
15339TIP3   OH267507   1.650   1.958  16.129 -0.5658 -0.3350 -0.0162
15339TIP3    H167508   1.654   1.919  16.216  3.9752  0.2800  0.2518
15339TIP3    H267509   1.687   2.045  16.140  0.4035 -0.3525 -2.6096
15340TIP3   OH267510   1.587   2.064   2.196  0.6292  0.1344  0.3141
15340TIP3    H167511   1.650   2.003   2.158  1.8545  0.1012  2.2438
15340TIP3    H267512   1.583   2.137   2.133 -0.9948 -1.8796 -2.1088
15341TIP3   OH267513   4.202   5.928  12.433  0.0248 -0.0104 -0.0222
15341TIP3    H167514   4.172   5.946  12.522  3.8469 -1.7873  1.8806
15341TIP3    H267515   4.152   5.851  12.406 -0.6902  0.1203  0.8760
15342TIP3   OH267516   4.234   6.548   5.093 -0.3003  0.8835 -0.7480
15342TIP3    H167517   4.312   6.529   5.147 -0.1728  0.5555 -1.0439
15342TIP3    H267518   4.163   6.501   5.137 -0.3413  1.2145 -0.4553
15343TIP3   OH267519   4.366   6.381  12.592 -0.2042  0.6530 -0.5123
15343TIP3    H167520   4.460   6.369  12.604  0.5872  4.3562 -1.5758
15343TIP3    H267521   4.356   6.398  12.498 -1.7667  1.4160 -0.2482
15344TIP3   OH267522   6.388   2.927  11.266 -0.0066 -0.6622 -0.2258
15344TIP3    H167523   6.323   2.989  11.233 -0.5954 -2.1545 -2.0396
15344TIP3    H267524   6.341   2.873  11.329  0.2087 -0.0278  0.4925
15345TIP3   OH267525   4.997   2.276  15.531  0.1367 -0.1576 -0.3374
15345TIP3    H167526   5.043   2.322  15.600 -0.7875  0.5249 -0.1678
15345TIP3    H267527   5.022   2.321  15.450 -0.2293  0.2132 -0.2449
15346TIP3   OH267528   1.188   1.899  11.461 -0.6711 -0.0980 -0.0368
15346TIP3    H167529   1.166   1.978  11.412 -1.9341 -1.6434 -2.1077
15346TIP3    H267530   1.261   1.860  11.412 -0.2146 -0.3451  0.8231
15347TIP3   OH267531   3.063   3.320  14.664  0.2876  0.3494 -0.2009
15347TIP3    H167532   3.038   3.385  14.599  1.2385  1.0163  0.0741
15347TIP3    H267533   3.086   3.242  14.613 -0.4951  0.3422 -0.5544
15348TIP3   OH267534   2.210   2.040  16.830  0.1588  0.2267 -0.2528
15348TIP3    H167535   2.199   2.129  16.864  0.3389  0.2427 -0.2394
15348TIP3    H267536   2.262   2.051  16.751  0.0700  0.1474 -0.3221
15349TIP3   OH267537   4.159   6.817  16.866 -0.3763  0.2110 -0.1852
15349TIP3    H167538   4.081   6.872  16.869 -0.0319  0.7153 -0.3114
15349TIP3    H267539   4.127   6.728  16.881 -0.7481  0.6238  1.7130
15350TIP3   OH267540   3.171   4.378   7.779 -0.9319  0.1364 -0.2354
15350TIP3    H167541   3.219   4.326   7.843 -0.7692  1.1110  0.4572
15350TIP3    H267542   3.236   4.401   7.712 -0.8236  0.0746 -0.1514
15351TIP3   OH267543   4.215   1.205   1.687  0.3383 -0.4250 -0.0129
15351TIP3    H167544   4.215   1.142   1.616  0.2570  0.0629 -0.4533
15351TIP3    H267545   4.262   1.162   1.758  1.9850 -0.2431 -0.9595
15352TIP3   OH267546   2.632   2.798   5.248 -0.7619 -0.4410 -0.3538
15352TIP3    H167547   2.639   2.856   5.324  1.6053 -0.2749 -0.6409
15352TIP3    H267548   2.584   2.849   5.183  1.0167  1.1322 -0.5004
15353TIP3   OH267549   0.328   0.735   0.539 -0.0120 -1.0178 -0.0460
15353TIP3    H167550   0.321   0.734   0.635 -0.1610  0.2464 -0.0351
15353TIP3    H267551   0.252   0.685   0.509 -0.3008 -0.9041  0.4817
15354TIP3   OH267552   4.399   4.684  11.980 -0.2293  0.2804  0.1111
15354TIP3    H167553   4.495   4.686  11.971 -0.1414 -0.5894  0.6928
15354TIP3    H267554   4.384   4.710  12.071 -0.4188 -1.3735  0.5746
15355TIP3   OH267555   4.141   5.388  13.137 -0.1615  0.1154 -0.0835
15355TIP3    H167556   4.185   5.337  13.068  2.1749  1.4665  0.2953
15355TIP3    H267557   4.127   5.326  13.208 -1.4068 -0.9849 -1.2245
15356TIP3   OH267558   5.621   3.544   1.123 -0.1580 -0.1243  0.2747
15356TIP3    H167559   5.669   3.477   1.075 -0.2987 -0.4513  0.5839
15356TIP3    H267560   5.597   3.501   1.205 -0.5416  0.1958  0.3305
15357TIP3   OH267561   4.547   5.861   3.342 -0.3765 -0.2660 -0.0405
15357TIP3    H167562   4.498   5.939   3.367  0.1078  0.6504 -1.7518
15357TIP3    H267563   4.486   5.789   3.354 -2.3870  0.8508 -2.4329
15358TIP3   OH267564   4.288   4.018  11.126 -0.2027  0.6564 -0.5360
15358TIP3    H167565   4.259   4.109  11.119 -1.4959  0.4091  1.0323
15358TIP3    H267566   4.377   4.025  11.162 -0.2485  1.3000 -0.5254
15359TIP3   OH267567   4.858   5.621   0.398  0.3043  0.0145  0.0421
15359TIP3    H167568   4.945   5.584   0.408  0.4673  0.3195 -0.2420
15359TIP3    H267569   4.826   5.633   0.487  0.1421 -1.0473  0.1439
15360TIP3   OH267570   5.826   1.537  10.775 -0.1001 -0.1226  0.1755
15360TIP3    H167571   5.786   1.493  10.699 -0.5137  1.3567 -0.4849
15360TIP3    H267572   5.832   1.629  10.750  2.4731 -0.0328  0.7918
15361TIP3   OH267573   6.823   6.778   5.514  0.1456  0.2861 -0.4970
15361TIP3    H167574   6.794   6.755   5.603  1.1638 -1.0675 -0.4642
15361TIP3    H267575   6.777   6.716   5.458  2.4035 -1.5531 -0.4887
15362TIP3   OH267576   5.481   0.918  13.545 -0.0085  0.1494 -0.5305
15362TIP3    H167577   5.517   0.902  13.458  0.3054 -3.2442  0.0684
15362TIP3    H267578   5.555   0.952  13.596  0.4302 -0.0504 -1.0260
15363TIP3   OH267579   4.525   6.711  12.683 -0.4008 -0.2057  0.9313
15363TIP3    H167580   4.449   6.655  12.669  1.1610 -1.9412 -1.4613
15363TIP3    H267581   4.501   6.795  12.645 -0.5995 -1.2498 -1.3806
15364TIP3   OH267582   3.557   3.680   6.139  0.3523 -0.1809  0.5043
15364TIP3    H167583   3.583   3.599   6.183 -0.6378 -0.4292  0.6627
15364TIP3    H267584   3.462   3.675   6.135  0.1663  1.6492  1.7841
15365TIP3   OH267585   6.559   1.564  10.428 -0.4751 -0.2274  0.2080
15365TIP3    H167586   6.497   1.542  10.358 -1.0663  0.6575  0.4336
15365TIP3    H267587   6.522   1.522  10.505 -0.0831 -0.7964  0.0904
15366TIP3   OH267588   2.268   3.388   2.178 -0.6056 -0.1636  0.0118
15366TIP3    H167589   2.210   3.314   2.193  0.7139 -1.0478  0.8807
15366TIP3    H267590   2.270   3.397   2.083  0.5033 -2.3231 -0.2226
15367TIP3   OH267591   5.946   6.038   3.202  0.5384 -0.7127 -0.1467
15367TIP3    H167592   6.012   6.004   3.262  0.7395  1.7782  1.1768
15367TIP3    H267593   5.961   6.133   3.201 -1.0208 -0.4118 -2.2876
15368TIP3   OH267594   2.576   6.507   5.468  0.2984 -0.0576  0.2339
15368TIP3    H167595   2.646   6.479   5.526  0.3829  0.3317  0.3210
15368TIP3    H267596   2.616   6.509   5.381  0.0674 -1.0285  0.0914
15369TIP3   OH267597   5.933   0.014   0.220 -0.3202  0.0275  0.3936
15369TIP3    H167598   5.843   0.008   0.252 -0.2673  0.9607  0.7664
15369TIP3    H267599   5.953  -0.074   0.188 -1.6291 -0.0079 -0.4292
15370TIP3   OH267600   2.787   1.634   5.369 -0.2472 -0.4054 -0.4414
15370TIP3    H167601   2.783   1.542   5.343 -0.8656 -0.4283 -0.2748
15370TIP3    H267602   2.745   1.681   5.297  0.2333 -0.2320 -0.6130
15371TIP3   OH267603   4.854   0.904  11.545  0.1689  0.4122  0.7748
15371TIP3    H167604   4.783   0.841  11.532  1.4344 -0.9711  0.2526
15371TIP3    H267605   4.873   0.936  11.456  1.5063 -0.7523  0.6112
15372TIP3   OH267606   4.796   6.027  12.043  0.4567 -0.0589  0.0029
15372TIP3    H167607   4.766   6.019  12.133  0.5516 -0.7892 -0.0183
15372TIP3    H267608   4.744   5.962  11.995  1.1488 -0.4272 -0.2686
15373TIP3   OH267609   2.784   5.108  17.082  0.0088  0.0247 -0.1854
15373TIP3    H167610   2.872   5.091  17.050 -0.0050 -1.4260  0.4484
15373TIP3    H267611   2.744   5.164  17.015  1.3572  0.5966 -0.5352
15374TIP3   OH267612   4.766   2.781  14.476 -0.3637  0.3077  0.6901
15374TIP3    H167613   4.741   2.871  14.498 -1.2300  0.0810  0.6379
15374TIP3    H267614   4.827   2.791  14.402  0.1569  0.8887  1.1794
15375TIP3   OH267615   3.250   6.785  12.430  0.4012 -0.1488 -0.7068
15375TIP3    H167616   3.155   6.793  12.443  0.4257  0.5852 -0.9422
15375TIP3    H267617   3.260   6.764  12.337  0.3741 -2.4970 -0.2411
15376TIP3   OH267618   5.450   0.651   4.089 -0.3814  0.0678 -0.6872
15376TIP3    H167619   5.409   0.583   4.035 -1.7452 -0.0584  0.4573
15376TIP3    H267620   5.512   0.603   4.144  0.1947  0.0506 -1.3322
15377TIP3   OH267621   5.287   5.566   2.547  0.2675 -0.1175 -0.9077
15377TIP3    H167622   5.243   5.551   2.630  0.4084 -1.3366 -1.0351
15377TIP3    H267623   5.320   5.480   2.521  4.3473  0.9139  0.0578
15378TIP3   OH267624   4.180   3.418  15.981 -0.0014  0.4896  0.2770
15378TIP3    H167625   4.209   3.504  15.949  0.3805 -0.1702 -1.1780
15378TIP3    H267626   4.257   3.381  16.024  0.7047 -0.2926 -1.5801
15379TIP3   OH267627   0.330   3.214  12.095 -0.5536  0.0341  0.0935
15379TIP3    H167628   0.269   3.228  12.022  1.7889  1.2609 -1.7423
15379TIP3    H267629   0.414   3.195  12.054  0.6126 -0.4957  2.5178
15380TIP3   OH267630   1.295   4.172   2.735 -0.3459  0.0611  0.2134
15380TIP3    H167631   1.309   4.266   2.723 -0.1369  0.3316  2.1572
15380TIP3    H267632   1.200   4.162   2.741 -0.3495  0.2093  0.4046
15381TIP3   OH267633   0.342   0.658   1.251 -0.2018  0.2685  0.3711
15381TIP3    H167634   0.253   0.626   1.235  0.8783 -1.3874 -3.5292
15381TIP3    H267635   0.370   0.611   1.330 -1.8448 -1.3509  0.0620
15382TIP3   OH267636   1.861   4.450  15.680 -0.1733  0.3294 -0.7032
15382TIP3    H167637   1.847   4.479  15.590  2.4469 -0.3582 -1.4074
15382TIP3    H267638   1.941   4.494  15.708 -0.2844 -0.3928  0.8663
15383TIP3   OH267639   3.922   6.137  12.681  0.5106  0.5499  0.3304
15383TIP3    H167640   3.985   6.070  12.711  1.2210  0.1939 -1.8092
15383TIP3    H267641   3.871   6.093  12.613 -2.0012  0.9055  1.8796
15384TIP3   OH267642   2.224   0.579   3.276 -0.1582 -0.7392 -0.2777
15384TIP3    H167643   2.175   0.502   3.248  0.3878 -1.1471 -0.1271
15384TIP3    H267644   2.187   0.600   3.362 -0.3915 -0.7592 -0.3726
15385TIP3   OH267645   4.627   0.350   2.281 -0.6130  0.3930  0.0962
15385TIP3    H167646   4.561   0.412   2.312 -0.2470  0.8135  0.0347
15385TIP3    H267647   4.592   0.264   2.305 -0.9955  0.6355  0.4165
15386TIP3   OH267648   0.423   0.333   2.991 -0.0245 -0.1587  0.6464
15386TIP3    H167649   0.493   0.395   3.012 -0.6658  1.1621 -0.9018
15386TIP3    H267650   0.348   0.363   3.043 -0.2661  0.2810  0.0710
15387TIP3   OH267651   3.753   2.097   1.632 -0.1789 -0.0976 -0.1708
15387TIP3    H167652   3.763   2.166   1.697 -0.5742 -0.6387  0.4826
15387TIP3    H267653   3.679   2.045   1.663 -0.0486 -0.6706 -0.7801
15388TIP3   OH267654   2.174   0.907  14.756  0.3443 -0.3208  0.2464
15388TIP3    H167655   2.212   0.870  14.676  0.2062 -0.7724  0.3870
15388TIP3    H267656   2.128   0.986  14.726 -1.1553 -1.3848 -0.4084
15389TIP3   OH267657   6.832   0.478  12.666  0.0976  0.1952 -0.1564
15389TIP3    H167658   6.759   0.524  12.708 -0.9992 -2.0891  0.6282
15389TIP3    H267659   6.804   0.466  12.575  0.5908  1.3869 -0.4902
15390TIP3   OH267660   0.996   4.726   4.883  0.8520 -0.2051 -0.1271
15390TIP3    H167661   1.067   4.723   4.820 -0.2608 -0.2396 -1.4213
15390TIP3    H267662   0.985   4.820   4.901  2.3687 -0.2779  1.4826
15391TIP3   OH267663   5.465   5.333   5.907  0.3588 -0.2988 -0.2607
15391TIP3    H167664   5.544   5.281   5.890 -0.4137 -1.8645  0.5920
15391TIP3    H267665   5.396   5.267   5.917 -0.8478  0.9758  0.0464
15392TIP3   OH267666   1.713   5.701  11.380  0.2229  0.7966  0.2028
15392TIP3    H167667   1.625   5.677  11.408  0.5812 -1.1006 -0.1368
15392TIP3    H267668   1.725   5.655  11.297  0.6734  3.0208 -1.0462
15393TIP3   OH267669   0.029   0.512  14.096 -0.0679 -0.5266 -0.3808
15393TIP3    H167670   0.051   0.552  14.011  1.6792 -1.3894 -0.3854
15393TIP3    H267671   0.003   0.423  14.074  0.0966 -0.6585 -0.0381
15394TIP3   OH267672   0.256   2.510  13.812  0.0230 -0.1824 -0.0792
15394TIP3    H167673   0.274   2.504  13.718  0.1862 -0.5968 -0.0269
15394TIP3    H267674   0.164   2.485  13.820 -0.7699  2.3987 -0.3946
15395TIP3   OH267675   5.406   6.837  16.304 -0.0027  0.3376 -0.3327
15395TIP3    H167676   5.356   6.798  16.232  1.4823 -1.6834 -0.3672
15395TIP3    H267677   5.339   6.862  16.368 -1.1722 -1.0388 -0.9374
15396TIP3   OH267678   3.824   0.276  15.113 -0.3082  0.3355  0.2576
15396TIP3    H167679   3.736   0.248  15.088 -0.3944  0.2416  0.6550
15396TIP3    H267680   3.856   0.326  15.038 -0.3807 -0.3257 -0.2134
15397TIP3   OH267681   1.381   2.550  10.605  0.0257 -0.0439 -0.2691
15397TIP3    H167682   1.456   2.503  10.642 -0.7821 -0.8823  0.3593
15397TIP3    H267683   1.395   2.642  10.631  0.6261 -0.2557  0.1881
15398TIP3   OH267684   2.837   5.608  16.860 -0.0931  0.5675 -0.0514
15398TIP3    H167685   2.871   5.522  16.886 -0.4934  0.0751 -1.1137
15398TIP3    H267686   2.909   5.668  16.879  0.1792  0.0140  0.7416
15399TIP3   OH267687   2.182   3.117   0.517 -0.5854  0.7766 -0.1800
15399TIP3    H167688   2.267   3.082   0.492 -0.5877  1.3484 -1.0380
15399TIP3    H267689   2.201   3.176   0.590 -0.0122  2.0408 -1.3050
15400TIP3   OH267690   2.473   3.921   1.950  0.3172  0.0520 -0.1370
15400TIP3    H167691   2.542   3.976   1.914 -0.3894 -0.3196 -2.2160
15400TIP3    H267692   2.434   3.973   2.020  0.7892  1.4549 -0.8873
15401TIP3   OH267693   1.035   5.549  16.048  0.4263  0.4517 -0.0432
15401TIP3    H167694   1.115   5.556  16.101  0.7384  0.0257 -0.4512
15401TIP3    H267695   1.011   5.457  16.052  0.2389  0.4867 -0.3365
15402TIP3   OH267696   3.580   5.799  15.375  0.1522  0.4164 -0.2598
15402TIP3    H167697   3.625   5.851  15.308  3.1725 -1.5962 -0.0236
15402TIP3    H267698   3.572   5.712  15.336  2.0724 -0.8304  1.8678
15403TIP3   OH267699   1.593   5.927  13.025  0.6092  0.0017  0.0334
15403TIP3    H167700   1.562   5.889  12.943 -0.5065  0.8241  0.0383
15403TIP3    H267701   1.674   5.881  13.044  0.2446 -1.0745 -0.8837
15404TIP3   OH267702   3.552   6.544   1.109  0.4194  0.0162  0.1034
15404TIP3    H167703   3.573   6.550   1.202 -1.1138  1.5582  0.4051
15404TIP3    H267704   3.619   6.597   1.066  2.1107 -1.9989  0.0860
15405TIP3   OH267705   3.636   2.051  11.914  0.7075  0.6576  0.1427
15405TIP3    H167706   3.656   1.959  11.897  3.2194  1.3143 -0.8865
15405TIP3    H267707   3.615   2.088  11.828  0.7464  1.2612  0.3849
15406TIP3   OH267708   1.608   3.975  16.573  0.1162  0.3238  0.0194
15406TIP3    H167709   1.680   3.926  16.534 -0.1297  0.9271 -1.2618
15406TIP3    H267710   1.648   4.053  16.609  0.0714  0.9268 -1.1728
15407TIP3   OH267711   5.331   0.140  11.378  0.2575 -0.1568 -0.2358
15407TIP3    H167712   5.371   0.124  11.464  0.3332 -1.5650 -0.5169
15407TIP3    H267713   5.240   0.160  11.398  0.0469 -1.3846  0.1399
15408TIP3   OH267714   6.642   2.687  14.386 -0.6195 -0.0683 -0.2554
15408TIP3    H167715   6.623   2.669  14.478 -1.1514  2.6525  0.2703
15408TIP3    H267716   6.556   2.694  14.345 -0.3893 -0.9759 -0.8998
15409TIP3   OH267717   5.181   6.120  14.734  0.1264  0.9655 -0.0593
15409TIP3    H167718   5.223   6.056  14.793  0.9003 -0.2757 -1.8769
15409TIP3    H267719   5.223   6.203  14.756  0.1650  0.6071  1.3446
15410TIP3   OH267720   5.579   5.854   3.312  0.2881  0.4467  0.0804
15410TIP3    H167721   5.594   5.914   3.384  2.8454 -4.4109  4.2139
15410TIP3    H267722   5.639   5.883   3.243  0.2969  3.3433  1.1862
15411TIP3   OH267723   6.801   2.215  14.828 -0.4373  0.1677 -0.0789
15411TIP3    H167724   6.853   2.178  14.899  0.0279  1.5816  0.3517
15411TIP3    H267725   6.844   2.184  14.748 -0.7325 -1.1126  0.2379
15412TIP3   OH267726   2.258   3.779  13.401  0.5836 -0.0482  0.3557
15412TIP3    H167727   2.277   3.693  13.362  0.4618  0.3537 -0.6112
15412TIP3    H267728   2.180   3.809  13.356  0.6446  0.5864  0.6697
15413TIP3   OH267729   3.503   6.751  14.224 -0.3185 -0.6803 -0.0307
15413TIP3    H167730   3.522   6.771  14.316  0.6387 -0.1562 -0.3318
15413TIP3    H267731   3.464   6.663  14.226  0.5042 -1.0405  0.7931
15414TIP3   OH267732   3.218   1.311  15.726 -0.2962 -0.3860 -0.2428
15414TIP3    H167733   3.170   1.339  15.805  1.5414  1.6392  0.2400
15414TIP3    H267734   3.254   1.225  15.749  0.4714  0.3094  1.2873
15415TIP3   OH267735   1.057   0.457   3.439  0.5816  0.0674 -0.6284
15415TIP3    H167736   1.057   0.435   3.346 -0.8480  1.1591 -0.9296
15415TIP3    H267737   0.965   0.470   3.460  0.9665  0.8288  0.6892
15416TIP3   OH267738   2.835   3.137   1.912 -0.5573 -0.1499 -0.4985
15416TIP3    H167739   2.796   3.221   1.938 -0.6191 -0.0807 -0.8072
15416TIP3    H267740   2.816   3.078   1.985  0.1579  0.3031  0.0656
15417TIP3   OH267741   2.318   0.419   4.941  0.1313 -0.2030  0.5184
15417TIP3    H167742   2.337   0.508   4.968  1.1734  0.4859 -2.1574
15417TIP3    H267743   2.222   0.417   4.932  0.1373  0.8159  0.0921
15418TIP3   OH267744   6.585   3.172  16.180  0.0749  0.0609 -0.0160
15418TIP3    H167745   6.501   3.190  16.222 -0.8188  0.0821 -1.7149
15418TIP3    H267746   6.607   3.254  16.136  1.0032  0.0532  0.4102
15419TIP3   OH267747   0.889   3.564  16.991 -0.3358  0.2815 -0.0547
15419TIP3    H167748   0.966   3.548  16.936 -0.2069  1.1022 -0.1284
15419TIP3    H267749   0.911   3.644  17.040 -0.3174 -0.5872  1.4231
15420TIP3   OH267750   4.496   0.489   2.773  0.2956  0.0387 -0.0777
15420TIP3    H167751   4.450   0.409   2.798 -1.1315  0.4963 -1.1175
15420TIP3    H267752   4.496   0.542   2.852 -0.7378 -0.0793  0.0095
15421TIP3   OH267753   3.062   1.878  16.919 -0.2529  0.0765  0.5454
15421TIP3    H167754   3.009   1.925  16.983 -0.2570  0.5284  0.2117
15421TIP3    H267755   3.152   1.885  16.952 -0.2534  0.3226  0.4932
15422TIP3   OH267756   4.151   3.280   3.395 -0.5040 -0.2281  0.0123
15422TIP3    H167757   4.241   3.309   3.410 -0.4682  0.1809 -0.9574
15422TIP3    H267758   4.100   3.361   3.389 -0.7618 -0.4309 -0.5277
15423TIP3   OH267759   6.448   5.096   5.049  0.1965  0.3991  0.2512
15423TIP3    H167760   6.514   5.152   5.007  1.7389 -2.7192 -1.8798
15423TIP3    H267761   6.489   5.067   5.131  0.7154 -0.0019 -0.1403
15424TIP3   OH267762   6.477   4.706  14.429  0.4507 -0.3420  0.8192
15424TIP3    H167763   6.502   4.621  14.393  0.7140  0.4161 -0.8680
15424TIP3    H267764   6.559   4.755  14.434 -0.2752  2.0074 -4.3404
15425TIP3   OH267765   0.915   3.063  11.714 -0.1368  0.4171  0.1234
15425TIP3    H167766   0.991   3.006  11.727 -0.2036  0.0449 -1.0209
15425TIP3    H267767   0.841   3.003  11.711 -0.4034  0.7200  0.4955
15426TIP3   OH267768   5.152   1.106   3.885  0.2424 -0.8139 -0.4450
15426TIP3    H167769   5.097   1.062   3.950  1.3085 -1.1304  0.2705
15426TIP3    H267770   5.241   1.079   3.908  0.7294  0.0393 -1.3095
15427TIP3   OH267771   5.736   4.586   3.421 -0.0565  0.2452 -0.2912
15427TIP3    H167772   5.817   4.631   3.398  1.8176 -2.3576  0.6896
15427TIP3    H267773   5.736   4.582   3.516 -0.7112 -0.8087 -0.3186
15428TIP3   OH267774   6.299   6.566  15.296  0.1169 -0.1003 -0.3291
15428TIP3    H167775   6.392   6.569  15.321 -0.1886  0.3554  0.8177
15428TIP3    H267776   6.252   6.583  15.378 -0.9899 -0.6655 -0.8377
15429TIP3   OH267777   2.080   0.111  16.820  0.0020 -0.1902 -0.2097
15429TIP3    H167778   2.073   0.058  16.899 -0.2499 -0.2179 -0.2482
15429TIP3    H267779   1.990   0.138  16.802  0.1652  0.4828 -0.0344
15430TIP3   OH267780   1.550   6.459  10.879  0.0769 -0.6384 -0.2687
15430TIP3    H167781   1.577   6.374  10.844 -1.3509 -1.6930  1.0412
15430TIP3    H267782   1.475   6.439  10.935  0.1062  1.4165  0.5884
15431TIP3   OH267783   5.800   4.419   4.696  0.2642 -0.0403 -0.4532
15431TIP3    H167784   5.745   4.344   4.671 -0.1737 -0.1611  0.8178
15431TIP3    H267785   5.890   4.387   4.687  0.1334 -0.0864 -1.8010
15432TIP3   OH267786   1.962   6.753  12.945  0.0539 -0.6058  0.4559
15432TIP3    H167787   1.882   6.731  12.992 -0.7957  3.3531  1.2923
15432TIP3    H267788   2.023   6.782  13.013  0.0198  1.9393 -0.4618
15433TIP3   OH267789   5.992   0.167   5.801  0.5559  1.0469  0.0265
15433TIP3    H167790   5.968   0.200   5.715  0.8630  1.0515 -0.0601
15433TIP3    H267791   5.925   0.201   5.860  0.3020  0.9806 -0.2211
15434TIP3   OH267792   4.844   5.155   3.746 -0.2721 -0.0625  0.4721
15434TIP3    H167793   4.856   5.062   3.764  0.4617  0.1351  1.0467
15434TIP3    H267794   4.827   5.160   3.652  0.2133 -0.7302  0.3468
15435TIP3   OH267795   4.587   5.736  14.920 -0.2936  0.8568 -0.2968
15435TIP3    H167796   4.604   5.784  15.001 -0.2074 -0.6637  0.6286
15435TIP3    H267797   4.673   5.711  14.888 -0.3789  0.3430 -0.1393
15436TIP3   OH267798   2.821   4.584  15.897  0.2387 -0.1890  0.3621
15436TIP3    H167799   2.886   4.515  15.913 -0.6857 -0.8677  1.2674
15436TIP3    H267800   2.738   4.538  15.887 -0.5098  0.8070  1.6221
15437TIP3   OH267801   3.957   0.193   5.754  0.0641 -0.3183  0.7451
15437TIP3    H167802   4.040   0.196   5.801  0.8372 -0.2620 -0.5602
15437TIP3    H267803   3.911   0.118   5.792  1.4892 -1.4753  0.3017
15438TIP3   OH267804   6.365   0.832  16.015  0.2044 -0.2741  0.0975
15438TIP3    H167805   6.389   0.754  16.065  3.0080 -0.2094 -0.9269
15438TIP3    H267806   6.410   0.904  16.060 -0.9847  0.4939  0.0782
15439TIP3   OH267807   5.507   2.491   0.730  0.2203 -0.5212  0.5723
15439TIP3    H167808   5.569   2.419   0.724 -0.6516 -1.2392 -0.1161
15439TIP3    H267809   5.488   2.514   0.640  0.6050  0.6911  0.7840
15440TIP3   OH267810   5.004   5.448  15.973  0.0387  0.6994 -0.0041
15440TIP3    H167811   4.976   5.516  15.912 -0.6603  1.3938  1.0568
15440TIP3    H267812   4.926   5.430  16.027  0.8810  0.7854  1.2935
15441TIP3   OH267813   6.198   6.607   3.510 -0.3497 -0.2873 -0.3726
15441TIP3    H167814   6.113   6.609   3.466 -0.4380 -3.2072 -0.5039
15441TIP3    H267815   6.182   6.558   3.590  1.1592 -0.6774 -0.2898
15442TIP3   OH267816   0.145   6.370   2.734 -0.2119 -0.0874  0.2213
15442TIP3    H167817   0.223   6.402   2.780 -0.8726 -0.0384  1.3111
15442TIP3    H267818   0.073   6.384   2.794 -1.1898  0.4689 -1.0275
15443TIP3   OH267819   2.374   5.658   5.395  0.3207  0.0435  0.6798
15443TIP3    H167820   2.456   5.659   5.347 -0.2676  2.0790 -0.3735
15443TIP3    H267821   2.381   5.582   5.453  1.4618 -2.0096 -1.9118
15444TIP3   OH267822   5.050   3.978   0.869 -0.4257  0.7115  0.3264
15444TIP3    H167823   5.034   4.072   0.864 -0.3595  0.7815  1.2305
15444TIP3    H267824   5.141   3.967   0.844  0.0392  1.0809  1.7651
15445TIP3   OH267825   3.003   6.247  16.460 -0.2103 -0.2505  0.2090
15445TIP3    H167826   2.908   6.238  16.473 -0.6322  2.2458 -0.5395
15445TIP3    H267827   3.012   6.282  16.371  1.1552  2.2320  1.2157
15446TIP3   OH267828   6.570   1.868  12.814  0.1305 -0.4723  0.1282
15446TIP3    H167829   6.526   1.949  12.840 -0.4408 -1.0183  0.8680
15446TIP3    H267830   6.499   1.805  12.800  0.6276 -1.1378  0.5663
15447TIP3   OH267831   4.289   3.352   2.843 -0.0686  0.0990 -0.0445
15447TIP3    H167832   4.287   3.446   2.824  1.3637  0.2715  0.5583
15447TIP3    H267833   4.254   3.345   2.931 -1.0530 -0.0561 -0.4314
15448TIP3   OH267834   3.293   3.388   0.426 -0.4680  0.0846  0.0833
15448TIP3    H167835   3.207   3.418   0.396 -0.6234  0.5890  1.0055
15448TIP3    H267836   3.275   3.337   0.504  0.1542  1.3082  1.0600
15449TIP3   OH267837   0.831   6.324  11.724 -0.4429 -0.3562 -0.3462
15449TIP3    H167838   0.876   6.297  11.803  0.1028  0.0860 -0.4949
15449TIP3    H267839   0.901   6.349  11.664 -0.8809  2.0554  0.0347
15450TIP3   OH267840   6.198   5.132   5.415 -0.2397 -0.0979  0.3339
15450TIP3    H167841   6.140   5.207   5.403 -0.6079  0.1420  2.9370
15450TIP3    H267842   6.146   5.057   5.387  0.0277  0.5355 -2.0103
15451TIP3   OH267843   0.199   2.629  11.753 -0.6554  0.1045 -0.0686
15451TIP3    H167844   0.293   2.631  11.736 -0.5468 -0.8953  0.3222
15451TIP3    H267845   0.160   2.603  11.669 -0.6379  0.9896 -0.3628
15452TIP3   OH267846   6.127   6.551   2.228 -0.6051  0.2142 -0.0150
15452TIP3    H167847   6.106   6.644   2.235  0.4170  0.5522 -1.1990
15452TIP3    H267848   6.164   6.528   2.314 -1.1609  0.8115  0.3885
15453TIP3   OH267849   6.793   4.189  11.336 -0.2268 -0.2443 -0.4487
15453TIP3    H167850   6.771   4.160  11.247 -0.6851 -3.7378  0.6478
15453TIP3    H267851   6.762   4.118  11.393  1.1771  1.2631  2.4264
15454TIP3   OH267852   1.455   1.435   4.408 -0.1186  0.1258  0.4893
15454TIP3    H167853   1.412   1.462   4.489 -1.7174 -0.8079 -0.0086
15454TIP3    H267854   1.458   1.339   4.412 -0.0008  0.0720 -0.4531
15455TIP3   OH267855   1.487   1.485  13.512 -0.2500 -0.0506 -0.7584
15455TIP3    H167856   1.406   1.441  13.538 -0.5424 -0.0920 -1.6889
15455TIP3    H267857   1.459   1.573  13.488  0.5117  1.1143  2.2941
15456TIP3   OH267858   6.318   0.608   1.452 -0.0945 -0.5458  0.3826
15456TIP3    H167859   6.332   0.554   1.375  1.9589  1.1756 -0.5648
15456TIP3    H267860   6.305   0.697   1.418  1.4979  0.3684  1.9732
15457TIP3   OH267861   0.160   3.327  13.817  0.0264 -0.2567 -0.0199
15457TIP3    H167862   0.147   3.235  13.793 -2.6137  0.2291 -0.7425
15457TIP3    H267863   0.130   3.332  13.908 -3.0058  0.4078 -0.9479
15458TIP3   OH267864   2.425   4.266  15.676 -0.6269 -0.0406 -0.1583
15458TIP3    H167865   2.420   4.174  15.653 -0.3784 -0.0316 -0.2582
15458TIP3    H267866   2.343   4.285  15.722 -0.3106 -0.5205  0.6233
15459TIP3   OH267867   5.994   5.003   1.444 -0.3214 -0.8308  0.0224
15459TIP3    H167868   5.923   4.961   1.492 -0.9772 -0.0119 -0.2203
15459TIP3    H267869   5.951   5.047   1.371  0.2065  1.1837  0.8785
15460TIP3   OH267870   0.502   5.723  13.383  0.1943 -0.2154 -0.4115
15460TIP3    H167871   0.588   5.694  13.352  0.5929 -1.1051  1.3855
15460TIP3    H267872   0.445   5.648  13.365  0.3017 -0.5041  0.4105
15461TIP3   OH267873   3.453   1.186   5.050 -0.4101 -0.0656 -0.3075
15461TIP3    H167874   3.480   1.223   4.966 -2.5389 -1.2933 -1.6353
15461TIP3    H267875   3.508   1.109   5.061 -0.2298  0.0078 -0.6753
15462TIP3   OH267876   2.678   4.275   5.178  0.2650 -0.0636  0.3312
15462TIP3    H167877   2.646   4.358   5.211  1.0946  1.3441 -2.1715
15462TIP3    H267878   2.600   4.231   5.143 -0.1065 -0.1997  1.2937
15463TIP3   OH267879   6.333   4.759  15.184 -0.3331 -0.4684  0.0745
15463TIP3    H167880   6.376   4.706  15.251 -0.1271  0.5188  0.7464
15463TIP3    H267881   6.400   4.821  15.155 -0.8432  0.0562 -0.0067
15464TIP3   OH267882   2.810   5.754   4.183  0.1021  0.3098 -0.6860
15464TIP3    H167883   2.730   5.795   4.213  0.3496  0.3623 -0.0758
15464TIP3    H267884   2.864   5.826   4.150  0.0872  0.3370 -0.6519
15465TIP3   OH267885   4.356   4.132   2.761  0.0267 -0.6841  0.1034
15465TIP3    H167886   4.388   4.063   2.820  1.2163 -0.3154 -0.0791
15465TIP3    H267887   4.262   4.135   2.777  0.3094 -0.5295  2.0888
15466TIP3   OH267888   2.061   2.018  16.040  0.5503  0.2113 -0.3159
15466TIP3    H167889   2.033   1.997  15.951  2.4138 -1.7268 -0.5119
15466TIP3    H267890   2.124   1.949  16.062 -1.5111 -0.7569  3.3661
15467TIP3   OH267891   6.283   5.390  15.077 -0.6669 -0.3643 -0.4605
15467TIP3    H167892   6.321   5.459  15.130  0.2593 -0.3871 -1.0755
15467TIP3    H267893   6.261   5.321  15.140  2.1029 -1.1697 -0.2407
15468TIP3   OH267894   3.472   2.607   3.376 -0.3266  0.0732 -0.0177
15468TIP3    H167895   3.414   2.536   3.402 -0.4473  0.2318  0.1539
15468TIP3    H267896   3.532   2.618   3.450 -0.3987  0.2432  0.0170
15469TIP3   OH267897   5.624   3.279   0.549  0.7211  0.5527 -0.1069
15469TIP3    H167898   5.593   3.189   0.546  0.8770  0.5158 -1.7885
15469TIP3    H267899   5.586   3.315   0.629 -0.4393 -0.6141 -0.0957
15470TIP3   OH267900   2.484   6.366  10.941 -0.1512 -0.0315 -0.5653
15470TIP3    H167901   2.446   6.287  10.980  0.9682 -0.8796 -1.1429
15470TIP3    H267902   2.409   6.424  10.926 -0.8046 -0.2897  1.3996
15471TIP3   OH267903   1.416   1.477   4.056 -0.2177 -0.1513 -0.3955
15471TIP3    H167904   1.434   1.505   3.966  1.1144  0.5292  0.0697
15471TIP3    H267905   1.489   1.420   4.079 -0.2816  0.0945  0.4363
15472TIP3   OH267906   4.640   6.100   4.832 -0.5104 -0.0590 -0.5323
15472TIP3    H167907   4.550   6.122   4.853 -0.4227  2.3667 -2.3079
15472TIP3    H267908   4.692   6.167   4.877  0.6996 -2.6340  2.2528
15473TIP3   OH267909   5.923   5.909  11.302  0.1500 -0.0926 -0.3305
15473TIP3    H167910   5.931   5.839  11.236  0.6158 -2.1643  1.7849
15473TIP3    H267911   5.831   5.910  11.325  0.1290  0.0492 -0.4216
15474TIP3   OH267912   1.831   3.170   4.156 -0.0240 -0.5766 -0.5863
15474TIP3    H167913   1.767   3.173   4.084  0.2978  0.8813 -0.8405
15474TIP3    H267914   1.916   3.180   4.113  0.1798  0.2138 -0.0354
15475TIP3   OH267915   3.847   3.342   5.408  0.0246  0.6050  0.3877
15475TIP3    H167916   3.933   3.382   5.419  0.7043 -1.0081  1.3657
15475TIP3    H267917   3.805   3.352   5.494 -0.3399  0.4371  0.2313
15476TIP3   OH267918   5.276   6.338  16.659  0.6082  0.6832  0.0347
15476TIP3    H167919   5.215   6.389  16.605 -1.2847 -0.8300  0.6378
15476TIP3    H267920   5.245   6.248  16.653  3.0393 -0.2272  0.1117
15477TIP3   OH267921   2.584   6.334   1.475  0.2277  0.1252 -0.2864
15477TIP3    H167922   2.546   6.414   1.438 -1.6296 -0.9698 -0.8480
15477TIP3    H267923   2.522   6.307   1.543  2.1475  0.5354  1.7615
15478TIP3   OH267924   3.898   6.438  16.595 -0.4806  0.2839 -0.0341
15478TIP3    H167925   3.952   6.511  16.626  0.1057  0.3087 -1.0695
15478TIP3    H267926   3.891   6.381  16.671 -0.0858  0.9202  0.4977
15479TIP3   OH267927   1.785   1.490   3.856 -0.1600  0.2208 -0.0111
15479TIP3    H167928   1.865   1.438   3.848  0.8055  1.5817  0.4472
15479TIP3    H267929   1.719   1.429   3.889  0.1907 -1.3612 -2.0410
15480TIP3   OH267930   4.627   2.587   5.184  0.4263  0.3045 -0.4679
15480TIP3    H167931   4.696   2.629   5.236 -1.1423  0.6315  1.4668
15480TIP3    H267932   4.547   2.634   5.209 -0.4167  0.6397 -3.4054
15481TIP3   OH267933   3.852   6.836  14.943  0.2434  0.3426  0.1447
15481TIP3    H167934   3.919   6.829  15.010  0.7699 -1.0378 -0.4785
15481TIP3    H267935   3.842   6.746  14.910  0.7487  1.1149 -2.3137
15482TIP3   OH267936   6.595   3.276   5.645  0.4973 -0.3940 -0.0022
15482TIP3    H167937   6.550   3.192   5.630 -0.0344 -0.1764  0.3482
15482TIP3    H267938   6.643   3.264   5.726 -1.3986  0.3479  1.3200
15483TIP3   OH267939   3.568   6.822  13.359 -0.0771  0.1239  0.2369
15483TIP3    H167940   3.493   6.780  13.318 -1.1487  0.1678  2.0614
15483TIP3    H267941   3.571   6.785  13.447  2.6495 -0.5911 -0.0633
15484TIP3   OH267942   4.289   5.614  12.508  0.4267  0.3661 -0.1538
15484TIP3    H167943   4.220   5.662  12.463  0.3733 -0.5381 -1.0626
15484TIP3    H267944   4.369   5.639  12.462  0.2593 -1.2683 -1.3857
15485TIP3   OH267945   5.745   1.654  15.034  0.2119  0.2704 -0.0328
15485TIP3    H167946   5.831   1.696  15.041  0.9249 -1.3234  1.8100
15485TIP3    H267947   5.764   1.567  14.999 -0.5956 -0.2062  0.6768
15486TIP3   OH267948   1.579   6.352  16.532 -0.4010 -0.5707 -0.3545
15486TIP3    H167949   1.629   6.431  16.552  0.9189 -1.3421 -0.4324
15486TIP3    H267950   1.533   6.331  16.613  1.0894 -0.9921  0.4164
15487TIP3   OH267951   0.457   1.559  11.973 -0.0286  0.2387  0.1700
15487TIP3    H167952   0.498   1.595  12.052  0.5208  1.4337 -0.6314
15487TIP3    H267953   0.367   1.592  11.976  0.4876  1.8249 -0.5923
15488TIP3   OH267954   2.269   1.754  12.289  0.6773 -0.4085  0.4707
15488TIP3    H167955   2.290   1.673  12.335 -0.1944 -0.3577  0.9897
15488TIP3    H267956   2.218   1.726  12.213  0.7141 -0.3706  0.4313
15489TIP3   OH267957   0.305   1.184  10.711  0.5838 -0.2931 -0.3849
15489TIP3    H167958   0.387   1.168  10.665  0.8433  2.7366 -1.2138
15489TIP3    H267959   0.240   1.198  10.642  0.3621  1.5734  0.1454
15490TIP3   OH267960   4.623   6.031   2.507 -0.3750  0.2032 -0.1009
15490TIP3    H167961   4.547   5.974   2.516 -0.3078  0.3846  2.3807
15490TIP3    H267962   4.603   6.106   2.564  2.3023 -0.5106  1.9456
15491TIP3   OH267963   3.358   0.048  14.631  0.2385 -0.2053 -0.5979
15491TIP3    H167964   3.341   0.057  14.724  0.9572  0.7848 -0.5408
15491TIP3    H267965   3.347   0.136  14.596 -1.1731 -0.7704 -1.6686
15492TIP3   OH267966   4.760   5.865   0.760  0.6350  0.2640  0.3370
15492TIP3    H167967   4.843   5.911   0.779  0.7707  0.2294 -0.1512
15492TIP3    H267968   4.722   5.915   0.688 -0.0084  0.5609  0.8700
15493TIP3   OH267969   3.750   2.652   0.525 -0.0644  0.0998  0.0187
15493TIP3    H167970   3.815   2.668   0.457  0.1118  0.3355  0.2380
15493TIP3    H267971   3.802   2.638   0.604 -0.2512 -0.6314  0.0160
15494TIP3   OH267972   2.628   0.105   1.225  0.2224 -0.0855  0.3171
15494TIP3    H167973   2.667   0.160   1.293 -0.7650  1.1248 -0.0527
15494TIP3    H267974   2.568   0.164   1.178  0.4564 -1.0312 -1.2364
15495TIP3   OH267975   5.088   4.016  10.527 -0.2271 -0.1373  0.2118
15495TIP3    H167976   5.023   3.963  10.481 -1.2349  3.5480 -3.0870
15495TIP3    H267977   5.043   4.045  10.606 -1.4671 -0.1540 -0.4638
15496TIP3   OH267978   0.276   2.244  15.638 -0.4205 -0.2934  0.1888
15496TIP3    H167979   0.319   2.234  15.553  0.0428  1.6896  0.1279
15496TIP3    H267980   0.338   2.296  15.690 -1.7730  0.7141  0.8538
15497TIP3   OH267981   3.744   4.040  13.561 -0.1916 -0.8456 -0.6550
15497TIP3    H167982   3.787   3.970  13.609 -1.1273 -0.8254  0.2522
15497TIP3    H267983   3.793   4.048  13.479  0.4194 -1.9978 -0.4085
15498TIP3   OH267984   1.887   4.220  15.831  0.0263 -0.8104 -0.4451
15498TIP3    H167985   1.851   4.132  15.820 -0.1379 -0.6922 -0.8629
15498TIP3    H267986   1.858   4.268  15.754  1.9484 -1.0047 -1.3474
15499TIP3   OH267987   3.415   0.401  11.817 -0.5862  0.6549  0.5583
15499TIP3    H167988   3.400   0.381  11.909  1.5755 -1.9998  0.4543
15499TIP3    H267989   3.431   0.495  11.815  1.0468  0.5304  3.1963
15500TIP3   OH267990   2.799   0.612  13.403  0.0628  0.9640 -0.3839
15500TIP3    H167991   2.720   0.659  13.430 -1.3004 -0.5935 -1.5313
15500TIP3    H267992   2.822   0.558  13.479  1.1035  2.6643  0.5972
15501TIP3   OH267993   3.516   3.392  10.976 -0.2286 -0.2177 -0.5190
15501TIP3    H167994   3.463   3.411  10.899 -0.0844  0.5624 -0.4366
15501TIP3    H267995   3.582   3.461  10.978 -1.0660  0.5997  1.0407
15502TIP3   OH267996   3.955   0.390   3.313  0.2085 -0.0723  0.1200
15502TIP3    H167997   3.976   0.403   3.405  2.6817  4.1231 -0.7808
15502TIP3    H267998   4.012   0.319   3.285  3.5073  2.0857  0.8288
15503TIP3   OH267999   1.628   5.394  11.517  0.2950 -0.9412  0.1232
15503TIP3    H168000   1.671   5.333  11.458  0.9223 -0.5598  0.1869
15503TIP3    H268001   1.693   5.462  11.535 -0.3880 -0.2607  0.0724
15504TIP3   OH268002   6.451   0.191   5.387  0.8116 -0.2859  0.3478
15504TIP3    H168003   6.494   0.267   5.348 -0.4609  1.1213  1.5697
15504TIP3    H268004   6.523   0.131   5.409  2.1009  1.5895  1.5296
15505TIP3   OH268005   0.785   1.918   2.435 -0.1110  0.0474  0.5196
15505TIP3    H168006   0.833   1.902   2.517 -0.3798  0.0178  0.6736
15505TIP3    H268007   0.699   1.948   2.464 -1.1449 -2.4598  0.3289
15506TIP3   OH268008   3.796   3.291   3.659  0.3662  0.4678 -0.2854
15506TIP3    H168009   3.838   3.347   3.725  1.1332  0.9487 -1.1435
15506TIP3    H268010   3.739   3.233   3.709 -0.3684  1.9353  0.6618
15507TIP3   OH268011   6.222   0.608  13.495  0.0266 -0.3254  0.0342
15507TIP3    H168012   6.147   0.624  13.552 -0.1221 -1.1182  0.0759
15507TIP3    H268013   6.289   0.572  13.554 -0.0735 -0.9934 -0.2475
15508TIP3   OH268014   5.645   5.385  10.499 -0.4738  0.6799 -0.4619
15508TIP3    H168015   5.603   5.364  10.582 -0.8677  0.0706 -0.8046
15508TIP3    H268016   5.628   5.308  10.444  0.7639  0.5895 -0.7398
15509TIP3   OH268017   5.759   2.135  13.623 -0.4548  0.2552 -0.5437
15509TIP3    H168018   5.774   2.041  13.628 -0.8740  0.2034 -0.2013
15509TIP3    H268019   5.686   2.151  13.682 -1.0257  0.6578 -1.3386
15510TIP3   OH268020   2.545   6.642  14.593  0.4159  0.0100 -0.4152
15510TIP3    H168021   2.627   6.641  14.545  0.0972 -1.5705 -0.9812
15510TIP3    H268022   2.479   6.615  14.529 -0.0496 -1.9307  0.8058
15511TIP3   OH268023   4.213   1.486   1.821 -0.0154  0.0808  0.1042
15511TIP3    H168024   4.156   1.411   1.839 -1.3203  1.4317  1.9711
15511TIP3    H268025   4.300   1.455   1.844 -0.2721 -1.3405 -0.7013
15512TIP3   OH268026   0.575   2.869   4.437  0.3833  0.3794  0.0628
15512TIP3    H168027   0.665   2.904   4.442  0.7460 -0.4577 -0.4807
15512TIP3    H268028   0.523   2.932   4.486  1.2856  0.8342  0.4660
15513TIP3   OH268029   0.128   3.927  12.359  0.8817 -0.1326 -0.2115
15513TIP3    H168030   0.164   3.843  12.390 -0.0407  0.1633  1.8336
15513TIP3    H268031   0.040   3.906  12.329  0.1303  0.2414  1.5671
15514TIP3   OH268032   3.226   2.979   4.789  0.3486 -0.6295  0.0128
15514TIP3    H168033   3.147   3.014   4.748  0.1329 -0.5370  0.5127
15514TIP3    H268034   3.196   2.905   4.841  0.8595 -1.8747 -1.3909
15515TIP3   OH268035   1.726   2.201   6.428 -0.0510  0.2819 -0.3982
15515TIP3    H168036   1.703   2.163   6.513  1.4892  0.0163 -0.0702
15515TIP3    H268037   1.792   2.142   6.393  0.3977  1.1987 -1.1241
15516TIP3   OH268038   3.873   5.398   4.891  0.0905 -1.1452  0.4798
15516TIP3    H168039   3.910   5.361   4.971  0.8259  0.9211  1.1823
15516TIP3    H268040   3.949   5.430   4.841 -0.5035  0.1945  0.3710
15517TIP3   OH268041   4.769   1.575   1.849 -0.3187 -0.2414  0.0232
15517TIP3    H168042   4.814   1.508   1.900 -0.2444 -0.0643  0.1895
15517TIP3    H268043   4.725   1.630   1.913 -0.9204 -0.5145 -0.1505
15518TIP3   OH268044   3.006   2.719  12.961 -0.0998 -0.1336 -0.5398
15518TIP3    H168045   3.064   2.772  12.906 -1.4791  1.4243 -0.5791
15518TIP3    H268046   2.965   2.782  13.021  0.0954 -1.5409  1.1718
15519TIP3   OH268047   5.551   4.046  14.768  0.1935  0.3702 -0.2206
15519TIP3    H168048   5.456   4.038  14.763  0.3009 -0.5542 -1.2478
15519TIP3    H268049   5.578   4.068  14.679  0.7837  2.9940  0.5218
15520TIP3   OH268050   6.289   5.043   2.338  0.3214  0.5382  0.1881
15520TIP3    H168051   6.202   5.052   2.299 -0.2002 -2.9102  0.2785
15520TIP3    H268052   6.272   5.020   2.429  1.3965  0.9931  0.5188
15521TIP3   OH268053   4.565   2.855  15.158 -0.1750  0.7046  0.2098
15521TIP3    H168054   4.636   2.794  15.142  1.0331  2.1646 -0.2311
15521TIP3    H268055   4.516   2.857  15.076  0.1523  0.7772  0.0136
15522TIP3   OH268056   5.422   0.250   2.820 -0.4458  0.1306  0.3610
15522TIP3    H168057   5.505   0.265   2.866 -0.3184 -1.1693  0.5906
15522TIP3    H268058   5.372   0.330   2.835 -0.2528 -0.0711  2.4381
15523TIP3   OH268059   3.125   2.913   2.960  0.0883 -0.2180 -0.2890
15523TIP3    H168060   3.185   2.877   2.896 -0.7458  2.0092 -2.4856
15523TIP3    H268061   3.068   2.839   2.984  0.5142 -1.1615 -2.0263
15524TIP3   OH268062   0.824   1.139   0.479  0.1901  0.3661  0.9336
15524TIP3    H168063   0.734   1.129   0.512  0.7318  1.4276  2.8432
15524TIP3    H268064   0.813   1.151   0.384 -1.3178 -5.2848  0.0033
15525TIP3   OH268065   2.295   5.954  13.001 -0.5727  0.4948 -0.4603
15525TIP3    H168066   2.214   5.906  13.014  0.6922 -1.8774 -0.8549
15525TIP3    H268067   2.292   5.983  12.910 -0.3724 -0.8768 -0.9277
15526TIP3   OH268068   4.084   0.497  16.803  0.1164  0.2275  0.5820
15526TIP3    H168069   4.048   0.585  16.793  1.1710  0.5209 -1.0836
15526TIP3    H268070   4.008   0.440  16.809 -0.6285  1.0468 -0.6305
15527TIP3   OH268071   5.871   2.117  11.775  0.6068 -0.4744  0.3588
15527TIP3    H168072   5.780   2.114  11.805  0.9701 -0.7667  1.4832
15527TIP3    H268073   5.903   2.202  11.805  0.7215 -0.3931  0.0082
15528TIP3   OH268074   5.165   4.788  16.114 -0.4481  0.0527 -0.2368
15528TIP3    H168075   5.071   4.804  16.105 -0.4304 -0.2452 -1.0839
15528TIP3    H268076   5.173   4.734  16.193 -0.9096  0.7039  0.2644
15529TIP3   OH268077   5.969   6.465   2.552 -0.2761  0.0204 -0.5127
15529TIP3    H168078   5.877   6.489   2.558 -0.2010  0.1879  0.0949
15529TIP3    H268079   6.015   6.532   2.603  0.2312  0.1970 -1.1751
15530TIP3   OH268080   0.157   2.330   2.918 -0.8477  0.0124 -0.0430
15530TIP3    H168081   0.090   2.381   2.872 -1.2477 -1.1675 -0.8073
15530TIP3    H268082   0.110   2.258   2.958 -0.1358 -0.4437  0.0010
15531TIP3   OH268083   1.306   4.306  16.069  0.2965  0.3748 -0.8170
15531TIP3    H168084   1.224   4.256  16.073  0.6462 -0.2799 -1.6143
15531TIP3    H268085   1.277   4.398  16.070 -0.4562  0.1531 -1.0559
15532TIP3   OH268086   0.897   4.887   3.598 -0.4856  0.2693  0.6546
15532TIP3    H168087   0.921   4.803   3.557 -0.7788 -0.1373  1.3021
15532TIP3    H268088   0.905   4.870   3.692  1.4284  1.5495  0.7758
15533TIP3   OH268089   2.592   3.366  15.499 -0.0414 -0.1701 -0.4997
15533TIP3    H168090   2.603   3.279  15.462 -0.2272 -0.0082 -0.9425
15533TIP3    H268091   2.677   3.408  15.487  0.2218 -0.4776  0.2267
15534TIP3   OH268092   0.538   6.809   0.277  0.1067  0.0914  0.0379
15534TIP3    H168093   0.487   6.754   0.337  1.2613  0.0704  1.0544
15534TIP3    H268094   0.489   6.892   0.273 -0.3748 -0.1695  0.4302
15535TIP3   OH268095   4.535   5.663  12.387 -0.5688  0.1643  0.2994
15535TIP3    H168096   4.600   5.643  12.320  0.8268  0.0216  1.6466
15535TIP3    H268097   4.545   5.757  12.403 -0.1866  0.0094  1.0094
15536TIP3   OH268098   1.468   3.992  13.070 -0.3291 -0.0565 -0.5947
15536TIP3    H168099   1.561   4.010  13.059 -0.0918  0.2761  1.4626
15536TIP3    H268100   1.459   3.898  13.055  0.4896 -0.2331 -0.0429
15537TIP3   OH268101   3.751   5.447  15.353 -0.4488 -0.1349  0.1440
15537TIP3    H168102   3.752   5.458  15.448 -0.0664 -1.5585  0.3258
15537TIP3    H268103   3.662   5.471  15.327 -0.0341  2.0718  0.5927
15538TIP3   OH268104   1.095   0.908  11.493 -0.4826  0.2365 -0.0012
15538TIP3    H168105   1.122   0.834  11.547  1.0148  0.7244 -0.0344
15538TIP3    H268106   1.071   0.976  11.555  0.9257  0.6873  0.0661
15539TIP3   OH268107   0.155   4.607   1.610  0.1784 -0.0603 -0.2738
15539TIP3    H168108   0.098   4.547   1.658  1.2254  0.0031  1.1367
15539TIP3    H268109   0.224   4.551   1.574  0.6080  0.1553  0.1962
15540TIP3   OH268110   6.358   2.440   1.216  0.1505 -0.0959 -0.5588
15540TIP3    H168111   6.331   2.348   1.218  0.1323 -0.1242 -1.5673
15540TIP3    H268112   6.449   2.439   1.247  0.8925 -0.7657 -2.5637
15541TIP3   OH268113   0.534   0.864  12.181 -0.1860 -0.5953  0.4018
15541TIP3    H168114   0.613   0.870  12.128 -0.3549 -1.3528  0.0468
15541TIP3    H268115   0.464   0.895  12.124 -0.0741  0.6651  0.9204
15542TIP3   OH268116   5.650   1.907   1.629 -0.0757 -0.2644  0.4510
15542TIP3    H168117   5.590   1.839   1.598 -0.9181  1.4912 -2.1120
15542TIP3    H268118   5.684   1.873   1.711 -3.8731 -1.7945  1.6228
15543TIP3   OH268119   5.368   5.707   0.705 -0.1993  0.1224  0.4181
15543TIP3    H168120   5.297   5.763   0.738  1.1089  1.4535  1.0487
15543TIP3    H268121   5.403   5.664   0.783 -0.0769 -0.2574  0.1538
15544TIP3   OH268122   0.043   3.840   1.698  0.2203 -0.1920 -0.0573
15544TIP3    H168123  -0.010   3.767   1.727  2.2486 -0.9021  2.1653
15544TIP3    H268124   0.071   3.816   1.609  0.2413 -1.7556  0.3475
15545TIP3   OH268125   5.492   1.908  16.521 -0.6990 -0.3568  0.5762
15545TIP3    H168126   5.552   1.864  16.461  1.9505  0.0816  2.6731
15545TIP3    H268127   5.474   1.842  16.589  0.0659  0.4816  1.6340
15546TIP3   OH268128   3.145   5.209   1.523  0.2226  0.5352 -0.2774
15546TIP3    H168129   3.185   5.291   1.494  0.7618 -0.0645 -1.2810
15546TIP3    H268130   3.198   5.140   1.482 -0.5669 -0.3085  0.0761
15547TIP3   OH268131   5.798   3.460   0.461  0.0390  0.1780  0.5299
15547TIP3    H168132   5.800   3.458   0.366  0.7787  1.7503  0.4839
15547TIP3    H268133   5.723   3.405   0.485  0.0731 -0.5455 -0.9226
15548TIP3   OH268134   2.569   4.994  14.216  0.0842  0.2009  0.4511
15548TIP3    H168135   2.587   5.016  14.124  1.6820 -0.3593  0.6008
15548TIP3    H268136   2.539   5.076  14.254 -1.6171  0.2084 -0.7913
15549TIP3   OH268137   3.586   0.222   4.815  0.3620 -0.1600 -0.4399
15549TIP3    H168138   3.544   0.155   4.761  0.0479 -0.0482 -0.3366
15549TIP3    H268139   3.672   0.186   4.835  0.5734 -0.1028 -1.2069
15550TIP3   OH268140   1.140   0.302   1.034 -0.4637  0.3285  0.0603
15550TIP3    H168141   1.198   0.263   0.968 -1.0249  0.3240 -0.4343
15550TIP3    H268142   1.059   0.252   1.027  0.0324 -0.8413  1.9597
15551TIP3   OH268143   4.034   6.325  15.295 -0.1570  0.1220  0.3757
15551TIP3    H168144   4.070   6.242  15.265  1.3287  0.7811  0.2738
15551TIP3    H268145   3.949   6.302  15.332  1.1079 -1.7407  2.3001
15552TIP3   OH268146   4.455   6.566   4.850 -0.2481  0.3723  0.5856
15552TIP3    H168147   4.409   6.483   4.839 -1.3070  1.0160  0.0137
15552TIP3    H268148   4.493   6.585   4.764  0.5604  0.1720  0.8842
15553TIP3   OH268149   0.552   5.046   3.590 -0.1454 -0.2969 -0.1440
15553TIP3    H168150   0.607   4.999   3.528 -0.3134  2.1772 -2.2993
15553TIP3    H268151   0.470   5.064   3.543 -1.3059 -0.4938  1.6642
15554TIP3   OH268152   0.543   5.322  17.021  0.5674  0.2683 -0.1001
15554TIP3    H168153   0.545   5.350  17.113 -1.0888  0.1183 -0.0030
15554TIP3    H268154   0.502   5.395  16.975 -1.6132 -0.9612 -0.2059
15555TIP3   OH268155   2.003   3.664   4.898 -0.0942  0.0982  0.4081
15555TIP3    H168156   2.003   3.607   4.821 -0.4131  2.4964 -1.4724
15555TIP3    H268157   1.970   3.608   4.969  2.0757 -2.7838 -0.6388
15556TIP3   OH268158   1.396   5.475  10.910 -0.1408  0.2256  0.2743
15556TIP3    H168159   1.353   5.532  10.846  0.2022  0.5120  0.2994
15556TIP3    H268160   1.487   5.505  10.913 -0.1589  0.2316  0.9186
15557TIP3   OH268161   0.175   1.383  11.527 -0.9587  0.4683 -0.2578
15557TIP3    H168162   0.221   1.321  11.471  0.5119  0.8712  0.4568
15557TIP3    H268163   0.082   1.360  11.518 -0.5798 -0.7416 -1.2876
15558TIP3   OH268164   0.043   0.242  14.475 -0.1146  0.2494  0.5349
15558TIP3    H168165   0.040   0.315  14.413  1.9388  0.2346  0.3533
15558TIP3    H268166   0.104   0.180  14.437 -0.5648 -0.8333  1.4933
15559TIP3   OH268167   0.720   3.140  11.477  0.1076 -0.4413 -0.4335
15559TIP3    H168168   0.694   3.223  11.517 -0.3533 -0.7460 -0.1021
15559TIP3    H268169   0.750   3.087  11.551  1.0945 -0.3169 -0.7302
15560TIP3   OH268170   1.587   5.248  16.890 -0.1979  0.1283 -0.4530
15560TIP3    H168171   1.554   5.335  16.867  1.1076  0.0641 -2.8834
15560TIP3    H268172   1.579   5.197  16.809 -0.4278 -1.8968  0.7587
15561TIP3   OH268173   3.544   0.969  12.610 -0.4969 -0.0044 -0.0089
15561TIP3    H168174   3.494   1.023  12.672  0.5772  1.4717 -0.3622
15561TIP3    H268175   3.552   1.024  12.532 -2.4865 -2.0950 -1.8460
15562TIP3   OH268176   0.398   1.152   0.201 -0.2618 -0.1870 -0.5701
15562TIP3    H168177   0.345   1.231   0.197 -0.6321 -0.4140 -0.1776
15562TIP3    H268178   0.371   1.108   0.281 -0.5611 -1.0705 -1.1428
15563TIP3   OH268179   5.573   1.391  12.591  1.0762  0.6343  0.4326
15563TIP3    H168180   5.556   1.335  12.515 -0.0275  3.4836 -1.6014
15563TIP3    H268181   5.512   1.359  12.658 -1.0359  0.6507 -1.3641
15564TIP3   OH268182   4.889   0.311   2.199  0.4316 -0.4632 -0.8970
15564TIP3    H168183   4.873   0.217   2.197  1.0933 -0.5665 -1.9217
15564TIP3    H268184   4.808   0.348   2.235 -0.0017 -1.3857 -0.8970
15565TIP3   OH268185   4.321   6.739   4.527  0.2389 -0.7097  0.0137
15565TIP3    H168186   4.332   6.834   4.532 -0.0950 -0.5605 -1.4904
15565TIP3    H268187   4.408   6.704   4.546  0.4936 -0.0764  0.0433
15566TIP3   OH268188   4.255   2.539  12.007  0.7965 -0.6423  0.2260
15566TIP3    H168189   4.215   2.471  11.954 -0.9622  0.3216  0.2324
15566TIP3    H268190   4.191   2.558  12.075  0.6145  1.8882 -0.5292
15567TIP3   OH268191   5.982   4.740   5.586  0.1834 -0.2318  0.0558
15567TIP3    H168192   5.898   4.707   5.553  0.0034  0.5819 -0.3155
15567TIP3    H268193   5.980   4.720   5.680  0.0890 -1.2781 -0.1582
15568TIP3   OH268194   1.945   5.907  16.704  0.4715 -0.3759 -0.1900
15568TIP3    H168195   2.009   5.857  16.756  0.7564  0.6702  0.4993
15568TIP3    H268196   1.990   5.923  16.621  0.9543 -0.0202  0.1298
15569TIP3   OH268197   2.281   5.819  13.966 -0.9479  0.1189 -0.1396
15569TIP3    H168198   2.259   5.762  14.040  1.1458 -0.3995  0.1643
15569TIP3    H268199   2.282   5.907  14.004  1.3664 -0.2634  0.8495
15570TIP3   OH268200   5.076   3.018   1.349  0.3031  0.4318  0.1270
15570TIP3    H168201   5.144   3.061   1.401  0.2571 -0.3139  0.8406
15570TIP3    H268202   5.101   2.925   1.350 -1.4260 -0.0921  1.5906
15571TIP3   OH268203   0.345   2.721  12.288  0.4328 -0.4138  0.0091
15571TIP3    H168204   0.333   2.672  12.207 -0.3912 -0.5242  0.1917
15571TIP3    H268205   0.320   2.811  12.265  0.9102 -0.2897 -0.0445
15572TIP3   OH268206   1.667   4.649  11.143  0.4141 -0.6895 -0.4868
15572TIP3    H168207   1.611   4.660  11.066  0.4876 -0.4056 -0.5032
15572TIP3    H268208   1.728   4.579  11.118 -0.0007 -1.0750 -0.4243
15573TIP3   OH268209   1.652   6.723  16.353 -0.0394  0.4629  0.8018
15573TIP3    H168210   1.666   6.645  16.300 -0.2969  1.1236 -0.2914
15573TIP3    H268211   1.723   6.723  16.416  0.0933 -0.5263  0.6693
15574TIP3   OH268212   6.106   2.758  15.412  0.3957  0.1129 -0.1450
15574TIP3    H168213   6.082   2.811  15.336 -3.0737 -2.0168 -0.7318
15574TIP3    H268214   6.128   2.672  15.375  0.1874 -0.5157  1.1273
15575TIP3   OH268215   0.810   4.747   3.117  0.6023  0.0451  0.5236
15575TIP3    H168216   0.872   4.819   3.131  1.7947 -1.0704  1.1188
15575TIP3    H268217   0.833   4.712   3.031  0.3922  0.0207  0.4774
15576TIP3   OH268218   6.725   5.210  14.511 -0.0566  0.5991  0.1300
15576TIP3    H168219   6.742   5.184  14.602  0.0117 -1.5652 -0.4473
15576TIP3    H268220   6.802   5.180  14.463  0.1042  2.1130 -0.6064
15577TIP3   OH268221   1.784   6.298   2.771 -0.1155 -0.4825  0.2043
15577TIP3    H168222   1.843   6.370   2.796  0.2495 -0.2435 -1.2535
15577TIP3    H268223   1.833   6.219   2.794 -0.3089 -0.2835  1.3574
15578TIP3   OH268224   6.818   1.581  16.075  0.3249 -0.0152  0.1622
15578TIP3    H168225   6.849   1.589  16.165  1.2130  0.2762 -0.1659
15578TIP3    H268226   6.885   1.624  16.021 -0.0832 -0.3718 -0.6611
15579TIP3   OH268227   2.299   3.087   3.537  0.2756  0.7516  0.3433
15579TIP3    H168228   2.341   3.125   3.460  2.9113  0.7495  1.6585
15579TIP3    H268229   2.363   3.025   3.572 -1.9708 -1.4043  0.9926
15580TIP3   OH268230   4.003   1.779   1.082 -0.3033 -0.3146  0.1697
15580TIP3    H168231   3.941   1.812   1.017 -0.0399 -0.5014 -0.1791
15580TIP3    H268232   4.027   1.692   1.050 -1.7909 -1.3098  1.6221
15581TIP3   OH268233   5.140   3.585  16.669  0.2065 -0.3621 -0.0411
15581TIP3    H168234   5.160   3.626  16.753  0.7051  1.2672 -0.9077
15581TIP3    H268235   5.094   3.504  16.691 -0.8213  0.6651  1.7606
15582TIP3   OH268236   4.171   4.964   2.114  0.3710  0.6325  0.1212
15582TIP3    H168237   4.109   4.992   2.182 -1.4849 -1.1557 -0.7328
15582TIP3    H268238   4.162   5.030   2.045 -0.2362  0.6549  0.2147
15583TIP3   OH268239   0.508   6.272   4.291  0.0090 -0.3500 -0.2326
15583TIP3    H168240   0.502   6.279   4.386 -1.6516 -2.1759 -0.1436
15583TIP3    H268241   0.466   6.188   4.270 -0.4701  0.4069 -2.6505
15584TIP3   OH268242   2.397   6.596   2.944 -0.3280 -0.6588 -0.4401
15584TIP3    H168243   2.486   6.613   2.915 -0.7625  0.7420 -1.0269
15584TIP3    H268244   2.367   6.525   2.887  0.5319 -1.4212  0.0338
15585TIP3   OH268245   1.685   6.390   1.924  0.3740 -0.2383  0.3463
15585TIP3    H168246   1.775   6.399   1.956  0.3985 -1.6046  0.7359
15585TIP3    H268247   1.660   6.478   1.896  2.3967 -0.1134 -1.3140
15586TIP3   OH268248   3.505   0.924  13.259  0.0411 -0.4019 -0.0650
15586TIP3    H168249   3.588   0.919  13.307  0.3102  0.2972 -0.4457
15586TIP3    H268250   3.466   0.837  13.271 -0.4049  0.0538  2.3045
15587TIP3   OH268251   3.137   5.754   3.537 -0.3251 -0.1642  0.2835
15587TIP3    H168252   3.082   5.759   3.459  1.4290 -0.6411 -1.0595
15587TIP3    H268253   3.166   5.663   3.541  0.3238  0.0557  0.9722
15588TIP3   OH268254   6.727   6.829   5.806 -0.4147 -0.3170  0.0254
15588TIP3    H168255   6.673   6.762   5.846 -1.7673  1.3300  1.0941
15588TIP3    H268256   6.671   6.906   5.801  1.4209  1.1044 -0.0512
15589TIP3   OH268257   2.704   1.537   1.307 -0.6412  0.1689 -0.0128
15589TIP3    H168258   2.669   1.587   1.234  0.5569  0.0417 -0.6878
15589TIP3    H268259   2.758   1.469   1.267 -1.0554 -0.7587  0.9400
15590TIP3   OH268260   1.929   1.410  14.929  0.2119 -0.1646 -0.0844
15590TIP3    H168261   1.901   1.470  14.998 -1.4024  0.4156 -1.1825
15590TIP3    H268262   1.923   1.461  14.848  3.8283 -0.2251 -0.5683
15591TIP3   OH268263   1.527   5.279  12.063 -0.2196 -0.1783 -0.0922
15591TIP3    H168264   1.446   5.246  12.024  0.8026 -3.3166  0.1403
15591TIP3    H268265   1.547   5.217  12.133  1.7039  1.2688  0.7231
15592TIP3   OH268266   6.015   4.653  16.730 -0.1643 -0.3912  0.3663
15592TIP3    H168267   5.968   4.631  16.811 -2.4482 -0.8589 -0.9945
15592TIP3    H268268   6.089   4.706  16.759 -0.6789 -0.8698  2.7859
15593TIP3   OH268269   4.638   1.864   0.918  0.6773  0.3833 -0.4506
15593TIP3    H168270   4.711   1.897   0.866  0.1686  0.5190 -1.0985
15593TIP3    H268271   4.677   1.836   1.001  1.3777  0.9434 -0.5854
15594TIP3   OH268272   4.544   0.571  17.118  0.0685  0.1871 -0.4398
15594TIP3    H168273   4.585   0.505  17.062 -5.0155 -2.5792 -1.5071
15594TIP3    H268274   4.540   0.649  17.064  1.3645 -0.2923 -1.2746
15595TIP3   OH268275   4.079   4.073   1.347 -0.4264  0.0581  0.0406
15595TIP3    H168276   4.153   4.123   1.314 -0.0741 -0.2046  0.4199
15595TIP3    H268277   4.010   4.086   1.282  0.6729 -1.5661 -1.5573
15596TIP3   OH268278   5.335   3.737  10.429 -0.1521 -0.3027 -0.7540
15596TIP3    H168279   5.343   3.767  10.338 -1.4161 -3.2460 -1.9567
15596TIP3    H268280   5.406   3.674  10.440 -1.0706 -1.2894 -0.3237
15597TIP3   OH268281   2.129   3.536   5.496 -0.7138 -0.0452 -0.4309
15597TIP3    H168282   2.125   3.525   5.401 -0.9455  1.8078 -0.6609
15597TIP3    H268283   2.037   3.537   5.523 -0.6622  0.1164 -0.2670
15598TIP3   OH268284   5.221   4.444   0.258 -0.5491 -0.0586  0.8047
15598TIP3    H168285   5.237   4.371   0.319 -0.2632 -0.3683  0.3606
15598TIP3    H268286   5.306   4.461   0.218 -1.1020 -1.0694 -0.8640
15599TIP3   OH268287   2.908   3.421   2.756 -0.2364  0.4607 -0.4951
15599TIP3    H168288   2.985   3.374   2.724 -0.6951  1.3128 -3.1130
15599TIP3    H268289   2.835   3.362   2.736 -0.4170  0.2925  0.6063
15600TIP3   OH268290   2.940   2.588   2.315  0.0076 -0.4330 -0.1548
15600TIP3    H168291   3.027   2.590   2.275  0.9037  1.6416  1.6913
15600TIP3    H268292   2.902   2.674   2.295 -0.5212 -0.3003  1.3085
15601TIP3   OH268293   2.420   3.351  13.440  0.2610  0.0804 -0.1121
15601TIP3    H168294   2.352   3.331  13.504 -0.9472  2.5632 -0.4709
15601TIP3    H268295   2.388   3.430  13.395  2.9850  0.8584 -0.9075
15602TIP3   OH268296   6.147   0.337   4.609  0.1776 -0.1634 -0.0171
15602TIP3    H168297   6.235   0.376   4.611  0.4946 -0.8893  0.5845
15602TIP3    H268298   6.088   0.412   4.612  0.7744  0.2989  0.6645
15603TIP3   OH268299   4.229   5.740   4.827  0.0675  0.5545  0.0256
15603TIP3    H168300   4.281   5.784   4.894  1.6559 -1.3804  0.1427
15603TIP3    H268301   4.168   5.685   4.877 -0.6862  1.2273 -0.1322
15604TIP3   OH268302   5.108   4.700   6.266  0.6766  0.6598 -0.0047
15604TIP3    H168303   5.173   4.767   6.289 -0.0365  0.5001  2.9121
15604TIP3    H268304   5.151   4.617   6.286  0.3640  0.4151 -0.3280
15605TIP3   OH268305   5.277   0.589   2.329  0.1235  0.3506 -0.4715
15605TIP3    H168306   5.222   0.590   2.407 -0.3081 -1.1450 -0.7330
15605TIP3    H268307   5.355   0.540   2.355 -0.3800 -0.8701 -1.1803
15606TIP3   OH268308   2.341   4.362  11.392 -0.5915 -0.0675  0.1008
15606TIP3    H168309   2.346   4.368  11.297 -0.6234  0.2251  0.1166
15606TIP3    H268310   2.260   4.313  11.409 -0.1076 -0.9239 -0.0436
15607TIP3   OH268311   3.160   1.518   5.760  0.0976 -0.4790  0.0818
15607TIP3    H168312   3.132   1.560   5.841  2.2532 -1.6564  1.5232
15607TIP3    H268313   3.098   1.550   5.694 -1.0376  1.3958  1.9376
15608TIP3   OH268314   4.927   0.370  15.873 -0.7142  0.4492 -0.0477
15608TIP3    H168315   4.942   0.339  15.963  0.0341  2.2821  0.5098
15608TIP3    H268316   4.832   0.384  15.868 -0.6317  1.5275  0.9183
15609TIP3   OH268317   1.361   3.260  12.203  0.4544 -0.0425  0.1777
15609TIP3    H168318   1.308   3.332  12.238 -0.4768 -1.3251  1.5316
15609TIP3    H268319   1.433   3.252  12.265  0.8255  0.0326 -0.2436
15610TIP3   OH268320   4.713   1.667   4.001  0.0230 -0.0618 -0.0915
15610TIP3    H168321   4.782   1.705   4.055  1.8202 -1.9345 -0.9160
15610TIP3    H268322   4.633   1.711   4.029  1.0952  0.1575  2.9618
15611TIP3   OH268323   2.943   1.647  16.892  0.0970 -0.3477 -0.4561
15611TIP3    H168324   2.951   1.734  16.930  2.6897 -0.4120 -0.6815
15611TIP3    H268325   3.032   1.624  16.867 -0.6357 -2.7943 -1.0412
15612TIP3   OH268326   4.985   0.106  10.776  0.2399  0.0143 -0.3317
15612TIP3    H168327   5.049   0.052  10.822  0.9555  0.2130 -1.0669
15612TIP3    H268328   4.995   0.193  10.814  0.0852 -0.0488 -0.1408
15613TIP3   OH268329   3.456   2.357   2.226  0.6609  0.1399  0.2681
15613TIP3    H168330   3.424   2.268   2.213  0.4493 -0.3782  3.4526
15613TIP3    H268331   3.384   2.402   2.270  0.6105  2.0817 -1.6292
15614TIP3   OH268332   6.764   4.007  16.225 -0.0213  0.2092  0.5906
15614TIP3    H168333   6.855   4.034  16.214  0.0726 -1.1100 -3.4919
15614TIP3    H268334   6.762   3.963  16.310  2.7574  1.4551  1.4234
15615TIP3   OH268335   2.556   1.805   1.612 -0.7377  0.1512 -0.1531
15615TIP3    H168336   2.579   1.727   1.563  0.8011 -0.0262  0.7672
15615TIP3    H268337   2.627   1.867   1.594 -1.5566  1.0869 -0.2955
15616TIP3   OH268338   4.308   5.727  15.918 -0.3773 -0.8199  0.2134
15616TIP3    H168339   4.232   5.678  15.887 -0.6901  0.2776 -0.7774
15616TIP3    H268340   4.349   5.762  15.839  0.6855 -0.6818  0.7952
15617TIP3   OH268341   1.843   5.888   4.346 -0.2028  0.1152  0.2136
15617TIP3    H168342   1.896   5.825   4.297  0.5082  1.4828 -0.8564
15617TIP3    H268343   1.870   5.876   4.437  2.1274  0.8526 -0.3028
15618TIP3   OH268344   6.172   4.274  13.267 -0.0094  0.8461 -0.4817
15618TIP3    H168345   6.220   4.268  13.185  0.6425  0.7954 -0.1026
15618TIP3    H268346   6.085   4.239  13.247  0.5618 -0.4048 -0.8206
15619TIP3   OH268347   0.245   5.052  12.559  0.6539 -0.3901  0.6312
15619TIP3    H168348   0.296   4.996  12.500 -0.4541 -1.2913  0.4935
15619TIP3    H268349   0.154   5.038  12.532  0.3379  1.5075  0.5865
15620TIP3   OH268350   1.939   2.824   3.236 -0.7797  0.1168  0.0782
15620TIP3    H168351   1.912   2.883   3.165  0.1371  0.8317  0.3014
15620TIP3    H268352   1.860   2.810   3.287 -1.0850  0.9241 -0.1554
15621TIP3   OH268353   1.677   4.979  15.284 -0.4155  0.4824  0.0120
15621TIP3    H168354   1.612   4.989  15.354 -0.2476  1.1734  0.0772
15621TIP3    H268355   1.628   4.995  15.204 -0.8922 -1.5396 -0.1493
15622TIP3   OH268356   1.256   3.408   3.160 -0.5435  0.2817  1.3218
15622TIP3    H168357   1.291   3.455   3.236  0.8146  0.4120  0.6441
15622TIP3    H268358   1.220   3.476   3.104  0.7668  0.4611  0.6772
15623TIP3   OH268359   4.002   2.599   3.744 -0.1306  0.1296 -0.0699
15623TIP3    H168360   3.924   2.644   3.777  0.2911  0.9669 -0.2126
15623TIP3    H268361   4.015   2.634   3.656  0.6476  0.3034  0.1074
15624TIP3   OH268362   3.561   2.500   1.639 -0.1700  0.4594 -0.3717
15624TIP3    H168363   3.634   2.470   1.694 -0.9945 -0.3575  0.2925
15624TIP3    H268364   3.596   2.577   1.594  0.1200  2.0167  2.3252
15625TIP3   OH268365   2.681   2.964   5.472  0.3257 -0.3252  0.6703
15625TIP3    H168366   2.761   2.919   5.499  1.4811  1.5574  0.5492
15625TIP3    H268367   2.711   3.046   5.433 -1.6933  1.4642  2.5822
15626TIP3   OH268368   2.048   3.219  14.926  0.1034 -0.2842  0.1777
15626TIP3    H168369   2.008   3.296  14.967  1.0998  0.1220  0.4213
15626TIP3    H268370   2.001   3.144  14.963 -0.6615  0.1902  0.1839
15627TIP3   OH268371   6.421   5.622  15.120  0.5826 -0.3744 -0.0881
15627TIP3    H168372   6.517   5.618  15.120  0.7277  2.0798  0.5823
15627TIP3    H268373   6.399   5.676  15.195 -1.1334  2.0063 -2.1673
15628TIP3   OH268374   3.224   5.279   6.327  0.4534 -0.3373  0.1190
15628TIP3    H168375   3.157   5.213   6.344 -0.0855 -0.0061 -0.6441
15628TIP3    H268376   3.178   5.348   6.279  0.8269  0.9277  1.4786
15629TIP3   OH268377   3.663   3.000  15.395 -0.0125  0.4713 -0.5253
15629TIP3    H168378   3.639   3.065  15.328 -0.5163 -2.2979 -3.2375
15629TIP3    H268379   3.580   2.959  15.419  0.5507 -0.7827 -0.6774
15630TIP3   OH268380   6.204   1.096   5.142 -0.5436  0.9135  0.1399
15630TIP3    H168381   6.112   1.073   5.136 -0.2609  0.2302 -3.9011
15630TIP3    H268382   6.226   1.133   5.057  2.7031  2.1346  1.3225
15631TIP3   OH268383   3.169   4.694  13.560  0.0298  0.0784 -0.3442
15631TIP3    H168384   3.097   4.734  13.511 -0.6882 -0.5376  0.1859
15631TIP3    H268385   3.171   4.603  13.530 -1.1184 -0.6015  1.4951
15632TIP3   OH268386   1.143   3.376   0.572 -0.4088 -0.0909  0.2795
15632TIP3    H168387   1.173   3.429   0.497 -0.6108  0.4728  0.5872
15632TIP3    H268388   1.136   3.287   0.537 -1.3419  0.3085 -0.6153
15633TIP3   OH268389   1.268   1.152   1.770 -0.3722  0.1991  0.5088
15633TIP3    H168390   1.291   1.192   1.686 -1.5810 -0.9901 -0.4249
15633TIP3    H268391   1.196   1.205   1.803  0.4067  0.9516  1.0586
15634TIP3   OH268392   3.352   5.086  17.107 -0.3906 -0.1589 -0.3686
15634TIP3    H168393   3.355   5.033  17.187  1.4698  1.8142  1.0026
15634TIP3    H268394   3.364   5.023  17.036  1.2345 -1.6822  1.1257
15635TIP3   OH268395   3.548   0.152   1.092 -0.0226 -0.5689 -0.3933
15635TIP3    H168396   3.628   0.204   1.100  0.3811 -1.1081 -0.9487
15635TIP3    H268397   3.559   0.080   1.154 -1.0343  0.5353  1.1704
15636TIP3   OH268398   2.523   1.056  11.912  0.1903 -0.0082 -0.1800
15636TIP3    H168399   2.613   1.043  11.881 -0.2176  0.3017 -1.5918
15636TIP3    H268400   2.530   1.119  11.984  1.1484 -0.3900  0.0662
15637TIP3   OH268401   2.958   2.652  12.626  0.2729  0.1821 -0.2728
15637TIP3    H168402   2.937   2.594  12.699  0.6465 -0.3508 -0.5808
15637TIP3    H268403   2.958   2.594  12.549  0.9543  0.5283 -0.5436
15638TIP3   OH268404   1.543   1.822  12.323 -0.2462  0.4593  0.2527
15638TIP3    H168405   1.610   1.881  12.288 -1.0027  0.2287 -1.7389
15638TIP3    H268406   1.592   1.748  12.358  0.5810  0.5820 -0.5952
15639TIP3   OH268407   3.700   2.475   2.911 -0.5781  0.3606 -0.1424
15639TIP3    H168408   3.765   2.536   2.878 -0.4306  0.3346  0.0939
15639TIP3    H268409   3.751   2.401   2.945 -0.7883 -2.2354 -4.7301
15640TIP3   OH268410   4.721   3.297  12.555 -0.2424  0.2304  0.1362
15640TIP3    H168411   4.663   3.342  12.494  1.2907  1.6232 -0.3922
15640TIP3    H268412   4.719   3.205  12.527 -0.3512  0.6707 -1.4004
15641TIP3   OH268413   2.286   2.436   3.081  0.7755  0.3609 -0.0580
15641TIP3    H168414   2.217   2.399   3.027 -0.4279  1.4694  0.6393
15641TIP3    H268415   2.252   2.430   3.171 -0.1099  4.0904  0.0545
15642TIP3   OH268416   5.085   5.578   4.171 -0.1304  0.9041  0.4518
15642TIP3    H168417   5.001   5.533   4.171 -0.0001  0.6587  0.6379
15642TIP3    H268418   5.129   5.547   4.250  1.0444 -0.6886 -0.7742
15643TIP3   OH268419   1.205   6.291  10.998 -0.2203  0.2355 -0.3769
15643TIP3    H168420   1.237   6.254  10.916  2.4185  0.7951  0.3254
15643TIP3    H268421   1.268   6.359  11.020 -1.5659  0.9595  1.5044
15644TIP3   OH268422   2.555   4.106   6.417 -0.2300  0.1722  0.4753
15644TIP3    H168423   2.569   4.201   6.414  0.9426  0.1422 -4.8076
15644TIP3    H268424   2.461   4.096   6.400 -0.1464  0.4111 -0.1469
15645TIP3   OH268425   3.739   6.761   5.151  0.4792 -0.2394  1.0107
15645TIP3    H168426   3.671   6.772   5.084  0.0473  0.1652  1.5019
15645TIP3    H268427   3.699   6.796   5.231  1.2164 -0.1339  1.3380
15646TIP3   OH268428   3.296   3.023  13.038 -0.0181  0.2305  1.1453
15646TIP3    H168429   3.253   3.088  12.983 -0.5135  0.8977  2.2830
15646TIP3    H268430   3.237   3.012  13.113  0.0934 -1.4639  1.0327
15647TIP3   OH268431   0.181   5.499   2.166  0.3551  0.7225  0.0249
15647TIP3    H168432   0.261   5.446   2.160  0.4068  0.4072  2.2848
15647TIP3    H268433   0.120   5.458   2.105  1.0542 -0.7710  0.2761
15648TIP3   OH268434   5.887   5.567   1.255  0.2854  0.4510  0.1039
15648TIP3    H168435   5.923   5.590   1.169  0.3608  0.1894  0.0643
15648TIP3    H268436   5.961   5.574   1.315  0.1365  1.0477  0.2214
15649TIP3   OH268437   3.868   4.390   2.332 -0.1364 -0.0152  0.0700
15649TIP3    H168438   3.818   4.472   2.332 -0.5234 -0.2311 -0.9838
15649TIP3    H268439   3.953   4.415   2.294  0.3977  0.2523  1.4074
15650TIP3   OH268440   3.309   2.147  16.822 -0.4121  0.0033  0.4459
15650TIP3    H168441   3.366   2.123  16.894  3.3317  2.4717 -1.3611
15650TIP3    H268442   3.301   2.068  16.769  2.1343 -0.2817  0.3876
15651TIP3   OH268443   4.758   0.943  15.110  0.1143 -1.3191 -0.4824
15651TIP3    H168444   4.696   1.014  15.124  0.9302 -0.5748 -0.5009
15651TIP3    H268445   4.843   0.987  15.101  0.6786 -2.3183 -0.2366
15652TIP3   OH268446   3.898   6.255   0.415  0.1186  0.4028 -0.3653
15652TIP3    H168447   3.834   6.187   0.393  1.3797 -0.6953 -0.7948
15652TIP3    H268448   3.852   6.337   0.399 -1.7457 -0.2974  1.0265
15653TIP3   OH268449   4.105   1.082   2.243  0.7800  0.0820  0.3919
15653TIP3    H168450   4.124   1.171   2.211 -0.1856  0.6814  1.3997
15653TIP3    H268451   4.032   1.094   2.304 -0.6058 -1.6656 -0.8333
15654TIP3   OH268452   4.192   0.973  14.734  0.3342  0.0008 -0.6997
15654TIP3    H168453   4.158   0.963  14.645 -2.6587  0.6656  0.2487
15654TIP3    H268454   4.115   0.965  14.790  1.9948  0.4194  1.8101
15655TIP3   OH268455   2.032   0.085  12.084 -0.4564 -0.2903  0.6629
15655TIP3    H168456   2.005   0.114  11.997  0.1799 -0.4209  0.4140
15655TIP3    H268457   1.997   0.151  12.144  2.5793  2.1857 -0.0084
15656TIP3   OH268458   0.201   4.911  16.354 -0.1423 -0.4531  0.3376
15656TIP3    H168459   0.107   4.899  16.339 -0.1444 -1.8916  1.3019
15656TIP3    H268460   0.243   4.840  16.304  0.4102 -0.0174  0.1719
15657TIP3   OH268461   2.895   4.452   5.413 -0.0779  0.3468  0.3701
15657TIP3    H168462   2.887   4.467   5.319 -0.6793  1.0816  0.5332
15657TIP3    H268463   2.972   4.395   5.421 -0.4688 -0.3582 -0.6161
15658TIP3   OH268464   1.347   3.959  15.026 -0.3205 -0.2758  0.5118
15658TIP3    H168465   1.299   3.876  15.022 -1.5315  0.3121  1.9805
15658TIP3    H268466   1.310   4.004  15.102  0.4681  1.5223 -0.1290
15659TIP3   OH268467   1.169   5.395  15.286 -0.1517 -0.2349 -0.3645
15659TIP3    H168468   1.136   5.312  15.252  1.1231 -0.9752  0.1408
15659TIP3    H268469   1.192   5.445  15.207 -2.1589  0.1982 -0.7138
15660TIP3   OH268470   1.736   2.464  16.209 -0.3539  0.2649  0.1531
15660TIP3    H168471   1.665   2.411  16.246 -0.6044 -0.6828 -1.5915
15660TIP3    H268472   1.811   2.405  16.206 -0.5810  0.0375 -1.6310
15661TIP3   OH268473   1.128   4.960  12.422  0.3025  0.0653 -0.8858
15661TIP3    H168474   1.165   4.874  12.444 -0.8755  0.0781  1.4082
15661TIP3    H268475   1.036   4.941  12.403 -0.2938  0.9323  0.9416
15662TIP3   OH268476   0.159   6.729   2.113  0.6024  0.0036 -0.0039
15662TIP3    H168477   0.134   6.821   2.115 -0.4450 -0.2260 -1.3760
15662TIP3    H268478   0.251   6.730   2.084  1.7032  0.7348  3.0842
15663TIP3   OH268479   4.220   6.724  11.378  0.8118 -0.5812 -1.7060
15663TIP3    H168480   4.145   6.777  11.407  1.7081  0.1383 -0.5938
15663TIP3    H268481   4.218   6.647  11.435  1.7768  0.1748 -0.6050
15664TIP3   OH268482   3.212   0.634   4.901  0.0034  0.3553  0.0980
15664TIP3    H168483   3.261   0.556   4.929  0.5120  0.8122  0.4979
15664TIP3    H268484   3.159   0.603   4.828 -1.5213 -0.9294  1.6535
15665TIP3   OH268485   1.908   1.994   3.009  0.1004 -0.1668  0.3191
15665TIP3    H168486   1.868   1.948   3.083  1.4575 -0.5432  0.8327
15665TIP3    H268487   1.901   2.086   3.032 -1.9758 -0.0873 -0.3845
15666TIP3   OH268488   5.537   6.059   4.530 -0.1590  0.5457 -0.3447
15666TIP3    H168489   5.500   6.006   4.601 -1.2471 -0.8854 -1.8717
15666TIP3    H268490   5.581   5.995   4.473 -0.3413  1.4509 -1.5476
15667TIP3   OH268491   1.813   0.680   6.278  0.0137  0.0686  0.6892
15667TIP3    H168492   1.788   0.773   6.276 -1.2647 -0.2589 -0.8989
15667TIP3    H268493   1.899   0.677   6.235  0.1495  0.5451  0.9263
15668TIP3   OH268494   5.156   0.744   4.774 -0.0211  0.0550  0.6324
15668TIP3    H168495   5.096   0.684   4.818 -1.4227  1.1637  0.3168
15668TIP3    H268496   5.099   0.805   4.728  1.3370  1.8371  1.1953
15669TIP3   OH268497   5.477   2.736   4.738 -0.6257 -0.1555  0.1909
15669TIP3    H168498   5.496   2.824   4.771 -2.0753  0.0064  0.6709
15669TIP3    H268499   5.432   2.693   4.811  0.2331 -1.3721  0.0239
15670TIP3   OH268500   2.246   0.268  13.965 -0.4390 -0.4280  0.0905
15670TIP3    H168501   2.181   0.328  14.002  1.4676  1.5644  0.3698
15670TIP3    H268502   2.235   0.275  13.871 -0.1145  0.5180  0.1179
15671TIP3   OH268503   2.941   3.568   5.358  0.7721  0.2601  0.3981
15671TIP3    H168504   2.980   3.525   5.434 -2.5354 -1.4643  1.3333
15671TIP3    H268505   2.908   3.651   5.393 -0.4053 -0.3591  0.7996
15672TIP3   OH268506   0.299   0.658  16.983  0.5170  0.6836  0.1248
15672TIP3    H168507   0.355   0.707  16.923  1.6027  0.8071  1.1826
15672TIP3    H268508   0.270   0.723  17.047  0.1048  0.3852  0.2462
15673TIP3   OH268509   0.368   6.449   4.764  0.4743  0.8652 -0.0165
15673TIP3    H168510   0.393   6.505   4.837  0.6258 -0.4267  0.9607
15673TIP3    H268511   0.274   6.437   4.774  0.3469  1.3882 -0.5522
15674TIP3   OH268512   1.372   3.939  12.280  0.1236  0.1474  1.0714
15674TIP3    H168513   1.439   3.961  12.214  1.2158  0.8836  2.3759
15674TIP3    H268514   1.292   3.979  12.247 -0.5745 -3.2959 -2.1070
15675TIP3   OH268515   1.951   5.629  13.891 -0.5012  0.0499  0.1509
15675TIP3    H168516   1.902   5.644  13.972 -1.5554 -0.1347 -0.4353
15675TIP3    H268517   2.030   5.583  13.919 -0.1063  1.3389  1.2498
15676TIP3   OH268518   3.060   6.305  14.453  0.0514 -0.5525  0.4679
15676TIP3    H168519   2.965   6.310  14.445 -0.1283 -1.6263  1.6671
15676TIP3    H268520   3.091   6.394  14.432 -1.0466 -0.6192 -1.6885
15677TIP3   OH268521   2.179   4.134  11.878  0.7512 -0.0053  0.4388
15677TIP3    H168522   2.201   4.202  11.942 -0.1088  0.3614  0.3723
15677TIP3    H268523   2.096   4.098  11.909  0.7668 -0.4332  0.0025
15678TIP3   OH268524   4.917   4.734  11.451 -0.5323 -0.4059 -0.3766
15678TIP3    H168525   4.852   4.766  11.388 -0.1942 -0.7645 -0.9128
15678TIP3    H268526   4.964   4.812  11.479 -0.5736 -0.2651 -0.6973
15679TIP3   OH268527   5.507   5.381   4.509 -0.4119 -0.0129 -0.1357
15679TIP3    H168528   5.542   5.429   4.434 -1.7969  1.4513  0.0803
15679TIP3    H268529   5.535   5.431   4.585  2.2474 -2.3104  0.5148
15680TIP3   OH268530   4.184   3.017  12.484  0.2370  0.2353  0.5890
15680TIP3    H168531   4.278   3.000  12.492  0.4740  1.0435 -0.3577
15680TIP3    H268532   4.157   2.966  12.408 -0.2572 -0.6022  1.3147
15681TIP3   OH268533   2.453   3.374  14.455  0.0387 -0.6461 -0.3807
15681TIP3    H168534   2.402   3.319  14.395  1.2402 -0.6977 -1.3953
15681TIP3    H268535   2.481   3.315  14.524  1.7470 -1.5010 -1.7219
15682TIP3   OH268536   5.681   0.613   2.002  0.4805  0.1532  0.0508
15682TIP3    H168537   5.679   0.565   1.920  1.9004 -0.0020  0.0897
15682TIP3    H268538   5.632   0.557   2.064 -0.8581  0.4170 -0.7222
15683TIP3   OH268539   2.585   6.796   6.681 -0.1408  0.3580 -0.2038
15683TIP3    H168540   2.582   6.874   6.626 -1.4351  0.2934 -0.2697
15683TIP3    H268541   2.511   6.807   6.742 -0.4768 -0.9096 -0.3558
15684TIP3   OH268542   1.253   5.314   2.183  0.4206 -0.6095 -0.1123
15684TIP3    H168543   1.236   5.406   2.161 -1.0726 -1.1520 -1.5048
15684TIP3    H268544   1.289   5.316   2.271 -0.0977  1.2815  0.0993
15685TIP3   OH268545   0.958   0.231  15.466  0.3753  0.1301 -0.5884
15685TIP3    H168546   0.864   0.214  15.462  0.4092  0.2066 -2.3121
15685TIP3    H268547   0.971   0.276  15.550 -0.7177 -2.0827  0.8648
15686TIP3   OH268548   2.887   0.952  17.099  0.5466  0.1135 -0.5191
15686TIP3    H168549   2.855   1.040  17.116 -0.2718 -0.4944  1.4121
15686TIP3    H268550   2.973   0.949  17.141 -0.6959 -0.8383  2.1791
15687TIP3   OH268551   4.099   1.711   4.865  0.8374 -0.1744  0.5221
15687TIP3    H168552   4.070   1.621   4.851  0.9228 -0.1392  0.0914
15687TIP3    H268553   4.127   1.741   4.778 -3.2132  1.7582 -0.3387
15688TIP3   OH268554   0.316   1.783  12.757 -0.2066  0.1953 -0.1916
15688TIP3    H168555   0.310   1.865  12.805  0.5722  0.6866 -0.9008
15688TIP3    H268556   0.337   1.809  12.667 -0.1239 -0.7693 -0.4684
15689TIP3   OH268557   1.692   5.254   6.716 -0.2764 -0.3332  0.2646
15689TIP3    H168558   1.783   5.261   6.689 -0.5164 -0.5406 -0.6435
15689TIP3    H268559   1.663   5.344   6.728  0.3269 -0.2951  1.5753
15690TIP3   OH268560   6.715   4.470  12.254 -0.1584  0.0668  0.2583
15690TIP3    H168561   6.649   4.538  12.243  1.8891  1.8464 -1.9456
15690TIP3    H268562   6.669   4.388  12.235 -1.6292  1.2978 -1.8145
15691TIP3   OH268563   5.131   0.726  15.646  0.3979  0.1239  0.4288
15691TIP3    H168564   5.128   0.813  15.686  0.9662 -0.1791  1.1529
15691TIP3    H268565   5.207   0.729  15.588  0.6585 -0.0106  0.7589
15692TIP3   OH268566   1.693   3.230  12.094 -0.0179  0.4281 -0.1696
15692TIP3    H168567   1.650   3.281  12.163 -1.0847 -0.8243  0.1217
15692TIP3    H268568   1.664   3.270  12.012 -2.2480 -0.7078 -0.0092
15693TIP3   OH268569   0.226   5.133   4.694  0.5366  0.0145 -0.4175
15693TIP3    H168570   0.257   5.064   4.753 -2.7105  0.5945  2.3156
15693TIP3    H268571   0.246   5.215   4.739 -0.4617  0.5791 -0.9649
15694TIP3   OH268572   2.923   3.645  16.365  0.1340  0.1815 -0.3662
15694TIP3    H168573   2.920   3.687  16.451 -0.9295 -0.3276 -0.1348
15694TIP3    H268574   3.003   3.593  16.367  0.5574  0.8285 -0.0082
15695TIP3   OH268575   4.561   4.876   5.520 -0.2441 -0.3868 -0.3779
15695TIP3    H168576   4.609   4.856   5.439 -0.2666 -0.1556 -0.4480
15695TIP3    H268577   4.554   4.971   5.521  2.1022 -0.1704  1.2387
15696TIP3   OH268578   4.681   1.602   3.733 -0.2395  0.4448  0.2388
15696TIP3    H168579   4.663   1.634   3.822 -0.7945  2.0074 -0.3898
15696TIP3    H268580   4.601   1.623   3.684 -0.5717 -1.8432 -0.2928
15697TIP3   OH268581   4.612   5.435  13.310  0.6592 -0.4620 -0.1077
15697TIP3    H168582   4.609   5.487  13.229  1.1970 -1.3778 -0.7259
15697TIP3    H268583   4.694   5.387  13.305  1.1799  0.1983  1.4577
15698TIP3   OH268584   6.658   4.974  16.380 -0.1877  0.1319  0.0786
15698TIP3    H168585   6.583   4.979  16.440  0.2917  2.6255  0.5570
15698TIP3    H268586   6.734   4.985  16.436  0.3799  0.5460 -0.7649
15699TIP3   OH268587   1.561   6.244  12.106  0.7886  0.4996 -0.2738
15699TIP3    H168588   1.601   6.175  12.159 -0.5008  0.7961  1.1612
15699TIP3    H268589   1.633   6.306  12.091  1.0772  0.7516  1.7697
15700TIP3   OH268590   3.475   0.754  11.490 -0.1598  0.1785  0.2992
15700TIP3    H168591   3.511   0.825  11.543  1.4495  0.6344 -1.2907
15700TIP3    H268592   3.545   0.733  11.427 -1.0452 -2.0007 -0.0541
15701TIP3   OH268593   4.124   0.659   0.730 -0.0876  0.3809 -0.5313
15701TIP3    H168594   4.198   0.702   0.772  0.4359  0.3660 -1.4197
15701TIP3    H268595   4.120   0.697   0.642 -0.8277  0.0241 -0.6641
15702TIP3   OH268596   2.208   5.017   6.018 -0.4379  0.0118 -0.0253
15702TIP3    H168597   2.277   5.068   5.977 -0.0696  0.3337  0.9757
15702TIP3    H268598   2.239   4.927   6.017 -1.2002 -0.2745 -2.0316
15703TIP3   OH268599   4.194   0.338   1.500 -0.1354  0.5625  0.3414
15703TIP3    H168600   4.180   0.391   1.422  1.0818 -0.0298 -0.3020
15703TIP3    H268601   4.228   0.255   1.467  0.8470  0.4704  1.5353
15704TIP3   OH268602   0.201   0.154   2.371  0.1554 -0.2787  0.5946
15704TIP3    H168603   0.162   0.232   2.410  0.8658  0.4203 -0.0768
15704TIP3    H268604   0.259   0.120   2.438  1.8122  1.2413 -0.0049
15705TIP3   OH268605   0.983   5.934  14.351 -0.1169  0.0299  1.0710
15705TIP3    H168606   1.052   5.946  14.285 -0.8616  1.4311  0.5031
15705TIP3    H268607   1.014   5.861  14.405  0.1635 -1.6890 -1.2712
15706TIP3   OH268608   6.573   6.573   3.060  0.1810 -0.0523  0.6570
15706TIP3    H168609   6.499   6.519   3.032  1.6051 -0.8993 -1.8469
15706TIP3    H268610   6.571   6.570   3.156 -2.2209 -1.1053  0.6309
15707TIP3   OH268611   0.602   4.618  11.939  0.1537 -0.2013 -0.6620
15707TIP3    H168612   0.682   4.648  11.982  0.7151 -0.8881 -1.1988
15707TIP3    H268613   0.627   4.535  11.898 -0.0526  0.8900 -3.1606
15708TIP3   OH268614   6.702   5.415   0.900  0.0022 -0.1700  0.2199
15708TIP3    H168615   6.736   5.453   0.981 -2.6803 -0.2138  1.4704
15708TIP3    H268616   6.609   5.400   0.918 -0.0836 -2.8232 -1.9178
15709TIP3   OH268617   4.531   6.317  13.186 -0.0943  0.1593  0.2207
15709TIP3    H168618   4.606   6.358  13.229 -0.3422 -0.4915  1.3309
15709TIP3    H268619   4.566   6.238  13.146  0.1522  0.8070 -0.8759
15710TIP3   OH268620   6.258   5.581  16.609  0.2666  0.4996 -0.4213
15710TIP3    H168621   6.264   5.634  16.530  1.1067  1.4163  0.2332
15710TIP3    H268622   6.272   5.491  16.579  0.6759  0.8476 -1.3047
15711TIP3   OH268623   5.172   0.233   2.505 -0.1323  0.4756 -0.0728
15711TIP3    H168624   5.095   0.176   2.503  0.6421 -0.6037 -0.7945
15711TIP3    H268625   5.178   0.269   2.416 -0.8550  2.0684  0.4875
15712TIP3   OH268626   3.564   4.973   3.149  0.1409 -0.0812 -0.0417
15712TIP3    H168627   3.659   4.971   3.161  0.0116 -0.9403  0.9836
15712TIP3    H268628   3.538   5.059   3.184  0.4562 -0.1590  0.3944
15713TIP3   OH268629   1.723   2.889  13.593 -0.1055 -0.7631  0.5091
15713TIP3    H168630   1.740   2.928  13.679 -0.7983  1.3210 -0.2477
15713TIP3    H268631   1.629   2.905  13.578  0.3920  0.6752 -1.4403
15714TIP3   OH268632   5.659   3.980   0.396  0.5414  0.2619  0.5644
15714TIP3    H168633   5.678   4.070   0.367 -0.7955  0.2479 -0.4890
15714TIP3    H268634   5.588   3.990   0.460  1.5237  0.0594  1.7108
15715TIP3   OH268635   0.253   1.507   1.926 -0.6609  0.2414  0.3204
15715TIP3    H168636   0.306   1.586   1.935  0.8807 -0.4282 -1.9339
15715TIP3    H268637   0.313   1.435   1.946 -0.6895 -0.5199 -1.9699
15716TIP3   OH268638   4.246   0.200   4.763 -0.3923 -0.1143  0.4688
15716TIP3    H168639   4.211   0.116   4.793 -0.0302  0.0265  1.3376
15716TIP3    H268640   4.327   0.177   4.717 -0.1121 -0.2365  0.9992
15717TIP3   OH268641   2.633   4.234  14.741  0.3153  0.3184 -0.4089
15717TIP3    H168642   2.703   4.299  14.731  0.4872  0.5395  1.6340
15717TIP3    H268643   2.579   4.269  14.812  1.0222 -2.2147  1.5430
15718TIP3   OH268644   1.467   5.584   2.573  0.0558 -0.4174 -0.1521
15718TIP3    H168645   1.454   5.678   2.586 -0.5690 -0.7765  2.2880
15718TIP3    H268646   1.554   5.567   2.609  1.2877 -0.4570 -2.8647
15719TIP3   OH268647   3.888   4.944   1.813 -0.5204 -0.1419  0.1137
15719TIP3    H168648   3.871   4.994   1.892  1.0559 -1.9955  1.7228
15719TIP3    H268649   3.908   4.856   1.844  2.4909 -0.3853 -2.1250
15720TIP3   OH268650   2.381   1.222  12.612 -0.0426 -0.0150 -0.0711
15720TIP3    H168651   2.303   1.221  12.557  0.1906  1.2116 -0.4589
15720TIP3    H268652   2.428   1.301  12.585  0.1737  0.5238  1.7533
15721TIP3   OH268653   2.470   3.660   1.925  0.1318  0.6185 -0.1106
15721TIP3    H168654   2.469   3.647   1.830  0.7518  0.8748 -0.1618
15721TIP3    H268655   2.462   3.754   1.936  1.1966  0.7081  0.0382
15722TIP3   OH268656   2.730   2.999   2.164 -0.0633  0.4058 -0.2335
15722TIP3    H168657   2.634   2.997   2.155 -0.1194  1.8243 -0.2513
15722TIP3    H268658   2.747   3.075   2.219  0.9990 -0.6405  0.9463
15723TIP3   OH268659   2.151   1.345  16.938 -0.1728  0.3188  0.1613
15723TIP3    H168660   2.173   1.426  16.985 -2.0379  0.1860  1.3603
15723TIP3    H268661   2.186   1.275  16.993 -0.7505  0.2364  0.4359
15724TIP3   OH268662   2.362   0.326   0.161  0.0233 -0.6547 -0.2922
15724TIP3    H168663   2.290   0.388   0.166  0.3380 -0.2056 -1.1032
15724TIP3    H268664   2.361   0.295   0.071 -0.8465 -2.7359  0.3729
15725TIP3   OH268665   5.893   3.611   5.200 -0.1375 -0.2696  0.1288
15725TIP3    H168666   5.891   3.697   5.242  3.1665 -1.5809  3.6509
15725TIP3    H268667   5.928   3.627   5.113  0.9101  1.9538  0.8912
15726TIP3   OH268668   5.125   6.073   3.015 -0.3016  0.0417  0.3219
15726TIP3    H168669   5.122   6.057   2.921  0.7499  1.1289  0.0770
15726TIP3    H268670   5.163   5.993   3.051  0.1158 -0.0418 -0.2817
15727TIP3   OH268671   5.781   4.886  12.993  0.3534  0.0543 -0.7786
15727TIP3    H168672   5.698   4.930  12.974 -0.0183 -0.3378 -0.0965
15727TIP3    H268673   5.821   4.871  12.907 -0.9732 -1.1074 -1.2276
15728TIP3   OH268674   4.284   2.682   3.745 -0.0030  0.1982 -0.1987
15728TIP3    H168675   4.208   2.649   3.793  0.0550 -0.0317 -0.2659
15728TIP3    H268676   4.247   2.741   3.679 -0.0725  0.6243  0.2201
15729TIP3   OH268677   3.909   5.112  15.910  0.5770  1.2553  0.8375
15729TIP3    H168678   3.820   5.098  15.940  0.4149 -2.1113 -0.8211
15729TIP3    H268679   3.900   5.135  15.818  1.2039 -5.4855 -1.4376
15730TIP3   OH268680   5.966   6.096  12.858  0.3446  0.1820 -0.0681
15730TIP3    H168681   5.976   6.033  12.930  1.0528  0.9004  0.4780
15730TIP3    H268682   6.048   6.091  12.810 -0.4619 -0.9684 -1.4274
15731TIP3   OH268683   3.384   2.540  16.520  0.1475  0.1058  0.9003
15731TIP3    H168684   3.329   2.472  16.560  1.1531 -0.5930  1.1406
15731TIP3    H268685   3.322   2.597  16.475 -0.7561 -0.7801  0.9739
15732TIP3   OH268686   3.802   5.069   4.523 -0.5011 -0.6839 -0.3270
15732TIP3    H168687   3.825   4.977   4.536  0.4999 -0.1741  1.8989
15732TIP3    H268688   3.718   5.078   4.569  0.8225  0.0991  2.1215
15733TIP3   OH268689   4.090   1.937   2.282 -1.0043  0.1404 -0.2779
15733TIP3    H168690   4.088   1.960   2.375 -0.8218  1.0902 -0.5016
15733TIP3    H268691   4.178   1.902   2.268 -0.7792  0.6830 -0.2452
15734TIP3   OH268692   2.972   5.580  11.728 -0.1468  0.4394  1.0692
15734TIP3    H168693   3.024   5.554  11.804  0.9558 -2.1658 -0.4272
15734TIP3    H268694   3.031   5.634  11.676  0.3278 -0.5846  0.5003
15735TIP3   OH268695   3.909   1.421   0.597 -0.3080  0.0535 -0.1884
15735TIP3    H168696   3.930   1.514   0.608  0.7256 -0.1551 -0.2651
15735TIP3    H268697   3.862   1.398   0.677  0.2004  0.4348  0.2311
15736TIP3   OH268698   3.951   5.961  14.341  0.5022 -0.4310  0.2607
15736TIP3    H168699   4.001   5.924  14.268 -0.8552 -1.3225 -0.2564
15736TIP3    H268700   4.018   5.997  14.399  1.6694 -0.4016 -1.0299
15737TIP3   OH268701   2.403   5.955  11.803  0.0160 -0.4017  0.1667
15737TIP3    H168702   2.334   5.993  11.748  0.1830 -0.3041  0.0259
15737TIP3    H268703   2.393   5.999  11.888  0.4398  0.2184 -0.1022
15738TIP3   OH268704   6.226   0.198  15.742  0.3380 -0.3964  0.0322
15738TIP3    H168705   6.277   0.259  15.796 -1.8743  2.0025 -0.3613
15738TIP3    H268706   6.135   0.224  15.757 -0.5392 -1.8040 -2.3321
15739TIP3   OH268707   6.043   6.246  12.585  0.5706 -0.2885  0.0620
15739TIP3    H168708   6.105   6.187  12.628  0.0666  0.0499  1.3197
15739TIP3    H268709   6.075   6.334  12.607 -0.2913 -0.1110  0.6727
15740TIP3   OH268710   0.434   3.346  14.060  0.6918  0.2712  0.1534
15740TIP3    H168711   0.342   3.360  14.081  1.2963  2.6018  1.6852
15740TIP3    H268712   0.449   3.397  13.981  0.5179 -0.8097 -0.5993
15741TIP3   OH268713   0.408   4.792   4.264 -0.1449 -0.2882 -0.4911
15741TIP3    H168714   0.314   4.781   4.253 -0.2904  1.4144 -1.2930
15741TIP3    H268715   0.447   4.724   4.208 -0.9098 -0.3774 -0.9265
15742TIP3   OH268716   3.949   5.614  13.408 -0.5239  0.2680 -0.1910
15742TIP3    H168717   4.016   5.676  13.380 -1.4175  1.8201  0.9535
15742TIP3    H268718   3.997   5.532  13.423  1.2167  1.4399  0.9760
15743TIP3   OH268719   5.336   3.262   4.296  0.3575 -0.0834  0.0255
15743TIP3    H168720   5.408   3.326   4.298  0.3060  0.0306 -1.1369
15743TIP3    H268721   5.316   3.247   4.388  1.1524  0.6966  0.3516
15744TIP3   OH268722   0.876   0.914  12.473 -0.2913 -0.1099  0.0757
15744TIP3    H168723   0.883   0.999  12.431  0.1917 -1.2755 -2.3830
15744TIP3    H268724   0.787   0.884  12.454 -0.5000 -0.1343  1.0294
15745TIP3   OH268725   5.539   0.225  16.336  0.2874  0.2028  0.2210
15745TIP3    H168726   5.485   0.300  16.310 -0.1405 -0.1244  0.1470
15745TIP3    H268727   5.490   0.148  16.305  0.1233 -0.1699  1.3263
15746TIP3   OH268728   4.364   4.240   5.935  0.5927  0.5807  0.4099
15746TIP3    H168729   4.415   4.226   5.855  1.1910 -2.5490  1.2162
15746TIP3    H268730   4.281   4.277   5.903  0.3365 -1.6557 -1.9038
15747TIP3   OH268731   1.704   2.565  17.049 -0.3726 -0.5232  0.1862
15747TIP3    H168732   1.785   2.521  17.074  1.1394  1.4657 -0.9154
15747TIP3    H268733   1.717   2.656  17.077 -3.6322 -0.7111  2.9941
15748TIP3   OH268734   1.743   2.014   3.966  0.1448  0.3818  0.5466
15748TIP3    H168735   1.817   2.033   3.908 -0.0623 -1.1219 -0.2627
15748TIP3    H268736   1.744   1.919   3.977 -2.2490  0.1641 -0.3334
15749TIP3   OH268737   6.605   2.774  14.035  0.5099  0.0206  0.1812
15749TIP3    H168738   6.529   2.827  14.011  1.0028  0.9566  0.6120
15749TIP3    H268739   6.667   2.837  14.074  2.3451 -0.3250 -1.9690
15750TIP3   OH268740   6.637   6.567  11.439 -0.1384 -0.3195  0.0064
15750TIP3    H168741   6.589   6.633  11.489 -0.1846  1.1069 -1.8236
15750TIP3    H268742   6.568   6.508  11.406 -0.6115  1.1378 -1.7648
15751TIP3   OH268743   0.730   5.816  12.602 -0.2209 -0.7743 -0.2932
15751TIP3    H168744   0.818   5.832  12.567  0.6914  0.9592  2.5267
15751TIP3    H268745   0.676   5.884  12.562 -0.6676 -2.4679 -2.8564
15752TIP3   OH268746   3.656   6.474  11.219  0.0459 -0.4827  0.4414
15752TIP3    H168747   3.698   6.440  11.140  0.7601 -1.0820  1.0613
15752TIP3    H268748   3.686   6.416  11.289  0.0039  0.4621  1.2742
15753TIP3   OH268749   4.340   0.897   5.978 -0.0055 -0.3633 -0.5768
15753TIP3    H168750   4.367   0.883   5.887 -3.0798 -0.5314 -1.5931
15753TIP3    H268751   4.326   0.809   6.013 -0.4924 -0.2709 -0.5284
15754TIP3   OH268752   5.924   2.196  12.910  0.7781  1.0146  0.1418
15754TIP3    H168753   5.895   2.278  12.950  2.0326  1.8912 -0.6712
15754TIP3    H268754   6.003   2.219  12.862 -0.9931  0.1924 -3.4996
15755TIP3   OH268755   5.844   1.777  13.124 -0.0144 -0.2890  0.0965
15755TIP3    H168756   5.836   1.871  13.107  0.8087 -0.1458  0.4360
15755TIP3    H268757   5.896   1.743  13.051 -1.5444 -0.7680 -0.8195
15756TIP3   OH268758   6.287   4.892  14.738 -0.8832  0.0650 -0.4098
15756TIP3    H168759   6.211   4.933  14.696  0.2490  1.1994 -1.4050
15756TIP3    H268760   6.253   4.859  14.822 -2.6340 -0.1262 -1.1615
15757TIP3   OH268761   6.829   5.220  10.722  0.3623  0.3926 -0.4952
15757TIP3    H168762   6.835   5.128  10.747 -1.0314  0.4806  0.2421
15757TIP3    H268763   6.816   5.217  10.627  1.2317 -0.1208 -0.6120
15758TIP3   OH268764   1.509   1.916  12.994 -0.5675  0.5070 -0.0398
15758TIP3    H168765   1.470   1.835  12.962 -0.2864 -0.0587  0.9930
15758TIP3    H268766   1.449   1.984  12.965 -0.4248  0.0270 -1.5635
15759TIP3   OH268767   1.860   2.981   3.814  0.1922  0.3507  0.2392
15759TIP3    H168768   1.870   2.922   3.739 -2.0213  0.2555 -0.0456
15759TIP3    H268769   1.919   2.945   3.881 -0.7659 -1.9890 -0.0719
15760TIP3   OH268770   6.158   1.777  10.790 -0.6314 -0.2122  0.0387
15760TIP3    H168771   6.207   1.777  10.708  0.9878  1.4521  0.9333
15760TIP3    H268772   6.114   1.862  10.791 -1.8928 -0.8420  0.2239
15761TIP3   OH268773   5.369   3.076   3.744 -0.0222  0.0928  0.2658
15761TIP3    H168774   5.274   3.088   3.744 -0.1363 -0.6249 -1.0454
15761TIP3    H268775   5.380   2.981   3.747  0.5645  0.0077 -2.2396
15762TIP3   OH268776   5.300   3.097  14.057  0.3504 -0.2727 -0.2307
15762TIP3    H168777   5.313   3.172  14.116  3.6112  0.4478 -1.6889
15762TIP3    H268778   5.221   3.121  14.007 -0.3813  0.7594  1.3115
15763TIP3   OH268779   1.588   5.298   6.326  1.0790  0.1288  0.3913
15763TIP3    H168780   1.500   5.296   6.364  1.4607  0.3337  1.3248
15763TIP3    H268781   1.617   5.206   6.329  1.8724  0.3845  2.5311
15764TIP3   OH268782   1.201   1.901  15.623  0.6313 -0.2393 -0.6517
15764TIP3    H168783   1.198   1.996  15.609  2.1005 -0.2977 -1.6821
15764TIP3    H268784   1.266   1.870  15.559  0.6431 -1.8609  0.0994
15765TIP3   OH268785   3.672   1.162   0.246 -0.2908  0.0923 -0.0308
15765TIP3    H168786   3.745   1.167   0.183  0.8158 -0.6969  1.1378
15765TIP3    H268787   3.701   1.215   0.320 -1.5352  0.9144 -0.0927
15766TIP3   OH268788   1.531   6.848  14.398 -0.3633  0.1411 -0.2716
15766TIP3    H168789   1.560   6.905  14.327 -1.3269 -0.0368 -0.8365
15766TIP3    H268790   1.473   6.785  14.355  0.6906 -1.2923  0.3323
15767TIP3   OH268791   3.632   0.444  14.063  0.1358 -0.1869 -0.2225
15767TIP3    H168792   3.706   0.433  14.004 -0.9948  3.7494 -2.7388
15767TIP3    H268793   3.577   0.368  14.047  1.8186 -1.3069 -1.0315
15768TIP3   OH268794   2.190   6.354  16.102  0.2902 -0.2164 -0.2525
15768TIP3    H168795   2.264   6.316  16.150  1.9704  1.4486 -1.3526
15768TIP3    H268796   2.182   6.443  16.137 -0.6101 -0.0766 -0.7816
15769TIP3   OH268797   4.119   0.623  11.962  0.5415 -0.3569  0.2506
15769TIP3    H168798   4.146   0.679  12.034  2.4942 -0.3379 -0.4473
15769TIP3    H268799   4.029   0.597  11.984  0.5334  0.9125  1.8708
15770TIP3   OH268800   4.281   3.511  13.535  0.1548  0.0978 -0.6311
15770TIP3    H168801   4.250   3.426  13.567  0.7125 -0.1517 -0.7475
15770TIP3    H268802   4.376   3.505  13.538  0.3191 -0.5326 -3.8859
15771TIP3   OH268803   3.332   3.433  12.607 -0.1943 -0.0529  0.1345
15771TIP3    H168804   3.296   3.350  12.638  0.8222 -0.1673  1.0599
15771TIP3    H268805   3.412   3.446  12.658  1.0063  0.2733 -1.7188
15772TIP3   OH268806   1.140   5.932   5.944 -0.0709  0.2466 -0.2872
15772TIP3    H168807   1.169   5.848   5.910 -0.7173 -0.4540  0.8477
15772TIP3    H268808   1.222   5.979   5.964  0.3037 -0.6172  0.2706
15773TIP3   OH268809   0.994   3.138  15.494  0.0864  0.0599 -0.1232
15773TIP3    H168810   0.990   3.234  15.489 -2.2682  0.0586  0.4016
15773TIP3    H268811   0.974   3.109  15.405 -0.9497  0.0782  0.0919
15774TIP3   OH268812   0.326   5.775   5.666 -0.1129 -0.1942  0.9516
15774TIP3    H168813   0.278   5.739   5.591  1.5561 -0.5716  0.0215
15774TIP3    H268814   0.272   5.752   5.742 -1.3863 -0.5985 -0.0404
15775TIP3   OH268815   0.287   3.966   3.085  0.2251 -0.5220 -0.2508
15775TIP3    H168816   0.381   3.971   3.101  0.0585  1.0243  0.4504
15775TIP3    H268817   0.248   3.975   3.172 -0.5836  1.0362 -0.7209
15776TIP3   OH268818   1.293   6.424   3.317 -0.1390 -0.5366 -0.4878
15776TIP3    H168819   1.298   6.517   3.298  0.9112 -0.4087  0.3043
15776TIP3    H268820   1.291   6.382   3.231 -0.9761  0.2087 -0.8531
15777TIP3   OH268821   0.621   4.114  16.921 -0.1702 -0.2962 -0.4979
15777TIP3    H168822   0.543   4.074  16.883  0.3235 -1.7075 -0.0755
15777TIP3    H268823   0.666   4.154  16.846 -0.6435 -0.5824 -0.9414
15778TIP3   OH268824   2.264   1.507   5.702 -0.3515  0.1225 -0.1290
15778TIP3    H168825   2.217   1.446   5.646  0.2225  0.1478 -0.6534
15778TIP3    H268826   2.276   1.585   5.647  1.3574 -0.3266 -0.4598
15779TIP3   OH268827   2.534   4.927   0.239 -0.3960 -0.1247  0.5623
15779TIP3    H168828   2.498   5.011   0.213 -0.4243  0.1510  1.4550
15779TIP3    H268829   2.459   4.867   0.237 -0.1211 -0.4746 -1.4102
15780TIP3   OH268830   4.011   4.879   5.220 -0.1724 -0.5700  0.6736
15780TIP3    H168831   4.104   4.900   5.223 -0.3923  0.3771  1.2051
15780TIP3    H268832   4.008   4.784   5.223  0.7708 -0.6053  0.8988
15781TIP3   OH268833   4.148   2.825   3.572 -0.6048 -0.3297  0.0909
15781TIP3    H168834   4.109   2.912   3.584  0.8108  0.3557 -0.1198
15781TIP3    H268835   4.143   2.809   3.478 -0.0429 -0.0777  0.0174
15782TIP3   OH268836   3.801   4.183  15.648  0.2475  0.1647 -0.2608
15782TIP3    H168837   3.787   4.155  15.739 -3.2479  0.6938 -0.4985
15782TIP3    H268838   3.836   4.272  15.656  1.5112 -0.3722  0.5079
15783TIP3   OH268839   3.466   4.678  14.341  0.2084  0.6470  0.3797
15783TIP3    H168840   3.425   4.763  14.326 -0.5726 -0.1003 -2.3015
15783TIP3    H268841   3.525   4.666  14.267 -1.6608 -2.1904 -0.8577
15784TIP3   OH268842   6.242   3.119   4.936  0.2302  0.4855  0.1874
15784TIP3    H168843   6.282   3.204   4.952  0.8806  0.0364  1.0396
15784TIP3    H268844   6.194   3.100   5.017 -0.2593  0.2366 -0.1605
15785TIP3   OH268845   2.387   1.787  13.959  0.5300 -0.4287 -0.5354
15785TIP3    H168846   2.368   1.693  13.961 -0.9824 -0.1558 -0.5567
15785TIP3    H268847   2.347   1.818  13.877 -0.0441  0.4249  0.0451
15786TIP3   OH268848   0.475   6.175  14.656 -0.1731 -0.2056  0.2207
15786TIP3    H168849   0.403   6.202  14.600 -0.8249  1.8946  1.9283
15786TIP3    H268850   0.494   6.085  14.629 -0.7536  0.5005 -2.9401
15787TIP3   OH268851   6.054   4.596  12.518 -0.0367  0.2109  0.0679
15787TIP3    H168852   5.985   4.644  12.473  0.3705 -1.6537 -2.7721
15787TIP3    H268853   6.129   4.656  12.518 -0.0604  0.3006 -1.8353
15788TIP3   OH268854   2.653   4.703  12.339  0.6516  0.4303 -0.4066
15788TIP3    H168855   2.649   4.796  12.362  0.1057  0.3542 -0.1932
15788TIP3    H268856   2.581   4.663  12.387  1.0669 -0.1549 -0.2695
15789TIP3   OH268857   0.699   6.360  13.499  0.1842  0.1525 -0.2243
15789TIP3    H168858   0.712   6.284  13.555  1.1768 -0.6462 -1.4693
15789TIP3    H268859   0.787   6.393  13.482 -0.0164 -0.0733 -1.8663
15790TIP3   OH268860   1.481   4.560  15.723 -0.0285  0.1107 -0.4965
15790TIP3    H168861   1.533   4.504  15.781 -1.5116 -1.2930 -0.4371
15790TIP3    H268862   1.423   4.608  15.782 -0.7031 -0.4191 -0.7131
15791TIP3   OH268863   0.435   6.766   5.307 -0.5053  0.2429  0.2969
15791TIP3    H168864   0.379   6.840   5.330 -0.5899  0.7923 -1.4862
15791TIP3    H268865   0.450   6.776   5.213  0.8603 -1.0829  0.3320
15792TIP3   OH268866   5.477   5.621  13.428  0.2960 -0.3409  0.5390
15792TIP3    H168867   5.567   5.592  13.414  0.5994  0.7097  0.2267
15792TIP3    H268868   5.429   5.541  13.450  1.2655 -0.9367  0.5333
15793TIP3   OH268869   1.488   2.447  14.353 -0.0641 -0.0853  0.2536
15793TIP3    H168870   1.459   2.374  14.409  0.3846 -0.6312 -0.2130
15793TIP3    H268871   1.561   2.411  14.303 -0.2562  0.4946 -0.4534
15794TIP3   OH268872   1.092   0.317  13.867  0.1481 -0.4982 -0.5468
15794TIP3    H168873   1.128   0.404  13.850 -5.2063  2.0884 -0.7168
15794TIP3    H268874   1.059   0.322  13.957 -0.8073 -2.1734 -0.7596
15795TIP3   OH268875   4.967   6.557  16.945  0.1647  0.5972  0.1633
15795TIP3    H168876   4.998   6.625  17.005  0.0376  1.1964 -0.4327
15795TIP3    H268877   5.006   6.581  16.860  1.2468 -0.8403  0.2063
15796TIP3   OH268878   5.357   0.553  15.540  0.5178 -1.0219  0.3434
15796TIP3    H168879   5.299   0.513  15.604 -0.3611  0.0538  0.2566
15796TIP3    H268880   5.378   0.483  15.479 -2.3428 -1.0299 -0.7808
15797TIP3   OH268881   2.474   4.064   1.284 -0.7848  0.5616 -0.2472
15797TIP3    H168882   2.547   4.122   1.263  0.2249 -0.9705 -1.1407
15797TIP3    H268883   2.415   4.118   1.338  0.9832  1.8402  0.4862
15798TIP3   OH268884   1.258   3.000  14.297  0.3572  0.0489  0.1407
15798TIP3    H168885   1.252   3.041  14.383  0.5118 -0.7344  0.5410
15798TIP3    H268886   1.275   2.907  14.317 -0.4235 -0.2905 -0.7117
15799TIP3   OH268887   4.600   0.705   4.920  0.6414  0.5460 -0.5027
15799TIP3    H168888   4.619   0.636   4.858 -0.6683 -0.1358 -0.1779
15799TIP3    H268889   4.661   0.690   4.992 -1.8272 -2.4911  1.1956
15800TIP3   OH268890   0.825   5.302   5.574  0.3381 -0.4612  0.1419
15800TIP3    H168891   0.919   5.316   5.563  0.3816 -1.1386 -0.4174
15800TIP3    H268892   0.808   5.220   5.528 -1.0327  1.0665 -2.2831
15801TIP3   OH268893   5.291   0.314  16.034 -0.6072 -0.0166 -0.3356
15801TIP3    H168894   5.323   0.364  16.109  1.2418 -2.2253  0.4619
15801TIP3    H268895   5.217   0.264  16.069 -0.9741  0.3775 -0.5296
15802TIP3   OH268896   2.911   1.921   1.475 -0.2979 -0.1458 -0.1813
15802TIP3    H168897   2.922   1.948   1.566  0.7390  1.3817 -0.7307
15802TIP3    H268898   2.877   1.832   1.481 -1.2724  0.2892  1.7015
15803TIP3   OH268899   2.285   5.150   2.453  0.1176  0.2064  0.2232
15803TIP3    H168900   2.249   5.078   2.401  0.9475  0.0856 -0.1967
15803TIP3    H268901   2.350   5.109   2.509 -0.2974  0.4438  0.8928
15804TIP3   OH268902   4.673   5.179  12.781 -0.1590  0.2038 -0.3357
15804TIP3    H168903   4.600   5.198  12.722  0.2377 -1.2803 -1.3468
15804TIP3    H268904   4.696   5.088  12.763  0.8123  0.1077  1.2216
15805TIP3   OH268905   2.704   2.275   2.501  0.6660  0.8508 -0.6027
15805TIP3    H168906   2.658   2.192   2.486  1.0867 -0.0032  2.2533
15805TIP3    H268907   2.751   2.291   2.419 -0.1405 -1.2624 -1.5601
15806TIP3   OH268908   4.150   4.937  15.516  0.7509  0.5083  0.0194
15806TIP3    H168909   4.097   4.975  15.445  0.2579  1.7234  0.9909
15806TIP3    H268910   4.202   5.011  15.548 -0.0604  0.3460  1.8245
15807TIP3   OH268911   2.089   2.292  16.425  0.0093  0.1051 -0.0654
15807TIP3    H168912   2.084   2.342  16.506  0.9569 -1.9659  1.3736
15807TIP3    H268913   2.130   2.351  16.362 -2.4679  2.4414  0.3073
15808TIP3   OH268914   3.313   6.668  11.157 -0.2049 -0.4236 -0.0067
15808TIP3    H168915   3.372   6.741  11.139 -0.3665 -0.3300 -0.1518
15808TIP3    H268916   3.227   6.698  11.129 -0.9139  0.5862  2.8577
15809TIP3   OH268917   5.331   6.667   0.791 -0.2522 -0.0483 -0.2960
15809TIP3    H168918   5.236   6.680   0.793 -0.0458  1.4736  0.6384
15809TIP3    H268919   5.358   6.673   0.882  0.8207  0.0494 -0.6098
15810TIP3   OH268920   5.356   3.578  11.769 -0.4955 -0.5587  0.0437
15810TIP3    H168921   5.307   3.497  11.782  0.3945 -1.2574 -0.8588
15810TIP3    H268922   5.326   3.610  11.684 -2.9511  1.6034  1.5675
15811TIP3   OH268923   2.624   0.618  15.869 -0.2736  0.6128 -0.0486
15811TIP3    H168924   2.626   0.677  15.945  0.9233 -0.0625  0.4724
15811TIP3    H268925   2.711   0.578  15.868 -0.6104 -0.1207 -1.2089
15812TIP3   OH268926   4.473   4.081   2.214 -0.1362  0.3231 -0.2745
15812TIP3    H168927   4.480   4.076   2.118 -2.1013 -0.5432 -0.4258
15812TIP3    H268928   4.444   3.993   2.240 -0.7050  0.8610  0.9971
15813TIP3   OH268929   5.448   2.916   0.782 -0.0124 -0.5150 -0.0529
15813TIP3    H168930   5.521   2.862   0.753 -0.2401 -0.6141 -0.4522
15813TIP3    H268931   5.376   2.853   0.795  0.4928 -0.7090  2.2336
15814TIP3   OH268932   4.894   4.896   5.101 -0.1673  0.2506  0.1008
15814TIP3    H168933   4.940   4.922   5.021  0.5148 -0.5024  0.2312
15814TIP3    H268934   4.904   4.971   5.160  2.4366 -0.5135  0.7586
15815TIP3   OH268935   3.781   0.989   2.726 -0.0853 -0.5354 -0.2551
15815TIP3    H168936   3.701   0.997   2.674 -1.1224  1.4809  1.5144
15815TIP3    H268937   3.760   0.925   2.794 -1.0035  1.4907  1.4619
15816TIP3   OH268938   5.410   0.380  13.598  0.0469 -0.3965  0.4340
15816TIP3    H168939   5.421   0.449  13.533 -1.1170 -0.8992 -0.3312
15816TIP3    H268940   5.378   0.305  13.548 -0.1671 -1.0181  1.4800
15817TIP3   OH268941   4.172   5.349   1.230  0.1122  0.0416  0.1091
15817TIP3    H168942   4.122   5.368   1.310  0.0107  0.4060 -0.0394
15817TIP3    H268943   4.106   5.336   1.163  0.1794  2.7176 -0.6044
15818TIP3   OH268944   0.128   3.294  11.413 -0.0358 -0.4619 -0.1564
15818TIP3    H168945   0.165   3.337  11.336  0.6118  1.7093  1.2588
15818TIP3    H268946   0.033   3.304  11.403  0.0420  3.7725  1.2189
15819TIP3   OH268947   4.647   3.377   5.699  0.4532  0.2011  0.0011
15819TIP3    H168948   4.580   3.381   5.768  0.1493 -0.9430 -0.2194
15819TIP3    H268949   4.629   3.296   5.652  1.3992  0.3715 -0.6823
15820TIP3   OH268950   4.809   0.274   2.633  0.2190 -0.5291 -0.1056
15820TIP3    H168951   4.830   0.295   2.723 -1.3839  0.7106  0.0344
15820TIP3    H268952   4.854   0.341   2.581  1.2558 -1.3227 -0.2822
15821TIP3   OH268953   3.337   4.636   5.857 -0.1139 -0.0410 -0.4425
15821TIP3    H168954   3.312   4.717   5.902  1.0336  0.8970 -1.4103
15821TIP3    H268955   3.323   4.567   5.922  0.3355  1.1149  0.9375
15822TIP3   OH268956   3.460   6.402  16.621  0.7484  0.5353  0.1553
15822TIP3    H168957   3.457   6.381  16.527  0.1926  0.6018  0.1568
15822TIP3    H268958   3.369   6.400  16.649  1.0360 -0.9512  1.0393
15823TIP3   OH268959   3.545   5.369  12.320 -0.0309 -0.3520  0.6748
15823TIP3    H168960   3.556   5.310  12.394  0.3015 -1.9508 -0.5749
15823TIP3    H268961   3.454   5.359  12.294  0.3660 -1.4510 -0.4010
15824TIP3   OH268962   4.584   6.259   2.646  0.2955  0.8971  0.4038
15824TIP3    H168963   4.609   6.244   2.737  1.3173  2.4217  0.4022
15824TIP3    H268964   4.496   6.298   2.651 -0.0074  0.1990  0.6743
15825TIP3   OH268965   4.887   4.652  16.713 -0.4404 -0.3950 -0.0610
15825TIP3    H168966   4.976   4.686  16.715 -0.2153 -0.9579 -0.1981
15825TIP3    H268967   4.838   4.715  16.660  0.0818 -0.5427 -0.7318
15826TIP3   OH268968   4.475   5.345   2.132 -0.1186  0.5801 -0.2848
15826TIP3    H168969   4.563   5.370   2.160  0.0814 -0.9475  0.5242
15826TIP3    H268970   4.459   5.260   2.173 -1.8730  0.6932 -0.6382
15827TIP3   OH268971   2.563   1.021  12.657 -0.3309 -0.9653  0.7127
15827TIP3    H168972   2.480   1.067  12.647  0.2917  0.1336  0.3496
15827TIP3    H268973   2.543   0.944  12.710 -1.9157 -1.6890 -0.8574
15828TIP3   OH268974   3.787   3.775  16.027  0.1287  0.4553 -0.0596
15828TIP3    H168975   3.835   3.819  16.097 -2.8090  1.1751  1.7127
15828TIP3    H268976   3.837   3.794  15.947  2.0272  2.1643  1.4355
15829TIP3   OH268977   1.638   1.370   6.349  0.3386  0.2826  0.4238
15829TIP3    H168978   1.553   1.327   6.349 -0.4050  1.6897  0.2524
15829TIP3    H268979   1.701   1.300   6.367 -0.5588 -1.3705 -2.1975
15830TIP3   OH268980   6.653   6.499   2.553 -0.3280 -0.4644  0.2717
15830TIP3    H168981   6.608   6.583   2.560  1.3505  0.4944  0.1591
15830TIP3    H268982   6.661   6.468   2.643  0.1272  0.1031  0.4285
15831TIP3   OH268983   0.951   6.398  12.224 -0.0477 -0.5158 -0.1515
15831TIP3    H168984   1.021   6.367  12.282 -0.8319  1.1981  1.8067
15831TIP3    H268985   0.872   6.392  12.277 -0.7030  1.6721 -0.8035
15832TIP3   OH268986   2.871   6.824   4.556  0.2832 -0.1048 -0.2791
15832TIP3    H168987   2.914   6.866   4.630  0.5467 -1.7531  0.5482
15832TIP3    H268988   2.864   6.732   4.581 -3.3615 -0.0522 -0.5314
15833TIP3   OH268989   0.576   1.599  15.358  0.3613 -0.4106  0.1881
15833TIP3    H168990   0.565   1.648  15.439  0.3278  0.6289 -0.4350
15833TIP3    H268991   0.539   1.513  15.377  0.0445 -0.0671  1.1642
15834TIP3   OH268992   6.196   0.745  16.397  0.4595  0.4361  0.4827
15834TIP3    H168993   6.259   0.714  16.331  1.0812  1.1195  0.7435
15834TIP3    H268994   6.220   0.697  16.476  0.8770  0.9519  0.6705
15835TIP3   OH268995   3.774   5.474   0.451  0.1096  0.3729 -0.4332
15835TIP3    H168996   3.754   5.381   0.435  1.2529  0.3711 -2.0461
15835TIP3    H268997   3.733   5.520   0.378 -0.5955  1.1911  0.4507
15836TIP3   OH268998   5.051   6.366   2.145 -0.6047  0.0870 -0.4125
15836TIP3    H168999   5.111   6.292   2.136 -1.4100 -0.7342  0.6095
15836TIP3    H269000   5.079   6.429   2.079  1.7114 -0.0186  0.3792
15837TIP3   OH269001   1.758   3.630  16.101 -0.1264 -0.4130  0.2334
15837TIP3    H169002   1.694   3.666  16.039 -2.0414 -1.8936  1.2404
15837TIP3    H269003   1.782   3.546  16.064  0.1635 -0.4821  0.5759
15838TIP3   OH269004   6.398   3.853  13.943 -0.2150 -0.4943 -0.4972
15838TIP3    H169005   6.367   3.912  13.874  0.1942  1.3852  0.8112
15838TIP3    H269006   6.487   3.884  13.962 -0.1703 -1.2240  0.5747
15839TIP3   OH269007   1.793   2.546   0.777 -0.4624  0.3749 -0.3209
15839TIP3    H169008   1.802   2.603   0.700  0.2294  1.9714  0.8783
15839TIP3    H269009   1.714   2.578   0.821  1.3417  2.3659  1.7937
15840TIP3   OH269010   6.735   3.320   5.309  0.0477  0.1259 -0.1042
15840TIP3    H169011   6.717   3.260   5.382 -0.0256  1.5248  1.0825
15840TIP3    H269012   6.820   3.291   5.275  0.4527 -0.1004  1.0380
15841TIP3   OH269013   1.677   3.149  14.693  0.3233 -0.5256 -0.5589
15841TIP3    H169014   1.684   3.072  14.749 -0.0187 -0.4493 -0.4112
15841TIP3    H269015   1.767   3.183  14.688  0.1351  0.3366  1.1628
15842TIP3   OH269016   5.730   2.872  12.704  0.9866 -0.1743 -0.1565
15842TIP3    H169017   5.718   2.965  12.723 -0.3926 -0.1848 -0.8248
15842TIP3    H269018   5.823   2.863  12.685  1.4377  0.7796  1.3979
15843TIP3   OH269019   1.392   6.469   0.242 -0.0424 -0.3039 -0.0774
15843TIP3    H169020   1.331   6.504   0.177 -0.8415  1.1122  1.3466
15843TIP3    H269021   1.335   6.435   0.311  0.7590  0.7529  1.1410
15844TIP3   OH269022   6.229   4.767  16.198  0.1672 -0.4075  0.2822
15844TIP3    H169023   6.266   4.698  16.141 -0.6585 -0.5739 -0.0684
15844TIP3    H269024   6.294   4.778  16.267  0.1306 -1.8472  0.5832
15845TIP3   OH269025   0.267   0.231  15.205 -0.5592 -0.5370 -0.1104
15845TIP3    H169026   0.229   0.304  15.254 -0.3001 -0.5450  0.1030
15845TIP3    H269027   0.315   0.273  15.133 -1.1055 -0.5329 -0.4821
15846TIP3   OH269028   4.817   4.208   4.654 -0.7801 -0.8021 -0.0704
15846TIP3    H169029   4.791   4.201   4.562  1.5276  0.7495 -0.9551
15846TIP3    H269030   4.777   4.289   4.684  1.5086  0.7910 -0.9877
15847TIP3   OH269031   1.475   6.276   5.734 -0.5162 -0.4395  0.0311
15847TIP3    H169032   1.506   6.245   5.649 -3.3137 -1.6370 -0.6733
15847TIP3    H269033   1.390   6.317   5.716 -2.4136 -2.8807  2.4075
15848TIP3   OH269034   1.125   3.272  13.490 -0.4270  0.5778  0.3903
15848TIP3    H169035   1.073   3.211  13.438 -1.3054  1.6581 -0.0449
15848TIP3    H269036   1.062   3.312  13.551  0.4323 -0.0956  1.7690
15849TIP3   OH269037   5.022   4.875  17.014  0.2118 -0.2695 -0.2152
15849TIP3    H169038   5.086   4.940  16.985  0.0917  0.0761  0.2854
15849TIP3    H269039   5.028   4.805  16.950  0.2585  0.2905 -0.8370
15850TIP3   OH269040   0.517   5.408  12.767  0.6765 -0.1587 -0.3515
15850TIP3    H169041   0.567   5.331  12.794  0.7857  0.0226 -0.0292
15850TIP3    H269042   0.577   5.481  12.782  0.6793 -0.0393 -0.9363
15851TIP3   OH269043   0.679   0.596  12.150 -0.1734 -0.6846 -0.0867
15851TIP3    H169044   0.609   0.651  12.184  1.1055  2.1007 -1.5840
15851TIP3    H269045   0.635   0.525  12.104 -2.0288  0.6778 -0.5294
15852TIP3   OH269046   2.606   6.216   5.056 -0.0396  0.1439  0.3969
15852TIP3    H169047   2.594   6.194   4.964  1.6467 -1.4336  0.4863
15852TIP3    H269048   2.653   6.300   5.055  1.3227 -0.5910 -0.2575
15853TIP3   OH269049   0.645   1.189   5.222  0.2930 -0.0179  0.2627
15853TIP3    H169050   0.671   1.255   5.158  1.8985  0.5214  1.3998
15853TIP3    H269051   0.567   1.148   5.184  1.2164  0.2216 -2.0637
15854TIP3   OH269052   0.888   1.234  12.195  0.0555 -0.0417  0.6677
15854TIP3    H169053   0.930   1.148  12.188 -0.6130 -0.3128 -0.3253
15854TIP3    H269054   0.820   1.222  12.261  1.0765  0.2188  1.7987
15855TIP3   OH269055   4.985   1.712   1.683  0.2687 -0.7493  0.4348
15855TIP3    H169056   4.986   1.671   1.770 -0.1807 -0.2176  0.6994
15855TIP3    H269057   4.915   1.777   1.689 -0.1169 -1.0620 -0.4917
15856TIP3   OH269058   1.630   5.388  15.931 -0.2485  0.1856  0.3365
15856TIP3    H169059   1.541   5.407  15.902 -0.5648  0.7107  1.6170
15856TIP3    H269060   1.685   5.418  15.858 -1.0765  0.2284 -0.2947
15857TIP3   OH269061   5.262   5.384   3.558  0.2203 -0.3646 -0.3642
15857TIP3    H169062   5.303   5.352   3.639 -1.4743  1.1030  1.1469
15857TIP3    H269063   5.198   5.317   3.536 -0.2612 -0.1307  0.2967
15858TIP3   OH269064   3.363   6.779   5.804  0.6111  0.0228  0.5491
15858TIP3    H169065   3.351   6.844   5.735  0.0681  0.0896  0.7052
15858TIP3    H269066   3.313   6.812   5.878 -0.9473 -1.3006  0.1470
15859TIP3   OH269067   0.398   1.726  13.573 -0.0491 -0.1338  0.4129
15859TIP3    H169068   0.463   1.688  13.514  0.3346 -0.5381  1.0837
15859TIP3    H269069   0.331   1.658  13.582  0.1491 -0.2706  0.8485
15860TIP3   OH269070   3.605   2.793   0.254  0.1812 -0.3170 -1.2097
15860TIP3    H169071   3.568   2.846   0.325 -0.3717 -1.3348 -0.7109
15860TIP3    H269072   3.693   2.771   0.285 -0.1774 -1.0393 -0.6592
15861TIP3   OH269073   4.205   6.660  15.358  0.2020  0.7735 -0.7518
15861TIP3    H169074   4.254   6.735  15.324 -1.7185  2.2096 -0.5295
15861TIP3    H269075   4.130   6.699  15.403 -0.0926 -1.2575  0.6424
15862TIP3   OH269076   6.028   6.240  14.149  0.2111 -0.0416  0.0201
15862TIP3    H169077   5.981   6.204  14.225  0.2743 -0.6223 -0.2106
15862TIP3    H269078   6.030   6.334  14.165 -0.6987 -0.0442  0.2224
15863TIP3   OH269079   4.477   3.739  15.710  0.0975  0.3497 -0.3400
15863TIP3    H169080   4.407   3.804  15.705  0.1070  0.7259  2.6725
15863TIP3    H269081   4.553   3.787  15.744  0.4279 -0.9685  0.9057
15864TIP3   OH269082   2.899   2.449  12.821 -0.4249 -0.7469 -0.4221
15864TIP3    H169083   2.985   2.428  12.856 -0.2004 -0.8702 -1.0248
15864TIP3    H269084   2.845   2.373  12.842  0.1226 -1.5321 -1.7037
15865TIP3   OH269085   0.019   2.938  15.867  0.4419  0.4309 -0.2827
15865TIP3    H169086   0.111   2.943  15.893  0.4607  0.8849 -0.4264
15865TIP3    H269087   0.019   2.884  15.788  0.3538 -1.2047  0.7731
15866TIP3   OH269088   1.118   1.266   0.149  0.3780 -0.1695 -0.1295
15866TIP3    H169089   1.070   1.195   0.105  0.2833  0.1596 -0.5559
15866TIP3    H269090   1.115   1.339   0.087  0.6728  0.1349  0.2161
15867TIP3   OH269091   3.101   0.179  11.020 -0.0199  0.1494  0.3789
15867TIP3    H169092   3.113   0.084  11.020 -0.8150  0.0401  0.6140
15867TIP3    H269093   3.135   0.207  11.105  1.3939  0.2543 -0.1898
15868TIP3   OH269094   2.571   0.447  14.305  0.5240  0.4471 -0.3140
15868TIP3    H169095   2.546   0.486  14.222  2.4508 -1.2393 -1.8084
15868TIP3    H269096   2.622   0.515  14.349  0.7772  0.8752 -1.2323
15869TIP3   OH269097   3.902   5.226  10.770 -0.1021 -0.4729 -0.2474
15869TIP3    H169098   3.845   5.217  10.693 -1.6994 -0.8066  0.9406
15869TIP3    H269099   3.881   5.312  10.805 -0.8203 -1.1149  0.9318
15870TIP3   OH269100   6.305   6.159  15.993  0.0476 -0.2079 -0.3800
15870TIP3    H169101   6.214   6.172  15.968 -0.0219 -0.4427 -0.2496
15870TIP3    H269102   6.354   6.164  15.911 -0.1555 -0.7739 -0.5392
15871TIP3   OH269103   0.150   1.573   2.911 -0.4013 -0.1110 -0.4161
15871TIP3    H169104   0.088   1.516   2.956 -0.1710  0.6894  0.9525
15871TIP3    H269105   0.105   1.597   2.830 -0.8357 -1.5488 -0.6312
15872TIP3   OH269106   5.236   1.461  12.936 -0.6311 -0.2667 -0.0666
15872TIP3    H169107   5.154   1.442  12.982 -1.2593  1.3302 -0.4524
15872TIP3    H269108   5.219   1.543  12.890  0.8146 -0.5135 -1.1107
15873TIP3   OH269109   4.676   3.220  16.116 -0.4443  0.6334 -0.3955
15873TIP3    H169110   4.699   3.201  16.025  1.2105 -0.2824  0.1786
15873TIP3    H269111   4.747   3.276  16.148 -1.8823  2.4415 -0.1168
15874TIP3   OH269112   3.596   2.486   5.431 -0.7564 -0.4983  0.1022
15874TIP3    H169113   3.668   2.458   5.375  0.2275 -3.1202  2.4388
15874TIP3    H269114   3.639   2.524   5.508 -1.9515  0.1585  0.4675
15875TIP3   OH269115   4.708   1.635  14.402 -0.0051 -0.1012  0.3664
15875TIP3    H169116   4.616   1.610  14.401 -0.1006  0.1953 -0.8824
15875TIP3    H269117   4.717   1.692  14.478 -1.0052  0.3959  0.1303
15876TIP3   OH269118   0.110   2.908  17.100  0.3523  0.5437 -0.0530
15876TIP3    H169119   0.161   2.955  17.034 -1.2866  2.1867 -0.2349
15876TIP3    H269120   0.029   2.959  17.108 -0.8177 -1.3742  0.9718
15877TIP3   OH269121   4.053   1.908   2.797 -0.3892 -0.0861 -0.1559
15877TIP3    H169122   4.050   1.989   2.847 -1.7274 -0.4433  0.3761
15877TIP3    H269123   3.973   1.862   2.821 -1.0255 -0.3430 -2.5025
15878TIP3   OH269124   2.131   5.622  15.108 -0.4940 -0.2650  0.0345
15878TIP3    H169125   2.196   5.595  15.174  0.3261 -0.1206 -0.6980
15878TIP3    H269126   2.181   5.673  15.045 -1.0154 -1.3899 -1.3479
15879TIP3   OH269127   1.303   6.498   2.155 -0.3045 -0.0167 -0.3943
15879TIP3    H169128   1.378   6.461   2.201 -1.5407 -0.9622  0.9664
15879TIP3    H269129   1.336   6.577   2.113  1.0269  0.5957  1.7013
15880TIP3   OH269130   3.196   2.592  12.232 -0.0950 -0.2106  0.2181
15880TIP3    H169131   3.241   2.676  12.248  0.8042 -0.4400 -0.9790
15880TIP3    H269132   3.261   2.538  12.187 -0.4942 -1.7472  1.3940
15881TIP3   OH269133   3.025   3.305   1.731 -0.2600 -0.2850 -0.7746
15881TIP3    H169134   3.007   3.360   1.655  0.9229  0.9067 -0.2529
15881TIP3    H269135   3.015   3.216   1.700 -0.2862  0.1882 -2.1949
15882TIP3   OH269136   1.208   5.026  16.008  0.3327 -0.0543 -0.1597
15882TIP3    H169137   1.211   5.034  16.104  1.3060 -1.0238 -0.0881
15882TIP3    H269138   1.233   5.112  15.976 -1.0882  0.6041  0.4378
15883TIP3   OH269139   1.514   0.467   4.976 -0.1260 -0.2672  0.3498
15883TIP3    H169140   1.537   0.385   5.019 -1.0219 -0.6082  0.1999
15883TIP3    H269141   1.463   0.515   5.042 -0.1687 -0.1177  0.2081
15884TIP3   OH269142   6.062   5.903   2.638 -0.1158 -0.0976 -0.1793
15884TIP3    H169143   5.968   5.914   2.655  0.4287  1.8365  2.3602
15884TIP3    H269144   6.068   5.880   2.546 -2.9788  1.7944 -0.9552
15885TIP3   OH269145   0.743   4.001  11.287  0.1178  0.5679 -0.0868
15885TIP3    H169146   0.733   4.048  11.369  0.8594  1.7170 -0.6399
15885TIP3    H269147   0.665   4.024  11.236  0.1649  0.6881 -0.1049
15886TIP3   OH269148   1.500   4.293  16.411  0.4921 -0.3181  0.0842
15886TIP3    H169149   1.499   4.361  16.344 -2.3442 -0.2134  0.1186
15886TIP3    H269150   1.550   4.332  16.483  0.3347  1.0904 -0.5260
15887TIP3   OH269151   1.379   2.521  12.413  0.1675 -0.3051  0.3207
15887TIP3    H169152   1.395   2.608  12.375  0.1227  0.0074  1.0129
15887TIP3    H269153   1.466   2.490  12.438 -0.0023  0.3314  1.7737
15888TIP3   OH269154   3.635   3.603   2.905  0.6722 -0.1418 -0.2350
15888TIP3    H169155   3.568   3.610   2.837  0.4287  0.5487  0.0622
15888TIP3    H269156   3.598   3.650   2.980  0.8630 -1.0400  0.4346
15889TIP3   OH269157   3.117   2.063  12.634  0.6090  0.2396 -0.9193
15889TIP3    H169158   3.203   2.059  12.675  1.3119  0.6685 -2.2889
15889TIP3    H269159   3.120   1.995  12.566  1.0208  2.2278 -3.0057
15890TIP3   OH269160   1.336   3.150  14.542  0.0032  0.0104 -0.6298
15890TIP3    H169161   1.392   3.224  14.517 -1.2071  0.7548 -1.2924
15890TIP3    H269162   1.265   3.190  14.593  0.5471 -1.0323  1.0183
15891TIP3   OH269163   0.807   0.178  15.990 -0.2966 -0.3170  0.1368
15891TIP3    H169164   0.846   0.253  15.946 -1.3823  0.0890 -0.1600
15891TIP3    H269165   0.881   0.119  16.007  0.5639  0.7824  0.3319
15892TIP3   OH269166   4.366   6.780   5.012  0.3795 -0.2357 -0.0024
15892TIP3    H169167   4.411   6.714   4.960 -0.3231  0.0008 -0.9434
15892TIP3    H269168   4.274   6.754   5.008 -0.1289  1.5559 -1.6276
15893TIP3   OH269169   3.798   0.624   4.992 -0.3113 -0.5386  0.4944
15893TIP3    H169170   3.809   0.695   5.055  1.3421 -0.5436  0.2573
15893TIP3    H269171   3.785   0.546   5.046  0.2084 -0.4067  0.8183
15894TIP3   OH269172   4.007   0.042   0.929 -0.2013 -0.0046 -0.4240
15894TIP3    H169173   4.016   0.001   0.843 -1.5802  0.0451 -0.6123
15894TIP3    H269174   4.039   0.131   0.917  1.2599 -0.4983 -0.4249
15895TIP3   OH269175   2.017   6.663   6.110 -0.4722 -0.1084  0.3362
15895TIP3    H169176   1.955   6.684   6.180  1.1390  1.6233  1.3188
15895TIP3    H269177   2.101   6.653   6.154  0.6279  1.2074 -1.3421
15896TIP3   OH269178   0.755   6.624  13.559  0.5013  0.1919 -0.2366
15896TIP3    H169179   0.705   6.542  13.557  1.4443 -0.3851 -1.9241
15896TIP3    H269180   0.736   6.661  13.645  0.3217 -1.9645  0.7207
15897TIP3   OH269181   4.739   0.886   1.122  0.5719  0.7623  0.0848
15897TIP3    H169182   4.773   0.937   1.196 -0.7208  0.8795  0.6201
15897TIP3    H269183   4.674   0.943   1.081 -1.4209 -0.6398  1.1098
15898TIP3   OH269184   3.167   0.762  14.470  0.3264  0.2171  0.6318
15898TIP3    H169185   3.199   0.786  14.556 -0.5442  2.0074  0.5108
15898TIP3    H269186   3.245   0.756  14.415  0.7115  1.6600  0.9795
15899TIP3   OH269187   6.794   3.005   4.416  0.2512 -0.5681 -0.0076
15899TIP3    H169188   6.883   3.024   4.386 -0.0243  1.4476  0.3475
15899TIP3    H269189   6.739   3.021   4.339 -0.1505  1.8086  0.7075
15900TIP3   OH269190   4.866   2.074   2.365  0.4601 -0.7829  0.3393
15900TIP3    H169191   4.862   2.029   2.281 -1.8535  0.1088 -0.1140
15900TIP3    H269192   4.944   2.129   2.359  0.7284 -1.2708 -0.9438
15901TIP3   OH269193   5.712   3.986   0.898  0.0158  0.4797  0.4474
15901TIP3    H169194   5.639   3.963   0.842  0.0595 -1.8026  1.1895
15901TIP3    H269195   5.730   3.906   0.948  1.9873  1.4434  1.4327
15902TIP3   OH269196   0.617   2.565   4.301 -0.0324  0.4866 -0.5960
15902TIP3    H169197   0.699   2.613   4.306  0.8617 -1.1207  1.6477
15902TIP3    H269198   0.572   2.586   4.383 -1.1300  0.0704 -1.0736
15903TIP3   OH269199   4.883   4.898   4.328  0.0137  0.0660  0.0321
15903TIP3    H169200   4.897   4.893   4.423  0.3174  0.1585 -0.0036
15903TIP3    H269201   4.790   4.879   4.316 -0.2310  0.9610  0.4270
15904TIP3   OH269202   0.867   1.754   2.869  0.1962  0.4749  0.0220
15904TIP3    H169203   0.869   1.734   2.963  0.8764 -1.9184 -0.4488
15904TIP3    H269204   0.799   1.821   2.861  0.2795  0.8978  2.2410
15905TIP3   OH269205   6.810   5.369   1.717 -0.9781  0.3814 -0.1479
15905TIP3    H169206   6.737   5.309   1.700 -2.2103  1.4991  1.0240
15905TIP3    H269207   6.769   5.453   1.733  0.6648  1.3260 -0.6342
15906TIP3   OH269208   1.391   1.410  14.229  0.1122  0.3270  0.0719
15906TIP3    H169209   1.481   1.390  14.206  0.2018  1.1085 -0.2719
15906TIP3    H269210   1.381   1.377  14.319  1.9051  3.6141  1.6312
15907TIP3   OH269211   0.200   6.496  15.869 -0.4336  0.0430  0.4377
15907TIP3    H169212   0.252   6.495  15.789 -1.0436  0.5869  0.0238
15907TIP3    H269213   0.115   6.531  15.843 -0.9784 -0.7173  1.1290
15908TIP3   OH269214   4.549   3.401   5.259  0.0659  0.6087  0.0118
15908TIP3    H169215   4.578   3.461   5.327  1.3523  1.8793 -1.5618
15908TIP3    H269216   4.629   3.363   5.224 -0.6729 -1.3316  0.2959
15909TIP3   OH269217   5.085   1.740  10.987  0.5329 -0.3104  0.2107
15909TIP3    H169218   5.030   1.666  10.959  0.5436  0.2890 -1.5289
15909TIP3    H269219   5.174   1.712  10.966  0.4208  0.7200 -1.8175
15910TIP3   OH269220   5.489   1.129  12.968 -0.4181  0.4220 -0.0565
15910TIP3    H169221   5.574   1.172  12.979 -0.6206  0.1523  3.6349
15910TIP3    H269222   5.511   1.045  12.927  0.4545  2.0823 -3.3137
15911TIP3   OH269223   4.389   0.760  16.671  0.3916  0.1854  0.1372
15911TIP3    H169224   4.426   0.750  16.758  0.3285  1.7415  0.3737
15911TIP3    H269225   4.398   0.674  16.630  2.3658 -0.0313  0.9272
15912TIP3   OH269226   3.497   3.771   4.575  0.2843 -0.1805  0.1384
15912TIP3    H169227   3.545   3.714   4.515  0.6433 -0.2012  0.4425
15912TIP3    H269228   3.460   3.712   4.640  0.8692 -0.0499  0.6001
15913TIP3   OH269229   4.046   4.512  13.021  0.0866 -0.7545 -0.0831
15913TIP3    H169230   4.027   4.547  12.934 -2.0343 -1.2070  0.1607
15913TIP3    H269231   4.108   4.575  13.059  0.8012 -0.3882 -1.7796
15914TIP3   OH269232   5.656   0.268   2.062 -0.2045  0.0445 -0.2960
15914TIP3    H169233   5.631   0.345   2.111 -2.5607  0.1410 -1.5074
15914TIP3    H269234   5.652   0.295   1.970  0.2981 -1.1406 -0.6950
15915TIP3   OH269235   6.076   5.727   5.294  0.0345  0.2932 -0.3114
15915TIP3    H169236   6.145   5.792   5.284  2.8557 -2.5702 -1.1855
15915TIP3    H269237   6.048   5.707   5.204  0.2276 -0.6765 -0.1687
15916TIP3   OH269238   3.540   4.171  12.716  0.1621 -0.2355  0.6243
15916TIP3    H169239   3.483   4.149  12.790 -0.3753  1.7100  0.8338
15916TIP3    H269240   3.494   4.241  12.670  1.4620  0.0149 -0.3563
15917TIP3   OH269241   4.510   2.814   3.767  0.7323  0.2206 -0.9706
15917TIP3    H169242   4.544   2.828   3.856  1.5967 -2.5379 -0.7701
15917TIP3    H269243   4.443   2.747   3.778  1.0553 -0.3703 -2.4382
15918TIP3   OH269244   5.220   4.301   3.397 -0.4236  0.0172  0.7968
15918TIP3    H169245   5.221   4.298   3.493  1.4341  1.6150  0.8848
15918TIP3    H269246   5.250   4.389   3.376  0.6303 -0.7768 -1.2589
15919TIP3   OH269247   5.329   5.362  13.306  0.0287  0.5368 -0.4768
15919TIP3    H169248   5.297   5.373  13.395  1.6920  0.8899  0.1123
15919TIP3    H269249   5.289   5.281  13.276 -1.9840  1.3360 -0.0878
15920TIP3   OH269250   0.188   5.670   0.043  0.0396  0.5146  0.0263
15920TIP3    H169251   0.154   5.746  -0.004 -0.4689  0.1164 -0.2626
15920TIP3    H269252   0.110   5.617   0.062  0.3103  0.3796  0.7879
15921TIP3   OH269253   0.974   4.810   0.102 -0.3944  0.2949 -0.1597
15921TIP3    H169254   0.961   4.904   0.093  0.8100  0.4418 -0.4928
15921TIP3    H269255   0.888   4.776   0.129 -0.7562  1.5146  0.2649
15922TIP3   OH269256   0.943   2.919  16.409  0.0093 -0.2611  0.3804
15922TIP3    H169257   0.989   2.836  16.408  0.2669 -0.1225  0.6411
15922TIP3    H269258   0.987   2.973  16.343 -0.9181 -0.7327 -0.6578
15923TIP3   OH269259   2.350   4.014  15.625  0.4289 -0.0616 -0.1392
15923TIP3    H169260   2.431   3.972  15.653 -0.5266 -0.8753  1.5154
15923TIP3    H269261   2.281   3.973  15.677 -0.7894  2.1994  0.1883
15924TIP3   OH269262   4.911   5.973  14.136  0.7489 -0.3767 -0.0665
15924TIP3    H169263   4.887   5.968  14.228 -2.2201  0.7921 -0.6585
15924TIP3    H269264   4.978   6.042  14.132  0.6002 -0.1373  1.1567
15925TIP3   OH269265   2.062   1.122  14.644 -0.3712 -0.0709 -0.3004
15925TIP3    H169266   2.070   1.104  14.550 -0.4331  1.0190 -0.5207
15925TIP3    H269267   2.116   1.200  14.659 -0.2250 -0.3302  0.6081
15926TIP3   OH269268   0.447   0.669  11.139 -0.0296 -0.0076 -0.1317
15926TIP3    H169269   0.507   0.607  11.179  2.5905  1.6091 -1.3139
15926TIP3    H269270   0.385   0.615  11.090 -0.0750 -1.7640  1.7453
15927TIP3   OH269271   6.473   2.715  16.541  0.1828 -0.5748  0.1234
15927TIP3    H169272   6.460   2.690  16.632  1.4818  0.2521  0.5623
15927TIP3    H269273   6.563   2.746  16.537 -0.5479  1.6536 -0.9049
15928TIP3   OH269274   5.337   0.076   0.014  0.4306 -0.3550 -0.8188
15928TIP3    H169275   5.397   0.026  -0.042  0.4323 -0.3743 -0.8003
15928TIP3    H269276   5.384   0.085   0.097  0.2302 -0.7473 -0.6620
15929TIP3   OH269277   4.722   1.724  11.056  0.2861 -0.4096  0.2004
15929TIP3    H169278   4.671   1.652  11.092  0.1531 -0.7376 -0.6272
15929TIP3    H269279   4.813   1.694  11.061  0.2930 -0.3493  0.4808
15930TIP3   OH269280   2.099   5.630   3.678 -0.1170  0.5432 -0.1775
15930TIP3    H169281   2.091   5.560   3.742  1.6723 -1.1087 -1.6514
15930TIP3    H269282   2.106   5.710   3.731  0.9600 -0.7151  1.6723
15931TIP3   OH269283   4.158   1.388   2.101 -0.0155 -0.2502 -0.5347
15931TIP3    H169284   4.102   1.456   2.137  2.1610  0.9160  0.9145
15931TIP3    H269285   4.100   1.334   2.048 -2.7952 -0.0821  2.0690
15932TIP3   OH269286   1.889   1.155   5.442  0.5066 -0.2144 -0.0759
15932TIP3    H169287   1.831   1.124   5.373  0.6293 -1.5342  0.3752
15932TIP3    H269288   1.931   1.232   5.406  0.3214 -0.6864 -1.3499
15933TIP3   OH269289   6.475   6.069   3.577  0.2700 -0.1186 -0.5250
15933TIP3    H169290   6.525   6.109   3.505  0.6383  4.1092  1.7388
15933TIP3    H269291   6.541   6.048   3.643 -0.4336  1.5219  0.7756
15934TIP3   OH269292   1.338   1.353  16.092  0.2973  0.4365 -0.5073
15934TIP3    H169293   1.281   1.308  16.030  0.1020  0.0543 -0.0628
15934TIP3    H269294   1.403   1.286  16.116  0.0434  0.4038  0.1123
15935TIP3   OH269295   3.795   4.791   2.451 -0.3395  0.3236  0.8748
15935TIP3    H169296   3.735   4.719   2.429  0.4755  0.0081 -0.4596
15935TIP3    H269297   3.738   4.860   2.484 -1.4329 -0.0447 -0.1692
15936TIP3   OH269298   6.846   3.346   3.528  0.6137 -0.1002 -0.8187
15936TIP3    H169299   6.883   3.288   3.462  2.9861 -0.9351  1.0806
15936TIP3    H269300   6.816   3.288   3.598 -0.6475  0.8027 -0.5602
15937TIP3   OH269301   1.058   4.203  16.033  0.0687  0.1559  0.7444
15937TIP3    H169302   1.066   4.112  16.004 -0.6908  0.6063 -1.0637
15937TIP3    H269303   0.966   4.215  16.054  0.2210  0.4337  1.2902
15938TIP3   OH269304   5.552   0.885   5.466 -0.2045 -0.1667 -0.2962
15938TIP3    H169305   5.516   0.907   5.380 -0.9686 -1.3685 -0.3164
15938TIP3    H269306   5.496   0.930   5.529  0.0898  0.3663 -0.4154
15939TIP3   OH269307   1.712   0.652   5.633  0.0061 -0.0365 -0.2848
15939TIP3    H169308   1.722   0.717   5.564 -1.0455  2.2357  1.5518
15939TIP3    H269309   1.793   0.658   5.684 -0.4246  0.4480  0.3562
15940TIP3   OH269310   3.372   4.567  12.811  0.4983 -0.3392 -0.1493
15940TIP3    H169311   3.315   4.499  12.846  0.2116 -0.3058 -0.5477
15940TIP3    H269312   3.407   4.612  12.889 -0.6895  0.2026  0.0885
15941TIP3   OH269313   6.853   4.683  13.636  0.0848  0.4588  0.2518
15941TIP3    H169314   6.827   4.770  13.663 -0.3673 -0.0798  1.6192
15941TIP3    H269315   6.788   4.657  13.571 -0.0263  0.9554  0.1646
15942TIP3   OH269316   3.850   4.948   0.532  0.2736 -0.0940 -0.0511
15942TIP3    H169317   3.897   4.912   0.456  1.1388 -1.0793  0.9065
15942TIP3    H269318   3.912   4.938   0.604 -1.1514 -0.7477  1.1206
15943TIP3   OH269319   6.607   0.026   5.116  0.1378 -0.1033 -0.0486
15943TIP3    H169320   6.629   0.071   5.198 -0.5695 -0.2356  0.2267
15943TIP3    H269321   6.545  -0.042   5.143  0.9480 -1.0434 -0.5048
15944TIP3   OH269322   5.107   4.911  11.511  0.2344 -0.0283 -0.0683
15944TIP3    H169323   5.111   4.984  11.450  0.8109 -1.3597 -1.6980
15944TIP3    H269324   5.133   4.948  11.595  0.3938  1.6502 -0.8231
15945TIP3   OH269325   3.318   3.176   0.246 -0.0364 -0.1596  0.3539
15945TIP3    H169326   3.331   3.267   0.273  0.4473 -0.0295 -0.2865
15945TIP3    H269327   3.225   3.160   0.259  0.2412 -0.2927  2.6101
15946TIP3   OH269328   2.489   4.012   3.624  0.0137  0.2537  0.2693
15946TIP3    H169329   2.530   4.076   3.682  1.1523 -1.0366  0.9317
15946TIP3    H269330   2.555   3.993   3.557 -0.1949 -0.4730  0.2624
15947TIP3   OH269331   0.872   6.398  14.596 -0.0124 -0.0505 -0.1538
15947TIP3    H169332   0.877   6.314  14.551  0.5433  0.3645 -0.8940
15947TIP3    H269333   0.794   6.391  14.651 -0.3153 -0.8267 -0.6572
15948TIP3   OH269334   0.049   5.760  16.593 -0.4052  0.0062 -0.2521
15948TIP3    H169335   0.025   5.700  16.664  1.0901  0.2184  0.4779
15948TIP3    H269336   0.001   5.728  16.517 -1.3172 -0.7962  0.6344
15949TIP3   OH269337   3.568   6.536  12.186 -0.0846  0.1499  0.1690
15949TIP3    H169338   3.597   6.622  12.216 -0.3940  1.0211 -1.8612
15949TIP3    H269339   3.516   6.501  12.259 -0.6328  2.0346  0.7328
15950TIP3   OH269340   5.069   2.387   3.547 -0.1950  0.3013 -0.0778
15950TIP3    H169341   5.002   2.366   3.612 -0.3630 -1.0270 -0.6453
15950TIP3    H269342   5.030   2.363   3.463  1.1041 -0.8605 -0.3914
15951TIP3   OH269343   1.683   3.370   0.809  0.5947  0.1099  1.0138
15951TIP3    H169344   1.620   3.315   0.762  0.3595 -0.2070  1.6882
15951TIP3    H269345   1.710   3.435   0.745  0.7062 -0.6536  0.2627
15952TIP3   OH269346   4.919   6.745  13.267  0.0199  0.4212 -0.3435
15952TIP3    H169347   4.856   6.727  13.338  1.3335  0.3782  0.8475
15952TIP3    H269348   4.958   6.660  13.248 -0.6508  0.3453 -1.4810
15953TIP3   OH269349   5.144   6.309  11.579 -0.7966  0.1332  0.5631
15953TIP3    H169350   5.209   6.271  11.639 -0.7003  0.6877  0.8148
15953TIP3    H269351   5.099   6.233  11.542  0.7436 -0.3301 -0.4917
15954TIP3   OH269352   3.562   1.886  13.769 -0.5223  0.7114  0.1514
15954TIP3    H169353   3.572   1.949  13.841 -1.4165  1.9030 -0.7090
15954TIP3    H269354   3.639   1.830  13.775  0.6368  2.2623  0.6140
15955TIP3   OH269355   4.400   1.730   3.243 -0.6077 -0.6270  0.3020
15955TIP3    H169356   4.414   1.822   3.263  0.7766 -1.0114  1.2836
15955TIP3    H269357   4.488   1.693   3.234 -1.0929 -1.3650 -2.6978
15956TIP3   OH269358   6.832   2.478  13.636 -0.4770  0.4233 -0.1835
15956TIP3    H169359   6.888   2.551  13.611 -1.0068  1.0613  0.4407
15956TIP3    H269360   6.757   2.519  13.679 -0.7230 -0.4939  0.2879
15957TIP3   OH269361   0.708   0.050   1.382 -0.4892 -0.1295 -0.1859
15957TIP3    H169362   0.778  -0.005   1.347 -0.3404  0.4883 -0.8555
15957TIP3    H269363   0.689   0.113   1.313 -0.1873  1.1118  0.8224
15958TIP3   OH269364   4.619   3.915  15.877 -0.3159 -0.0560 -0.5068
15958TIP3    H169365   4.630   4.007  15.853  0.1905 -0.0151 -0.1144
15958TIP3    H269366   4.553   3.917  15.947 -0.2047  0.0202 -0.4038
15959TIP3   OH269367   3.197   0.238  11.282  0.3411  0.0306  0.2460
15959TIP3    H169368   3.185   0.186  11.361  1.4929  0.1090  0.4847
15959TIP3    H269369   3.135   0.310  11.291  0.0180 -0.3057  0.7711
15960TIP3   OH269370   3.955   5.071  16.474  0.5989  0.5141 -0.0948
15960TIP3    H169371   3.873   5.118  16.463  0.4527  0.2318 -0.2438
15960TIP3    H269372   4.016   5.135  16.512  0.7915  1.2140 -1.4979
15961TIP3   OH269373   5.142   5.221  16.227  0.4937 -0.4141 -0.3464
15961TIP3    H169374   5.061   5.188  16.188 -0.3698 -0.7452  1.5921
15961TIP3    H269375   5.158   5.304  16.182 -2.0579  0.6682  0.5456
15962TIP3   OH269376   6.038   1.106  13.102  0.2332 -0.6806 -0.6741
15962TIP3    H169377   5.999   1.081  13.018 -0.6277 -0.6266 -0.3013
15962TIP3    H269378   6.055   1.024  13.147 -1.5810 -0.6767  0.0981
15963TIP3   OH269379   4.665   2.875  16.023  0.1132 -0.0157 -1.0116
15963TIP3    H169380   4.728   2.860  16.094 -0.6800  1.1626 -0.0074
15963TIP3    H269381   4.602   2.937  16.061 -0.4641  0.4541 -2.6795
15964TIP3   OH269382   6.421   0.438   4.810  0.1178 -0.1013  0.1551
15964TIP3    H169383   6.464   0.450   4.725  1.2699  0.3278  0.7725
15964TIP3    H269384   6.469   0.366   4.851 -0.5936 -0.4698  0.3461
15965TIP3   OH269385   0.894   5.760  14.892  0.4134  0.2152 -0.0904
15965TIP3    H169386   0.919   5.667  14.889  1.4148  0.4583  0.2986
15965TIP3    H269387   0.802   5.761  14.868  0.7556 -0.7337 -1.5109
15966TIP3   OH269388   5.739   6.733   2.333  0.0365  0.2609  0.3239
15966TIP3    H169389   5.724   6.703   2.244  2.1590  1.6826 -0.6064
15966TIP3    H269390   5.695   6.818   2.338 -0.2458  0.0965  0.7158
15967TIP3   OH269391   1.851   0.347  14.235 -0.5689 -0.0835  0.4643
15967TIP3    H169392   1.827   0.411  14.169 -0.9947  0.2511  0.9365
15967TIP3    H269393   1.946   0.337  14.227 -0.8319 -1.5913 -1.5976
15968TIP3   OH269394   2.519   4.071  16.381  0.1485 -0.4082  0.0439
15968TIP3    H169395   2.502   4.118  16.463 -2.1682 -0.6395 -0.2296
15968TIP3    H269396   2.560   3.989  16.408  1.2174  0.3271  0.7740
15969TIP3   OH269397   1.821   5.000  11.470  0.4592 -0.0410  0.6057
15969TIP3    H169398   1.819   4.976  11.378 -2.8959  0.1044  0.5219
15969TIP3    H269399   1.801   4.919  11.517  1.2218  0.0859  1.1872
15970TIP3   OH269400   5.644   3.981  16.667 -0.8229  0.1358  0.0422
15970TIP3    H169401   5.728   4.026  16.677  0.5495 -1.4179 -3.1284
15970TIP3    H269402   5.618   3.997  16.577 -3.0086 -0.9844  0.4030
15971TIP3   OH269403   3.888   5.009   5.467  0.1171  0.0385 -0.2129
15971TIP3    H169404   3.935   4.946   5.411  1.7553  0.4455  0.6192
15971TIP3    H269405   3.806   5.025   5.421 -0.5360 -2.9186 -0.3165
15972TIP3   OH269406   2.800   1.719  16.199  0.0250  0.3559 -0.0260
15972TIP3    H169407   2.811   1.813  16.216  0.0665  0.5268 -0.9476
15972TIP3    H269408   2.785   1.681  16.285  0.9850  1.0671  0.4769
15973TIP3   OH269409   4.260   6.316  16.498 -0.2836 -0.6719  0.4113
15973TIP3    H169410   4.201   6.242  16.511  0.7037 -1.7432 -0.8219
15973TIP3    H269411   4.269   6.323  16.403  1.3716 -0.4417  0.5404
15974TIP3   OH269412   4.252   0.703  12.935 -0.1389  0.1238  0.1676
15974TIP3    H169413   4.184   0.750  12.888 -1.0781 -0.2156  1.1579
15974TIP3    H269414   4.217   0.691  13.023  0.9344 -0.6180  0.5146
15975TIP3   OH269415   6.164   4.016  15.160 -0.2619 -0.2386  0.6733
15975TIP3    H169416   6.170   4.111  15.148  3.3281 -0.4994 -0.9428
15975TIP3    H269417   6.189   4.002  15.251  2.2663  0.3052  0.1384
15976TIP3   OH269418   3.589   1.577  15.296 -0.0146 -0.1107 -0.1065
15976TIP3    H169419   3.610   1.560  15.388  0.0308 -0.3060 -0.1530
15976TIP3    H269420   3.498   1.609  15.298  0.4351  1.2066  0.1379
15977TIP3   OH269421   1.533   1.584  16.371  0.2721 -0.3999  0.5888
15977TIP3    H169422   1.570   1.663  16.410  1.2474 -1.2657  1.5132
15977TIP3    H269423   1.465   1.556  16.433  0.1260 -0.4303  0.4145
15978TIP3   OH269424   5.510   0.388   0.654  0.6090 -0.0470 -1.0228
15978TIP3    H169425   5.576   0.450   0.622 -0.1744  0.5612 -1.5054
15978TIP3    H269426   5.431   0.411   0.605  0.0561 -0.8057 -0.4950
15979TIP3   OH269427   6.483   5.677   0.582  0.0312  0.0772 -0.4390
15979TIP3    H169428   6.561   5.644   0.626  0.4056  1.0423 -0.3414
15979TIP3    H269429   6.476   5.627   0.501  1.0480  0.3389 -0.6921
15980TIP3   OH269430   6.428   1.080   1.790  0.2642  0.0569 -0.1703
15980TIP3    H169431   6.484   1.054   1.716  0.8230  0.7999 -0.0180
15980TIP3    H269432   6.470   1.040   1.866 -0.4194 -0.8705 -0.2628
15981TIP3   OH269433   5.405   5.181  11.951  0.3678 -0.2155 -0.5475
15981TIP3    H169434   5.390   5.273  11.973  0.8420  0.3682 -2.4517
15981TIP3    H269435   5.317   5.144  11.943  0.1757 -0.1403  0.9085
15982TIP3   OH269436   5.940   6.061  16.852 -0.0498 -0.1101 -0.0101
15982TIP3    H169437   5.962   6.040  16.761 -1.5640  0.6877 -0.5854
15982TIP3    H269438   5.850   6.031  16.863  0.2349 -0.5607  1.3729
15983TIP3   OH269439   2.289   5.277   0.009  0.3648 -0.0267  0.2070
15983TIP3    H169440   2.229   5.232   0.068 -0.8387 -0.0135 -0.9476
15983TIP3    H269441   2.250   5.265  -0.078  1.9871  0.0748 -0.5781
15984TIP3   OH269442   6.449   5.675  15.377 -0.4419  0.0168  0.6530
15984TIP3    H169443   6.513   5.616  15.415  0.8004  0.3651 -0.7846
15984TIP3    H269444   6.438   5.744  15.442  0.6476 -0.0644  0.9462
15985TIP3   OH269445   3.688   2.096  14.454 -0.1122  0.4130  0.4428
15985TIP3    H169446   3.714   2.101  14.546 -1.7841  0.6728  0.9399
15985TIP3    H269447   3.607   2.045  14.455  0.3343 -0.3763 -1.0096
15986TIP3   OH269448   3.173   3.548  10.942  0.0433 -0.8708  0.0278
15986TIP3    H169449   3.104   3.544  10.876  2.3154 -0.7761 -2.4818
15986TIP3    H269450   3.210   3.636  10.934  0.9416 -1.1577  0.8127
15987TIP3   OH269451   1.615   5.161   5.131  0.3984 -0.2321 -0.5030
15987TIP3    H169452   1.596   5.188   5.221  1.8442  2.6397 -0.9437
15987TIP3    H269453   1.574   5.074   5.122  0.0060 -0.4857  2.7953
15988TIP3   OH269454   3.256   2.244  14.650  0.1184 -0.2368  0.3098
15988TIP3    H169455   3.255   2.338  14.666  1.5241 -0.3461  1.2069
15988TIP3    H269456   3.250   2.235  14.555  0.9098  0.7859  0.1572
15989TIP3   OH269457   6.788   6.462  12.318  0.0781 -0.2367  0.3560
15989TIP3    H169458   6.725   6.500  12.256  1.5166  0.7297 -0.5726
15989TIP3    H269459   6.870   6.509  12.301  1.2471 -1.9392  1.0341
15990TIP3   OH269460   4.500   2.365   1.218  0.0991 -0.4161 -0.1248
15990TIP3    H169461   4.448   2.401   1.147  1.2316  1.8727  0.1079
15990TIP3    H269462   4.563   2.307   1.175 -0.8947 -1.1055 -0.6745
15991TIP3   OH269463   0.938   6.492  15.157 -0.1904 -0.0522 -0.3958
15991TIP3    H169464   0.892   6.494  15.073  0.0862 -0.8203 -0.5706
15991TIP3    H269465   0.933   6.583  15.189 -0.9938  0.0766 -0.8536
15992TIP3   OH269466   2.167   4.586   1.267  0.4259 -0.3519 -0.4585
15992TIP3    H169467   2.076   4.563   1.288  0.1774 -0.3054 -1.4312
15992TIP3    H269468   2.218   4.509   1.293  0.2491 -0.0042  1.0111
15993TIP3   OH269469   6.562   2.727   0.223 -0.1302 -0.0679  0.2023
15993TIP3    H169470   6.539   2.782   0.148  0.0838  0.4028  0.4812
15993TIP3    H269471   6.502   2.754   0.292 -0.0425 -0.2066  0.3331
15994TIP3   OH269472   6.581   2.637  15.823 -0.4830  0.4574  0.4637
15994TIP3    H169473   6.586   2.561  15.764 -0.2797 -0.5184  1.6927
15994TIP3    H269474   6.550   2.708  15.768 -1.0643 -0.6195 -0.6445
15995TIP3   OH269475   1.444   5.644  16.491  0.9769  0.0627 -0.1970
15995TIP3    H169476   1.363   5.688  16.465  1.3545  1.8341  1.3806
15995TIP3    H269477   1.430   5.552  16.470  0.5543  0.9388 -4.7821
15996TIP3   OH269478   3.993   3.600   2.318  0.1863 -0.4859 -0.4315
15996TIP3    H169479   4.049   3.522   2.322 -0.9887 -1.4420 -1.6160
15996TIP3    H269480   3.949   3.602   2.402  0.9614 -0.5183 -0.0157
15997TIP3   OH269481   1.388   3.448   6.145  0.6945 -0.0564  0.1217
15997TIP3    H169482   1.299   3.446   6.180  0.4024  2.5690 -0.3023
15997TIP3    H269483   1.440   3.490   6.213  1.6915 -1.7067  0.4304
15998TIP3   OH269484   1.239   1.968   1.892  0.3301  0.5529  0.2308
15998TIP3    H169485   1.209   2.012   1.972 -0.8280  0.1456  0.0444
15998TIP3    H269486   1.169   1.906   1.872  2.1613 -1.8168  0.8018
15999TIP3   OH269487   1.298   3.769   6.302 -0.2857  0.2699 -0.3251
15999TIP3    H169488   1.238   3.694   6.298 -1.5238  1.0680  1.6304
15999TIP3    H269489   1.379   3.737   6.263 -0.8389 -2.0507  0.2497
16000TIP3   OH269490   0.234   6.499  11.285 -0.0078  0.4769 -0.1911
16000TIP3    H169491   0.273   6.528  11.202  1.2762 -0.3442  0.0904
16000TIP3    H269492   0.309   6.476  11.340 -0.8733 -1.0506  0.4347
16001TIP3   OH269493   1.837   4.614   3.869  0.3616  0.1260  0.0842
16001TIP3    H169494   1.752   4.594   3.908  0.7381 -0.8060  0.4572
16001TIP3    H269495   1.884   4.531   3.871  0.4769  0.0598 -2.1611
16002TIP3   OH269496   4.833   1.028  12.620 -0.3361  0.0946  1.0015
16002TIP3    H169497   4.844   0.980  12.538  1.5703 -0.6529  1.6297
16002TIP3    H269498   4.885   1.108  12.608  0.2760 -0.2008  1.5877
16003TIP3   OH269499   5.806   2.839   4.127 -0.5603  0.3310  0.1198
16003TIP3    H169500   5.742   2.823   4.057 -0.9772 -1.6341  0.8874
16003TIP3    H269501   5.753   2.849   4.206 -0.0155  1.0659  0.4040
16004TIP3   OH269502   1.725   5.765   6.532 -0.4991  0.2271 -0.5108
16004TIP3    H169503   1.771   5.818   6.467  0.7486 -0.0505  0.1161
16004TIP3    H269504   1.688   5.829   6.593 -1.1839  0.4606 -1.1431
16005TIP3   OH269505   2.708   2.105  16.262 -0.6703  0.6216 -0.3737
16005TIP3    H169506   2.726   2.045  16.190 -0.2865  1.7608 -1.2517
16005TIP3    H269507   2.614   2.096  16.278 -0.6773  0.0351 -0.7046
16006TIP3   OH269508   4.242   3.873   6.643  0.0961 -0.2229 -0.4185
16006TIP3    H169509   4.209   3.958   6.671  0.5049  0.5999 -2.3218
16006TIP3    H269510   4.173   3.838   6.587  2.1611  1.4796 -4.3871
16007TIP3   OH269511   4.511   4.995   4.017 -0.2911 -0.1143 -0.9671
16007TIP3    H169512   4.580   4.940   4.054 -1.2454  0.3053  1.7326
16007TIP3    H269513   4.548   5.083   4.015 -0.3471 -0.0783 -0.5884
16008TIP3   OH269514   6.276   6.435  10.658 -0.0231 -0.2190 -0.0962
16008TIP3    H169515   6.275   6.503  10.590  0.5309 -0.5774 -0.4671
16008TIP3    H269516   6.188   6.398  10.656 -0.2376  0.2773 -0.1023
16009TIP3   OH269517   5.718   5.863  12.357  0.3264  0.1395 -0.0722
16009TIP3    H169518   5.717   5.941  12.412  1.5537  0.0510  0.1149
16009TIP3    H269519   5.808   5.857  12.325 -0.1041 -0.3824 -1.2835
16010TIP3   OH269520   2.142   0.888   6.572 -0.0565  0.1561 -0.3076
16010TIP3    H169521   2.141   0.847   6.659  0.1396 -1.0220 -0.8434
16010TIP3    H269522   2.052   0.916   6.557 -0.0211  0.6719  0.4104
16011TIP3   OH269523   0.888   2.475   4.727 -0.1131 -0.1617  0.4781
16011TIP3    H169524   0.843   2.413   4.785  0.0034  0.5855  1.3928
16011TIP3    H269525   0.817   2.524   4.685 -0.1900 -0.4420  0.2762
16012TIP3   OH269526   3.246   6.702  16.137  0.3911 -0.1783  0.5596
16012TIP3    H169527   3.185   6.653  16.081  0.2330  0.6374 -0.0058
16012TIP3    H269528   3.203   6.787  16.150  1.6680  0.6359 -0.3586
16013TIP3   OH269529   4.533   0.109   2.982 -0.1081 -1.0719  0.6314
16013TIP3    H169530   4.505   0.034   3.033 -0.0352 -0.3540  1.7570
16013TIP3    H269531   4.511   0.185   3.036  1.0168 -0.3403  0.1101
16014TIP3   OH269532   1.370   0.310  11.296 -0.0073  0.2135  0.6925
16014TIP3    H169533   1.405   0.300  11.208 -1.4803 -2.7516  0.3454
16014TIP3    H269534   1.363   0.405  11.308  1.9423  0.7479 -1.6199
16015TIP3   OH269535   1.294   5.844   6.591  0.5582  0.7699  0.9074
16015TIP3    H169536   1.333   5.803   6.513  1.4281  3.9060 -0.5211
16015TIP3    H269537   1.208   5.874   6.561  0.3737  0.8676  1.5377
16016TIP3   OH269538   0.244   1.900   6.066 -0.0497 -0.0942  0.0270
16016TIP3    H169539   0.239   1.813   6.025 -1.6371 -0.3875  0.7583
16016TIP3    H269540   0.314   1.893   6.130  0.3716 -0.5816 -0.4788
16017TIP3   OH269541   0.369   4.391  11.826  0.2745  0.1815  0.0159
16017TIP3    H169542   0.353   4.478  11.863  0.8304  0.2776  0.0446
16017TIP3    H269543   0.357   4.331  11.900 -1.2336  0.1112 -0.2557
16018TIP3   OH269544   1.471   4.494   1.560 -0.2334 -0.1491  0.2376
16018TIP3    H169545   1.435   4.558   1.499 -1.6949 -0.7770  0.4045
16018TIP3    H269546   1.411   4.420   1.555  0.1177 -0.5746  1.7562
16019TIP3   OH269547   1.966   5.978   0.012  1.0363  0.3131 -0.7015
16019TIP3    H169548   2.050   5.991  -0.033  1.1256  2.9198  0.0277
16019TIP3    H269549   1.902   6.021  -0.044  0.4481 -0.1887 -0.4219
16020TIP3   OH269550   1.777   2.399  11.323  0.0554 -0.1414 -0.8667
16020TIP3    H169551   1.712   2.330  11.340  0.0416  0.4976  2.4240
16020TIP3    H269552   1.855   2.370  11.371  0.4698  1.5152 -0.5008
16021TIP3   OH269553   6.493   3.227   5.155 -0.3502 -0.0288  0.4297
16021TIP3    H169554   6.551   3.262   5.223 -0.2304  1.4883 -0.4238
16021TIP3    H269555   6.431   3.297   5.138 -0.2976 -0.3322 -1.1281
16022TIP3   OH269556   1.367   5.746  16.827  0.0087  0.0574 -0.5161
16022TIP3    H169557   1.430   5.813  16.855 -0.5571  0.6454 -0.6136
16022TIP3    H269558   1.391   5.727  16.736  0.3486 -0.0805 -0.3988
16023TIP3   OH269559   4.340   0.090  12.106 -0.2934  0.0347 -0.4035
16023TIP3    H169560   4.246   0.092  12.087 -0.4787  0.3435  0.5055
16023TIP3    H269561   4.374   0.172  12.072 -0.5215  0.3392  0.1021
16024TIP3   OH269562   1.114   6.717  13.140 -0.3170  0.1434  0.2381
16024TIP3    H169563   1.059   6.670  13.202 -2.0297  0.7539 -0.7555
16024TIP3    H269564   1.178   6.652  13.111 -1.4730 -1.0538  0.2721
16025TIP3   OH269565   4.362   2.555   0.379  0.6054  0.0151 -0.2500
16025TIP3    H169566   4.400   2.490   0.438 -1.4691 -1.3665 -0.3434
16025TIP3    H269567   4.376   2.519   0.291  1.9553  1.1203 -0.5226
16026TIP3   OH269568   2.916   3.013  13.083  0.0490  0.7061  0.4748
16026TIP3    H169569   2.874   3.031  13.167 -1.7881 -1.1340  0.0101
16026TIP3    H269570   2.853   2.960  13.035  1.4287  0.9491 -1.7409
16027TIP3   OH269571   3.728   4.574   5.542  0.0242  0.0929  0.8615
16027TIP3    H169572   3.669   4.649   5.547  0.6647  0.7252 -0.4166
16027TIP3    H269573   3.686   4.513   5.481  0.6846  0.5848 -0.1229
16028TIP3   OH269574   3.576   0.442  14.726 -0.0132 -0.1061  0.4244
16028TIP3    H169575   3.597   0.360  14.771  1.4958 -1.3335 -2.2665
16028TIP3    H269576   3.661   0.480  14.705 -0.6840  1.0992 -0.1892
16029TIP3   OH269577   2.197   3.580  16.927 -0.7556 -0.2205 -0.4098
16029TIP3    H169578   2.117   3.628  16.905  0.0676  1.0208 -0.8524
16029TIP3    H269579   2.179   3.540  17.012 -1.0469  2.0663  0.6909
16030TIP3   OH269580   5.250   1.212  13.098  0.2141  0.1289  0.2327
16030TIP3    H169581   5.279   1.200  13.188 -0.2349 -0.5690  0.2921
16030TIP3    H269582   5.325   1.186  13.044  0.1946 -0.2684  0.3969
16031TIP3   OH269583   1.067   0.366  12.692  0.2302  0.1026  0.2059
16031TIP3    H169584   1.140   0.307  12.711  1.5123  1.3223 -0.7102
16031TIP3    H269585   1.063   0.424  12.768  0.5101  0.3202  0.0543
16032TIP3   OH269586   1.266   0.196   6.007 -0.6710 -0.2479  0.2524
16032TIP3    H169587   1.319   0.257   6.058  0.6110  0.3331 -1.6691
16032TIP3    H269588   1.178   0.206   6.042  0.0254  0.6063  1.8622
16033TIP3   OH269589   2.499   2.183   1.888  0.0998  0.1277  0.2108
16033TIP3    H169590   2.403   2.176   1.884  0.0856 -0.2928  1.0702
16033TIP3    H269591   2.523   2.229   1.807 -0.9569  1.7447  0.7659
16034TIP3   OH269592   0.464   5.858   3.674 -0.8124  0.7660 -0.1237
16034TIP3    H169593   0.433   5.938   3.715 -0.1138  1.5241 -1.0164
16034TIP3    H269594   0.510   5.888   3.596 -0.9966 -0.5490 -0.7589
16035TIP3   OH269595   2.649   4.780   5.202 -0.2430 -0.5821 -0.5355
16035TIP3    H169596   2.717   4.714   5.192  1.8275  1.4893 -1.0263
16035TIP3    H269597   2.693   4.863   5.184 -2.5784  1.0167  0.5789
16036TIP3   OH269598   0.662   4.417   2.715  0.6355  0.2399 -0.4911
16036TIP3    H169599   0.656   4.322   2.728  2.3807  0.1248 -0.2449
16036TIP3    H269600   0.659   4.428   2.620 -1.0013  0.0972 -0.4886
16037TIP3   OH269601   4.410   4.848  15.428 -0.2646 -0.2732 -0.3258
16037TIP3    H169602   4.409   4.938  15.397 -0.1831  0.1499  0.8269
16037TIP3    H269603   4.380   4.854  15.519  1.6428 -1.1368  0.4178
16038TIP3   OH269604   6.548   2.830  16.064 -0.7432 -0.4534 -0.0597
16038TIP3    H169605   6.544   2.757  16.003 -2.2925  0.5296 -1.2124
16038TIP3    H269606   6.633   2.820  16.108 -0.3914 -2.2245 -1.0480
16039TIP3   OH269607   4.281   2.779  13.427 -0.3221 -0.5272  0.4780
16039TIP3    H169608   4.361   2.746  13.387 -0.5916  1.1405 -1.6018
16039TIP3    H269609   4.231   2.700  13.448  0.9627 -1.5423 -0.0846
16040TIP3   OH269610   0.559   0.266   4.241 -0.1968 -0.1344 -0.4364
16040TIP3    H169611   0.541   0.192   4.299  0.1009  0.8770  0.9830
16040TIP3    H269612   0.473   0.306   4.226 -0.3597 -0.7425 -1.2138
16041TIP3   OH269613   6.490   0.810  14.221 -0.8921 -0.4618 -0.1447
16041TIP3    H169614   6.538   0.882  14.263 -0.6944  0.0764 -1.2418
16041TIP3    H269615   6.471   0.749  14.292 -0.5886  0.4175  0.7173
16042TIP3   OH269616   5.300   1.943   1.369 -0.0139 -0.7779  0.0791
16042TIP3    H169617   5.346   1.860   1.360  1.2776 -0.2234  1.3556
16042TIP3    H269618   5.257   1.939   1.454 -1.1921 -0.7056 -0.4802
16043TIP3   OH269619   3.801   0.292   6.027 -0.3518  0.2981 -0.1444
16043TIP3    H169620   3.895   0.301   6.011 -0.5088  0.8130 -0.8252
16043TIP3    H269621   3.786   0.198   6.033  0.5498  0.2262  2.1517
16044TIP3   OH269622   0.905   6.031  12.773  0.2955  0.8106 -0.3560
16044TIP3    H169623   0.991   6.033  12.731  0.8311  0.1847  0.6754
16044TIP3    H269624   0.858   6.105  12.735  1.2266  1.0610 -1.0562
16045TIP3   OH269625   4.379   4.751   5.305 -0.1237 -0.2431 -0.5051
16045TIP3    H169626   4.355   4.842   5.290 -0.7963 -0.3689 -0.2228
16045TIP3    H269627   4.456   4.755   5.362 -1.1421  0.1374  0.9006
16046TIP3   OH269628   1.898   6.427  12.299 -0.4988  0.5814 -0.2020
16046TIP3    H169629   1.857   6.341  12.307 -1.0377  0.9942  2.4176
16046TIP3    H269630   1.953   6.420  12.221 -0.4643 -2.1489 -0.0347
16047TIP3   OH269631   0.898   1.167  11.409  0.5436 -0.1216  0.0369
16047TIP3    H169632   0.872   1.155  11.317  0.9000  1.2989 -0.2765
16047TIP3    H269633   0.953   1.245  11.408 -0.4852  0.6729  1.6511
16048TIP3   OH269634   1.941   3.772  12.475 -0.5449  0.2485 -0.6245
16048TIP3    H169635   1.944   3.821  12.557 -1.3284  0.1414 -0.5262
16048TIP3    H269636   1.849   3.747  12.465 -0.1888 -1.0773 -0.7519
16049TIP3   OH269637   6.844   4.361  15.437  0.0011  0.2701 -0.3005
16049TIP3    H169638   6.845   4.267  15.417 -0.9872  0.1000  0.3714
16049TIP3    H269639   6.814   4.403  15.356 -1.5436 -0.1830  0.0185
16050TIP3   OH269640   5.162   2.776   1.959  0.3217 -0.2553  0.3685
16050TIP3    H169641   5.159   2.780   2.055 -0.2546 -1.3531  0.4152
16050TIP3    H269642   5.137   2.686   1.938  0.3569 -0.0052 -0.8235
16051TIP3   OH269643   2.964   5.026   6.039 -0.4577  0.1774  0.1979
16051TIP3    H169644   3.046   5.071   6.017 -0.5121 -0.2340 -0.9132
16051TIP3    H269645   2.978   4.994   6.128  0.1577  1.0797  0.4351
16052TIP3   OH269646   0.455   1.946   4.177 -0.1184  0.1221 -0.6717
16052TIP3    H169647   0.485   1.986   4.095  0.8685 -0.6039 -0.6824
16052TIP3    H269648   0.523   1.884   4.200 -0.7959 -0.3064  0.2627
16053TIP3   OH269649   0.506   5.387   6.013  0.4447 -0.3173  0.1511
16053TIP3    H169650   0.476   5.427   5.931  2.7348  1.1553 -0.0608
16053TIP3    H269651   0.568   5.320   5.985  1.8609  0.7419  0.6331
16054TIP3   OH269652   3.981   2.523  13.914 -0.1541 -0.5959  0.1631
16054TIP3    H169653   3.927   2.547  13.839  1.4533 -0.1335 -0.9054
16054TIP3    H269654   3.921   2.523  13.988 -1.1261  2.6322 -0.4787
16055TIP3   OH269655   3.731   0.677  14.967 -0.4244 -0.4411 -0.0631
16055TIP3    H169656   3.719   0.746  14.902  0.4020 -0.8556 -0.6769
16055TIP3    H269657   3.646   0.633  14.970 -0.9610  0.5746  0.3257
16056TIP3   OH269658   5.252   4.033  14.724 -0.3183 -0.3264  0.2762
16056TIP3    H169659   5.254   4.020  14.629 -3.0105  1.0722 -0.0654
16056TIP3    H269660   5.217   3.951  14.759 -2.3956  0.2368 -0.3259
16057TIP3   OH269661   2.840   5.241   1.812  0.1418  0.7912 -0.1519
16057TIP3    H169662   2.861   5.149   1.794 -0.5359  0.4313  0.7960
16057TIP3    H269663   2.858   5.286   1.730 -1.6397 -0.5771 -1.3967
16058TIP3   OH269664   2.342   3.020   2.831  0.6328 -0.0392 -0.4882
16058TIP3    H169665   2.411   3.084   2.812  0.5959  0.0198 -0.4256
16058TIP3    H269666   2.343   3.012   2.927  1.3784 -0.9557 -0.5591
16059TIP3   OH269667   3.100   0.564  16.829 -0.0291  0.6910 -0.2287
16059TIP3    H169668   3.168   0.521  16.881 -0.7242  0.7112  0.7336
16059TIP3    H269669   3.117   0.657  16.840 -2.3106  0.9264  3.1758
16060TIP3   OH269670   1.749   6.569  13.374  0.4601  0.6617  0.2358
16060TIP3    H169671   1.810   6.515  13.322 -1.3553 -1.4281  0.1538
16060TIP3    H269672   1.765   6.543  13.464 -0.2444  0.1574  0.2197
16061TIP3   OH269673   1.148   5.292  16.457 -0.1053 -0.4397  0.2093
16061TIP3    H169674   1.238   5.321  16.445 -0.8485  1.9028 -0.2336
16061TIP3    H269675   1.139   5.282  16.552  0.2694  0.6535  0.3768
16062TIP3   OH269676   6.204   2.674  12.756 -0.1436  0.2038 -0.6164
16062TIP3    H169677   6.256   2.618  12.699  2.4890  1.3693  0.4775
16062TIP3    H269678   6.148   2.724  12.696  0.5445 -0.5567 -1.9444
16063TIP3   OH269679   1.570   0.530  12.140  0.1204  0.3364 -0.6016
16063TIP3    H169680   1.520   0.452  12.165 -0.3042  1.2938  1.8383
16063TIP3    H269681   1.504   0.599  12.132  0.5274  0.5622 -2.4353
16064TIP3   OH269682   4.437   5.772  12.149 -0.1618 -0.5814  0.1475
16064TIP3    H169683   4.376   5.700  12.167  0.5100 -1.0023  0.8172
16064TIP3    H269684   4.524   5.733  12.160  0.2225  0.6709  1.9269
16065TIP3   OH269685   2.350   0.166   5.023  0.2521 -0.0924  0.3752
16065TIP3    H169686   2.362   0.256   4.992  0.6505 -0.0779  0.5710
16065TIP3    H269687   2.257   0.161   5.044  0.6146  1.0150  2.6419
16066TIP3   OH269688   3.514   1.426   0.204  0.0985 -0.3805 -0.0392
16066TIP3    H169689   3.570   1.433   0.127  0.6072 -0.0819  0.3555
16066TIP3    H269690   3.575   1.417   0.278 -0.2922  1.6947  0.5986
16067TIP3   OH269691   2.668   6.195  15.171  0.5692 -0.4755 -0.3300
16067TIP3    H169692   2.689   6.105  15.195 -0.2600 -1.0933 -1.8062
16067TIP3    H269693   2.749   6.229  15.134  0.8271 -0.6782  0.0411
16068TIP3   OH269694   6.588   1.790  11.281 -0.1966 -0.2541 -0.0765
16068TIP3    H169695   6.556   1.725  11.219  0.4572  1.2800 -2.1121
16068TIP3    H269696   6.513   1.809  11.337 -0.1445 -3.3984  1.2460
16069TIP3   OH269697   1.709   2.034  11.960 -0.2175 -0.4765 -0.4968
16069TIP3    H169698   1.681   1.950  11.924  0.7400 -0.6329 -0.9182
16069TIP3    H269699   1.645   2.097  11.926 -0.0249 -0.8029 -1.5123
16070TIP3   OH269700   4.373   3.131  14.549 -0.3465  0.0954 -0.0932
16070TIP3    H169701   4.457   3.113  14.508  0.4733 -2.0479  2.2801
16070TIP3    H269702   4.384   3.217  14.589  0.1284  0.5418 -1.1440
16071TIP3   OH269703   1.410   1.418   0.714 -0.6669  0.0088  0.4041
16071TIP3    H169704   1.339   1.482   0.707  0.3563  1.2373  0.7914
16071TIP3    H269705   1.377   1.351   0.774 -2.3864 -0.7405 -1.2611
16072TIP3   OH269706   6.285   2.478   0.459  0.0878 -0.5069 -0.4947
16072TIP3    H169707   6.286   2.572   0.476 -0.2104 -0.5486 -0.2415
16072TIP3    H269708   6.358   2.443   0.510 -2.1483 -0.9601  2.6940
16073TIP3   OH269709   5.547   3.148   4.694  0.3723  0.0694  0.1224
16073TIP3    H169710   5.534   3.226   4.748  0.7570 -1.0655  1.9240
16073TIP3    H269711   5.547   3.075   4.756  2.1189 -1.1973 -1.2558
16074TIP3   OH269712   5.038   2.267   3.912  0.4044  0.3933 -0.2851
16074TIP3    H169713   5.134   2.275   3.910  0.4327 -0.0653 -0.7005
16074TIP3    H269714   5.015   2.223   3.830 -0.2500  1.3546 -0.6313
16075TIP3   OH269715   6.775   4.672   2.943 -0.2024  0.0953  0.5172
16075TIP3    H169716   6.807   4.673   2.853  0.0071 -0.2930  0.5888
16075TIP3    H269717   6.829   4.737   2.988 -0.9229  0.9758  0.1564
16076TIP3   OH269718   0.335   4.172   5.151  0.6190  0.1276  0.2668
16076TIP3    H169719   0.310   4.158   5.059  0.6305  0.5839  0.1922
16076TIP3    H269720   0.336   4.267   5.161 -0.7964  0.0810  1.1248
16077TIP3   OH269721   1.486   3.687   1.820 -0.4283 -0.3015  0.0002
16077TIP3    H169722   1.519   3.726   1.901  0.0703 -1.0648  0.1723
16077TIP3    H269723   1.565   3.662   1.771 -0.7392 -1.1050 -0.1000
16078TIP3   OH269724   4.793   4.963  12.106 -0.5947  0.0179  0.3116
16078TIP3    H169725   4.737   4.999  12.175 -0.2546 -0.5434  0.8932
16078TIP3    H269726   4.881   4.967  12.143 -0.4755 -0.7725  0.1122
16079TIP3   OH269727   5.876   4.530   6.294 -0.1975  0.0565 -0.3233
16079TIP3    H169728   5.907   4.551   6.383 -2.4806 -1.9404  1.0750
16079TIP3    H269729   5.822   4.605   6.270 -0.3110  0.2130  0.3815
16080TIP3   OH269730   3.147   4.947   5.365  0.4700 -0.2277 -0.0266
16080TIP3    H169731   3.217   5.000   5.404  1.4759 -1.4758 -0.1016
16080TIP3    H269732   3.172   4.857   5.384  0.3455 -0.8244 -2.4436
16081TIP3   OH269733   6.557   4.207  16.445  0.4240  0.0369 -0.3286
16081TIP3    H169734   6.643   4.247  16.432  0.6593 -0.5815 -0.7563
16081TIP3    H269735   6.573   4.139  16.510  0.0766  0.4797  0.2240
16082TIP3   OH269736   2.835   2.111  13.728 -0.4852  0.5648  0.1025
16082TIP3    H169737   2.769   2.055  13.770 -0.0021  1.0887  1.6404
16082TIP3    H269738   2.791   2.196  13.719 -0.1439  0.8229  0.8213
16083TIP3   OH269739   6.144   1.152  11.371  0.3001  0.7061  0.5831
16083TIP3    H169740   6.075   1.088  11.385  0.9979  0.2682  2.3344
16083TIP3    H269741   6.151   1.160  11.276  0.2176 -1.8548  0.2980
16084TIP3   OH269742   3.580   3.907  11.143  0.0105 -0.4587 -0.1490
16084TIP3    H169743   3.580   3.856  11.061 -1.2462 -0.0449 -0.4293
16084TIP3    H269744   3.673   3.921  11.162  0.3409 -1.1720 -1.1227
16085TIP3   OH269745   0.206   1.757  16.028 -0.7187  0.2688  0.4447
16085TIP3    H169746   0.235   1.682  15.977 -0.1487  0.8631 -0.1262
16085TIP3    H269747   0.238   1.741  16.117  0.1903  0.2702  0.1207
16086TIP3   OH269748   2.906   4.265  11.875  0.3945 -0.1015  0.0333
16086TIP3    H169749   2.823   4.301  11.842  0.3123  0.6920  1.0432
16086TIP3    H269750   2.917   4.306  11.961  1.7188 -0.3986  0.0202
16087TIP3   OH269751   4.786   5.189  17.124 -0.4159  0.0468 -0.5036
16087TIP3    H169752   4.736   5.187  17.206 -0.6217 -1.5190 -0.6521
16087TIP3    H269753   4.737   5.249  17.068 -0.5755  0.7074  0.3159
16088TIP3   OH269754   0.627   6.331   5.452 -0.0631  0.2991 -0.5607
16088TIP3    H169755   0.557   6.396   5.460 -0.9780 -0.9136  2.6650
16088TIP3    H269756   0.581   6.250   5.428  0.5083 -0.0643 -0.4393
16089TIP3   OH269757   1.023   1.140  15.421 -0.4215  0.6878  0.0237
16089TIP3    H169758   1.065   1.219  15.454  0.1951 -0.6801  2.7863
16089TIP3    H269759   0.958   1.172  15.359  2.3591  3.1011 -1.9571
16090TIP3   OH269760   3.175   6.127   3.402 -0.0500  0.6742 -0.1655
16090TIP3    H169761   3.236   6.057   3.381  0.1465  1.2613 -1.6499
16090TIP3    H269762   3.115   6.131   3.328 -1.2775  0.7859  0.8067
16091TIP3   OH269763   1.985   0.694   0.154  0.1068 -0.3403  0.0140
16091TIP3    H169764   2.010   0.645   0.075  3.0348 -1.9798  1.7876
16091TIP3    H269765   1.905   0.650   0.185 -0.2978 -0.5567 -1.2667
16092TIP3   OH269766   6.556   6.332  13.934 -0.2344 -0.5924 -0.2360
16092TIP3    H169767   6.639   6.359  13.893  0.0684 -0.0608  0.7109
16092TIP3    H269768   6.538   6.246  13.895  0.2388 -0.2731 -1.1991
16093TIP3   OH269769   4.324   2.224  11.114  0.3214  0.0914  0.1494
16093TIP3    H169770   4.361   2.246  11.199 -2.7874  1.3517  1.3409
16093TIP3    H269771   4.362   2.288  11.054  0.4322  1.0457  1.2003
16094TIP3   OH269772   5.792   4.941  11.305 -0.2514 -0.7058 -0.1623
16094TIP3    H169773   5.859   5.009  11.316 -0.2459 -0.9802  1.8867
16094TIP3    H269774   5.830   4.880  11.241  0.7123  0.0342 -0.3167
16095TIP3   OH269775   1.796   0.013  13.232 -0.0133 -0.2900 -0.1434
16095TIP3    H169776   1.757  -0.068  13.202  0.5283 -0.9352  0.8494
16095TIP3    H269777   1.799   0.006  13.327  1.5760  0.1448 -0.1170
16096TIP3   OH269778   5.725   3.815  12.162  0.8251 -0.1961 -0.2112
16096TIP3    H169779   5.700   3.786  12.250 -2.2104 -0.5357 -1.0434
16096TIP3    H269780   5.737   3.910  12.170  1.8869 -0.4060  0.8034
16097TIP3   OH269781   3.408   1.495  15.860  0.4219 -0.4429  0.3898
16097TIP3    H169782   3.443   1.496  15.771  0.2432  0.3282  0.3211
16097TIP3    H269783   3.360   1.413  15.866  0.4200 -0.4930 -0.2305
16098TIP3   OH269784   0.491   0.289   1.593 -0.7385 -0.1109  0.1384
16098TIP3    H169785   0.550   0.302   1.519 -1.0051 -1.6238 -0.3801
16098TIP3    H269786   0.549   0.288   1.669 -0.3866  0.8074 -0.1019
16099TIP3   OH269787   5.642   2.398   4.230  0.3549 -0.3392 -0.0307
16099TIP3    H169788   5.710   2.339   4.197  0.4262 -0.3140  0.0708
16099TIP3    H269789   5.689   2.462   4.283  0.3723  0.2387 -0.7224
16100TIP3   OH269790   4.993   2.021  11.209 -0.1365 -0.2145 -0.3191
16100TIP3    H169791   4.899   2.008  11.222 -0.0459 -0.7902 -0.1995
16100TIP3    H269792   5.025   1.935  11.182  0.4064 -0.0896 -0.0706
16101TIP3   OH269793   0.806   2.312   0.253  0.0323  0.0702 -0.0214
16101TIP3    H169794   0.850   2.376   0.198 -0.7718  0.9307  0.3203
16101TIP3    H269795   0.877   2.263   0.295  0.6562  0.7948 -0.2191
16102TIP3   OH269796   3.001   4.034   5.287 -1.2614 -0.7423  0.3838
16102TIP3    H169797   3.076   3.990   5.326 -0.5216 -0.2394 -0.4183
16102TIP3    H269798   2.974   3.977   5.215 -1.4791 -0.7974  0.5103
16103TIP3   OH269799   3.497   3.827   5.531 -0.1189 -0.2709 -0.0015
16103TIP3    H169800   3.521   3.897   5.471  2.6334  0.2899  1.5776
16103TIP3    H269801   3.423   3.862   5.580 -1.0780  0.0623 -1.6068
16104TIP3   OH269802   6.503   4.028  11.282  0.1886 -0.4220  0.4925
16104TIP3    H169803   6.447   4.105  11.293 -1.4681 -1.6018  0.6887
16104TIP3    H269804   6.570   4.056  11.220 -1.1181  0.8210 -0.4379
16105TIP3   OH269805   6.789   2.959  13.181 -0.1242  0.4201  0.6988
16105TIP3    H169806   6.852   2.977  13.111  0.4103 -1.3840  0.6579
16105TIP3    H269807   6.707   2.995  13.148  0.2108 -0.0149 -0.6923
16106TIP3   OH269808   5.830   6.430  11.519 -0.1390 -0.6378 -0.3447
16106TIP3    H169809   5.912   6.386  11.540 -0.2544 -1.9815 -2.3587
16106TIP3    H269810   5.857   6.515  11.484  0.2528 -0.2497  0.8531
16107TIP3   OH269811   5.303   1.440   4.977  0.4574 -0.2292  0.4648
16107TIP3    H169812   5.274   1.511   4.920  2.8425  0.9038  0.5323
16107TIP3    H269813   5.259   1.362   4.943 -1.3715  1.0830 -0.3054
16108TIP3   OH269814   1.785   5.247  11.371  0.3600  0.1795  0.4174
16108TIP3    H169815   1.850   5.270  11.305 -1.6025  0.5655 -1.4594
16108TIP3    H269816   1.815   5.162  11.405  0.9400 -0.4967 -1.6453
16109TIP3   OH269817   2.138   4.648  17.082  0.1394 -0.0509 -0.2709
16109TIP3    H169818   2.190   4.720  17.046 -1.7678  1.4021 -0.2898
16109TIP3    H269819   2.190   4.614  17.154  0.6027  2.1552  0.5044
16110TIP3   OH269820   2.333   3.562  13.866  0.4986 -0.0925 -0.4823
16110TIP3    H169821   2.353   3.511  13.945 -0.0317  2.6808  1.5857
16110TIP3    H269822   2.299   3.498  13.804 -1.3038 -2.0964  2.3559
16111TIP3   OH269823   2.800   2.918   4.704 -0.4440  0.5668 -0.2593
16111TIP3    H169824   2.794   2.844   4.643  0.1436 -0.2110  0.5944
16111TIP3    H269825   2.808   2.995   4.648  1.1408 -0.2158 -1.1878
16112TIP3   OH269826   1.348   2.934   2.252  0.1761 -0.5451 -0.3646
16112TIP3    H169827   1.431   2.975   2.279 -0.3135  0.9655 -1.0152
16112TIP3    H269828   1.281   2.982   2.302 -0.5293  0.4849 -2.1878
16113TIP3   OH269829   0.332   0.061   1.968  0.5936 -0.3805  0.4016
16113TIP3    H169830   0.359  -0.009   2.027 -1.0518 -1.1238  0.3277
16113TIP3    H269831   0.333   0.020   1.881  0.3169 -0.1121  0.2710
16114TIP3   OH269832   1.596   4.055  12.124  0.4000  0.5017 -0.1428
16114TIP3    H169833   1.579   4.146  12.098 -2.2661  0.0950 -0.1475
16114TIP3    H269834   1.585   4.005  12.043  1.3157  0.1034 -0.0312
16115TIP3   OH269835   4.501   4.321  15.913 -0.1401 -0.0216 -0.5379
16115TIP3    H169836   4.464   4.371  15.839 -0.1902 -0.2118 -0.6417
16115TIP3    H269837   4.472   4.369  15.991  1.4953  1.3008 -0.6746
16116TIP3   OH269838   6.773   3.190  15.943 -0.5045  0.5084  0.7744
16116TIP3    H169839   6.686   3.155  15.960 -1.3606  1.9032 -0.5629
16116TIP3    H269840   6.815   3.126  15.886 -1.2206  0.5614  0.1838
16117TIP3   OH269841   6.219   3.187  13.216 -0.3047 -0.3108  0.8598
16117TIP3    H169842   6.204   3.173  13.123  0.1506 -0.8837  0.8648
16117TIP3    H269843   6.308   3.156  13.231 -0.2360  0.1363  1.4145
16118TIP3   OH269844   2.852   3.529   3.617 -0.2512  0.0412  0.2877
16118TIP3    H169845   2.831   3.451   3.668 -0.3027 -0.0094  0.1896
16118TIP3    H269846   2.837   3.602   3.678 -0.7063  0.0056  0.2234
16119TIP3   OH269847   0.066   2.880   1.158 -0.2086 -0.4048 -0.2010
16119TIP3    H169848   0.145   2.892   1.106 -0.8656 -2.0427 -1.6561
16119TIP3    H269849   0.099   2.856   1.245  0.8921 -0.3210 -0.5753
16120TIP3   OH269850   5.323   2.076  14.048 -0.4784 -0.0879 -0.4798
16120TIP3    H169851   5.408   2.118  14.056 -1.1423  1.0405  1.6649
16120TIP3    H269852   5.330   1.997  14.103 -0.7939  0.0002 -0.3086
16121TIP3   OH269853   0.395   4.810   6.191 -0.4255 -0.1125  0.0159
16121TIP3    H169854   0.422   4.799   6.282  0.7032 -0.5530 -0.3527
16121TIP3    H269855   0.406   4.903   6.174  0.7287 -0.2530 -0.0703
16122TIP3   OH269856   6.389   2.805   5.108 -0.4284  0.4747 -0.2213
16122TIP3    H169857   6.444   2.746   5.057  0.3752 -1.1744  2.3990
16122TIP3    H269858   6.443   2.884   5.120  0.6230 -0.3606  0.6892
16123TIP3   OH269859   3.208   6.605   2.864 -0.5563 -0.4061 -0.3977
16123TIP3    H169860   3.150   6.534   2.836 -1.2910  0.2394 -0.5144
16123TIP3    H269861   3.265   6.620   2.788 -0.3330 -0.9299 -0.3399
16124TIP3   OH269862   5.052   1.772  15.604 -0.0254  0.1663  0.2032
16124TIP3    H169863   5.091   1.860  15.596 -0.9349  0.5863  0.2617
16124TIP3    H269864   5.127   1.714  15.617  0.5857  0.9512  0.2801
16125TIP3   OH269865   4.022   5.703   1.635 -0.1077  0.0707 -0.3478
16125TIP3    H169866   3.990   5.789   1.662  1.2172  1.8691 -3.9483
16125TIP3    H269867   3.994   5.694   1.544  5.0448 -0.3825 -2.1636
16126TIP3   OH269868   1.452   3.493  12.470 -0.0660  0.0385 -0.0702
16126TIP3    H169869   1.431   3.577  12.429 -3.4323  0.3277  1.8499
16126TIP3    H269870   1.384   3.482  12.538  1.6631 -3.1256  1.3612
16127TIP3   OH269871   3.906   2.334   2.613 -0.4404 -0.0665 -0.1532
16127TIP3    H169872   3.868   2.270   2.673  2.5643 -1.9402 -0.0507
16127TIP3    H269873   3.933   2.407   2.669  0.7839 -1.0457  0.5884
16128TIP3   OH269874   4.336   1.797   1.127  0.4699 -0.2901 -0.5822
16128TIP3    H169875   4.245   1.769   1.119  0.6571 -1.9110  2.0129
16128TIP3    H269876   4.332   1.884   1.166  0.0464 -0.0833 -1.0807
16129TIP3   OH269877   5.839   3.649  13.698  0.5351  0.4425 -0.3317
16129TIP3    H169878   5.830   3.663  13.604  0.6812  0.5756 -0.3255
16129TIP3    H269879   5.917   3.699  13.723  0.5441  0.3408 -0.1550
16130TIP3   OH269880   6.114   4.074  12.881  0.3957  0.1120  0.1361
16130TIP3    H169881   6.033   4.023  12.873 -0.3333  0.8430  2.0486
16130TIP3    H269882   6.166   4.025  12.944  0.1711  1.0954  1.1240
16131TIP3   OH269883   6.313   6.115  15.723 -0.0902  0.1838 -0.7867
16131TIP3    H169884   6.261   6.035  15.722 -1.0914  0.7968  0.2003
16131TIP3    H269885   6.267   6.174  15.662  0.8897 -0.1191 -1.8514
16132TIP3   OH269886   5.265   1.334  15.165  0.5189 -0.1598 -0.0097
16132TIP3    H169887   5.196   1.397  15.145  2.4165  2.5483  1.2646
16132TIP3    H269888   5.321   1.334  15.088  0.4608 -0.4222 -0.0545
16133TIP3   OH269889   2.376   2.558   1.497 -0.2592  0.2121  0.3447
16133TIP3    H169890   2.369   2.641   1.545 -1.4393  0.1511  0.2981
16133TIP3    H269891   2.324   2.572   1.418 -0.6212 -0.6325  0.4261
16134TIP3   OH269892   3.021   5.835   5.910  0.1859  0.0981 -0.3064
16134TIP3    H169893   3.081   5.761   5.912  0.7500  0.5454  1.9701
16134TIP3    H269894   3.026   5.867   5.820  0.4269 -2.1852 -1.1614
16135TIP3   OH269895   1.536   0.828   5.141  0.1042  0.2149 -0.5004
16135TIP3    H169896   1.487   0.835   5.223  1.3574 -3.4429  0.7676
16135TIP3    H269897   1.469   0.806   5.076 -0.6342  1.0510 -0.0542
16136TIP3   OH269898   0.540   0.959   1.941 -0.3597 -0.3513  0.0461
16136TIP3    H169899   0.571   1.038   1.985  4.0171 -2.9769  2.3264
16136TIP3    H269900   0.583   0.960   1.856  1.2477 -1.0575  0.8109
16137TIP3   OH269901   4.687   1.225  14.891  0.1244 -0.5194  0.1582
16137TIP3    H169902   4.683   1.297  14.954 -1.0262 -0.8369  0.4745
16137TIP3    H269903   4.663   1.265  14.807  0.3646 -0.3605  0.1636
16138TIP3   OH269904   5.370   5.190  13.761  0.4788  0.3508 -0.0963
16138TIP3    H169905   5.389   5.159  13.673 -0.2412 -1.4988  0.3588
16138TIP3    H269906   5.418   5.131  13.818  0.7820  1.4106  0.7825
16139TIP3   OH269907   3.918   2.656   4.418  0.6214 -0.8071 -0.2122
16139TIP3    H169908   3.988   2.684   4.478 -1.5026  1.7565  1.2583
16139TIP3    H269909   3.953   2.675   4.331  2.2237 -0.7685  0.4064
16140TIP3   OH269910   6.543   1.473  13.304 -0.3007  0.3619 -0.0475
16140TIP3    H169911   6.612   1.527  13.266  0.2361  0.1600  0.6185
16140TIP3    H269912   6.519   1.412  13.234  2.4744 -1.7262  0.6332
16141TIP3   OH269913   1.175   4.037   4.701  1.2283  0.1248 -0.2147
16141TIP3    H169914   1.134   4.087   4.772  0.4820 -0.2517 -0.3791
16141TIP3    H269915   1.192   4.102   4.633 -1.2600 -0.0794 -1.1198
16142TIP3   OH269916   4.517   2.988  16.980  0.2054  0.2964 -0.0145
16142TIP3    H169917   4.494   3.010  17.071  1.8104 -1.4633  0.8877
16142TIP3    H269918   4.572   3.061  16.951  1.2381 -0.0071  1.1105
16143TIP3   OH269919   3.482   3.055  12.546 -0.0726  0.1009  0.4256
16143TIP3    H169920   3.427   2.977  12.555 -1.0914  0.2511 -3.1203
16143TIP3    H269921   3.571   3.022  12.558 -0.6138 -1.0736  1.5448
16144TIP3   OH269922   4.916   2.918  12.665 -0.3904  0.6249 -0.8548
16144TIP3    H169923   4.957   2.843  12.624 -1.8000  0.1495 -1.4744
16144TIP3    H269924   4.968   2.935  12.743  0.0712 -0.8767 -0.8092
16145TIP3   OH269925   4.696   4.044   5.956  0.1986  0.3689 -0.1564
16145TIP3    H169926   4.780   3.999   5.958 -0.5745 -1.1278  1.2730
16145TIP3    H269927   4.702   4.103   5.880  2.1001 -0.4916 -0.7399
16146TIP3   OH269928   0.556   3.578  13.149  0.8740 -0.3388 -0.1105
16146TIP3    H169929   0.503   3.505  13.118 -2.2317  0.8555  1.9115
16146TIP3    H269930   0.584   3.551  13.237 -1.4025  1.2621  1.1986
16147TIP3   OH269931   6.378   2.796  11.953  0.2003  0.0601 -0.5531
16147TIP3    H169932   6.337   2.855  11.889 -0.6775  0.2081  0.1244
16147TIP3    H269933   6.472   2.800  11.932  0.1307  1.4518 -0.7401
16148TIP3   OH269934   5.774   3.735   1.007 -0.5648 -0.1731  0.1586
16148TIP3    H169935   5.715   3.671   1.047 -0.1049 -0.8494 -0.2223
16148TIP3    H269936   5.813   3.689   0.933  0.5526  0.2071  0.4917
16149TIP3   OH269937   0.204   1.954   2.218  0.6819  0.4884 -0.3270
16149TIP3    H169938   0.136   1.930   2.281  0.5649  0.5847 -0.4168
16149TIP3    H269939   0.286   1.930   2.261  0.5167 -3.9841 -2.0229
16150TIP3   OH269940   3.238   1.499   0.198 -0.5880  0.1910 -0.2106
16150TIP3    H169941   3.187   1.515   0.118 -0.0390  0.1995 -0.5583
16150TIP3    H269942   3.317   1.454   0.168 -0.1949  0.5468  0.2839
16151TIP3   OH269943   4.195   4.808   1.260  0.5614 -0.6136 -0.3773
16151TIP3    H169944   4.126   4.798   1.194  0.9653  0.3584 -0.9811
16151TIP3    H269945   4.198   4.902   1.276  0.2355 -0.8717  1.3145
16152TIP3   OH269946   3.554   0.119  17.077 -0.4053 -0.2485 -0.1665
16152TIP3    H169947   3.478   0.155  17.123 -1.6056 -0.2951 -2.0390
16152TIP3    H269948   3.614   0.193  17.068 -0.4270 -0.0876  0.8431
16153TIP3   OH269949   0.311   0.748  12.299 -0.3477 -0.1158  0.5198
16153TIP3    H169950   0.392   0.783  12.263 -0.9729  2.6038  1.5209
16153TIP3    H269951   0.250   0.748  12.225  0.1959 -1.0200  0.0526
16154TIP3   OH269952   3.357   2.597  16.800  0.3773  0.1873  0.0592
16154TIP3    H169953   3.358   2.543  16.720 -0.4332  1.5537 -0.9157
16154TIP3    H269954   3.268   2.632  16.804  0.4232  0.1737  1.5588
16155TIP3   OH269955   3.116   5.316   5.039  0.5880 -0.4109  0.7146
16155TIP3    H169956   3.112   5.245   4.975 -0.6915 -0.2686  0.6131
16155TIP3    H269957   3.081   5.278   5.119 -0.3592  0.1639  0.5874
16156TIP3   OH269958   1.398   2.814  10.694 -0.4773  0.1536 -0.3482
16156TIP3    H169959   1.344   2.892  10.685  1.5316  1.4100 -2.6013
16156TIP3    H269960   1.481   2.845  10.729 -0.2348 -1.2759  0.4349
16157TIP3   OH269961   3.726   2.450   4.481  0.2185  0.5122  0.6391
16157TIP3    H169962   3.805   2.497   4.454  0.2201  0.2943  0.2590
16157TIP3    H269963   3.729   2.368   4.431 -0.2886  0.5380  0.5647
16158TIP3   OH269964   2.132   1.631  12.048 -0.3398 -0.0072  0.0125
16158TIP3    H169965   2.121   1.710  11.996  0.8923 -0.7606 -1.4805
16158TIP3    H269966   2.053   1.580  12.032 -0.6851  0.4750  0.1727
16159TIP3   OH269967   6.120   1.669   3.254  0.4844  0.1149 -0.1533
16159TIP3    H169968   6.038   1.632   3.288 -0.1395  1.5216 -0.0630
16159TIP3    H269969   6.152   1.603   3.193 -1.5712  0.1846 -1.4203
16160TIP3   OH269970   3.708   2.652  11.332  0.1012 -0.0298 -0.2073
16160TIP3    H169971   3.756   2.612  11.405  0.7964  1.2423  0.0514
16160TIP3    H269972   3.767   2.640  11.257 -0.0095 -0.1179 -0.2801
16161TIP3   OH269973   5.149   6.704   0.013  0.7228  0.7655  0.0109
16161TIP3    H169974   5.217   6.640  -0.009  1.5227  1.1117  1.3764
16161TIP3    H269975   5.195   6.787   0.020 -0.4055  1.6765 -2.3773
16162TIP3   OH269976   1.375   1.385  15.539  0.1986  0.3739  0.9410
16162TIP3    H169977   1.344   1.382  15.629 -0.4059  1.6639  0.8011
16162TIP3    H269978   1.443   1.453  15.538  0.2454  0.3301  0.4433
16163TIP3   OH269979   4.588   6.734   2.553 -0.5930  0.4972 -0.0516
16163TIP3    H169980   4.546   6.689   2.627  1.1113 -1.4154 -0.1612
16163TIP3    H269981   4.640   6.802   2.594  0.1167 -0.3634  0.5280
16164TIP3   OH269982   3.070   0.094  16.078  0.3736  0.3340 -0.3263
16164TIP3    H169983   3.117   0.136  16.007 -1.5455  1.3438 -1.0850
16164TIP3    H269984   2.983   0.134  16.077 -0.9518 -2.2792  0.1747
16165TIP3   OH269985   6.592   5.178   1.720 -0.7602  0.1903  0.1597
16165TIP3    H169986   6.526   5.180   1.791 -1.3174 -3.1617 -0.1408
16165TIP3    H269987   6.570   5.101   1.668  2.4473 -0.1187 -0.9586
16166TIP3   OH269988   6.239   2.840   4.489  0.2541  0.0674 -0.3040
16166TIP3    H169989   6.289   2.859   4.410 -0.3637  0.5760 -0.5805
16166TIP3    H269990   6.242   2.921   4.540  1.8380 -0.6792  0.8757
16167TIP3   OH269991   5.294   6.563  15.383  0.0548 -0.1761 -0.1400
16167TIP3    H169992   5.387   6.544  15.375  0.1214 -0.6750  1.4571
16167TIP3    H269993   5.255   6.479  15.407 -0.5224  0.4280  1.0866
16168TIP3   OH269994   0.061   3.706   3.255 -0.2589  0.2646  0.0612
16168TIP3    H169995   0.125   3.701   3.185  1.8399  0.8995  1.8170
16168TIP3    H269996   0.005   3.630   3.242  1.4364 -0.8625 -1.0136
16169TIP3   OH269997   4.404   4.542   0.039 -0.4676  0.6921  0.0714
16169TIP3    H169998   4.436   4.520  -0.048 -0.6082  0.2539  0.1252
16169TIP3    H269999   4.334   4.479   0.056  0.9733 -0.6705  1.3507
16170TIP3   OH270000   2.686   4.818   3.669  0.2415  0.1218  0.0726
16170TIP3    H170001   2.747   4.745   3.678  1.7734  1.4625  1.0670
16170TIP3    H270002   2.655   4.812   3.578  0.0074 -1.9638  0.2411
16171TIP3   OH270003   0.842   2.645   3.907 -0.3437  0.4735  0.2186
16171TIP3    H170004   0.860   2.612   3.819 -2.1997  2.4589 -1.0095
16171TIP3    H270005   0.882   2.732   3.908 -0.8529  0.7074  1.1159
16172TIP3   OH270006   6.855   1.683   5.785  0.1953 -0.5341 -0.1452
16172TIP3    H170007   6.821   1.607   5.832  3.0345 -1.3266  0.8214
16172TIP3    H270008   6.857   1.753   5.850  0.7566 -0.6040 -0.0855
16173TIP3   OH270009   5.475   5.468   5.219  0.5246 -0.0456 -0.1741
16173TIP3    H170010   5.395   5.424   5.250 -0.3340  1.3639 -0.2925
16173TIP3    H270011   5.495   5.532   5.287  0.2188  1.1742 -1.1892
16174TIP3   OH270012   2.243   1.456   0.517 -0.6160  0.2354 -0.1327
16174TIP3    H170013   2.173   1.454   0.583 -0.4494  0.3497  0.0488
16174TIP3    H270014   2.293   1.376   0.532 -0.5321  0.2996 -0.0707
16175TIP3   OH270015   0.836   0.441   5.182 -0.2144 -0.0224 -0.2788
16175TIP3    H170016   0.846   0.499   5.258 -0.4543 -0.7823  0.3498
16175TIP3    H270017   0.792   0.363   5.218 -1.1016 -0.0465 -1.3667
16176TIP3   OH270018   5.554   5.367  13.912  0.0677  0.3648 -0.6276
16176TIP3    H170019   5.511   5.325  13.838 -0.2875  2.2512 -1.5437
16176TIP3    H270020   5.493   5.436  13.940  0.0048 -0.5473  1.7062
16177TIP3   OH270021   2.636   2.107  15.307 -0.8773  0.3994 -0.0424
16177TIP3    H170022   2.718   2.157  15.305 -1.4624  1.3717 -0.5677
16177TIP3    H270023   2.616   2.090  15.215  0.0812 -2.1676  0.1474
16178TIP3   OH270024   4.757   0.310   1.386  0.0536  0.1921  0.3717
16178TIP3    H170025   4.739   0.383   1.326  0.3208 -0.0710 -0.0313
16178TIP3    H270026   4.821   0.256   1.340 -0.6089 -0.6333  0.3968
16179TIP3   OH270027   6.505   2.730   4.708 -0.1359  0.6218 -0.0182
16179TIP3    H170028   6.462   2.691   4.785  0.6239 -0.0930  0.0643
16179TIP3    H270029   6.492   2.824   4.718  0.6314  0.6073  1.4265
16180TIP3   OH270030   4.049   5.292  12.009 -0.2340  0.8270 -0.0120
16180TIP3    H170031   4.108   5.255  11.944 -1.8488 -0.3899 -0.8498
16180TIP3    H270032   3.997   5.217  12.040 -1.5266  1.8825  0.4754
16181TIP3   OH270033   2.847   2.094  11.141 -0.2040  0.3888 -0.0740
16181TIP3    H170034   2.828   2.052  11.057 -0.8595 -0.7747  0.6235
16181TIP3    H270035   2.799   2.177  11.138 -0.3377  0.2915 -0.7940
16182TIP3   OH270036   3.888   3.696  14.266 -0.4574  0.1176 -0.5292
16182TIP3    H170037   3.803   3.659  14.289  0.3370 -0.6165  1.5351
16182TIP3    H270038   3.940   3.621  14.238  0.3858 -0.0189  1.2120
16183TIP3   OH270039   4.926   1.278  13.347  1.0891  0.4542  0.1348
16183TIP3    H170040   4.995   1.241  13.401 -0.5736 -4.1877 -0.4858
16183TIP3    H270041   4.846   1.266  13.398 -0.1468 -1.3524 -2.0527
16184TIP3   OH270042   1.016   1.115   3.772 -0.2573  0.6317 -0.0246
16184TIP3    H170043   1.070   1.167   3.831  1.9239 -1.7069  0.2139
16184TIP3    H270044   0.996   1.036   3.822 -2.4345  0.6202 -0.7965
16185TIP3   OH270045   4.675   3.632   5.963 -0.2903  0.2437 -0.3465
16185TIP3    H170046   4.619   3.557   5.945 -0.4812  0.2998 -0.0020
16185TIP3    H270047   4.756   3.594   5.997 -0.6365  0.2196  0.4632
16186TIP3   OH270048   3.755   4.399  16.498  0.3267  0.0283 -0.0279
16186TIP3    H170049   3.675   4.417  16.448  1.0814 -1.0996 -1.7154
16186TIP3    H270050   3.824   4.446  16.451  1.1948 -1.7408 -0.5997
16187TIP3   OH270051   5.388   3.375  14.963  0.0550 -0.2764 -0.4172
16187TIP3    H170052   5.438   3.450  14.997  0.6372 -0.7161 -0.2827
16187TIP3    H270053   5.300   3.387  14.999  0.6871 -0.8241  1.4251
16188TIP3   OH270054   6.163   2.786   3.925 -0.1250  0.3250 -0.3234
16188TIP3    H170055   6.085   2.734   3.903 -0.8403  2.0683 -2.2188
16188TIP3    H270056   6.156   2.802   4.019 -1.5818 -0.3018 -0.2958
16189TIP3   OH270057   3.616   2.820   6.344 -0.2647 -0.0198 -0.2187
16189TIP3    H170058   3.590   2.912   6.352 -0.7202 -0.0443 -1.2457
16189TIP3    H270059   3.700   2.823   6.298 -0.5098 -0.1374 -0.6755
16190TIP3   OH270060   6.619   3.709   4.129  0.2159  0.0293  0.2619
16190TIP3    H170061   6.640   3.802   4.138  2.6420 -0.4383 -0.0032
16190TIP3    H270062   6.689   3.674   4.075 -0.3890 -2.0815  0.7717
16191TIP3   OH270063   4.568   3.697   3.294  0.2803  0.1461 -0.5391
16191TIP3    H170064   4.562   3.779   3.245  1.0265  0.2992 -0.3845
16191TIP3    H270065   4.560   3.629   3.227  1.2523  0.3566 -0.8743
16192TIP3   OH270066   2.588   5.228  16.885 -0.0148  0.7098  0.0199
16192TIP3    H170067   2.511   5.172  16.874 -0.3749  1.4581 -1.3715
16192TIP3    H270068   2.565   5.286  16.958  0.0026 -0.3130  0.8619
16193TIP3   OH270069   5.825   3.944  16.107 -0.8605  0.2889  0.3174
16193TIP3    H170070   5.756   4.008  16.126 -2.3236 -0.9611 -0.5493
16193TIP3    H270071   5.826   3.938  16.011  0.1596 -0.0327  0.3427
16194TIP3   OH270072   3.681   5.418   4.421  0.5267  0.0051 -0.9472
16194TIP3    H170073   3.704   5.456   4.505 -1.7589 -1.4741  0.4619
16194TIP3    H270074   3.637   5.488   4.373 -0.6845  0.0930  0.2621
16195TIP3   OH270075   2.944   6.635   0.030 -0.2337  0.2047 -0.2110
16195TIP3    H170076   2.967   6.668   0.117 -0.7744  0.7199 -0.2589
16195TIP3    H270077   2.928   6.713  -0.022 -0.5215 -0.1141 -0.6099
16196TIP3   OH270078   6.659   4.077   2.325 -0.7667  0.2276  0.2310
16196TIP3    H170079   6.572   4.069   2.364 -0.9083  1.5103  0.2299
16196TIP3    H270080   6.715   4.107   2.396 -1.2831  3.8647 -0.6665
16197TIP3   OH270081   6.515   3.237  14.134 -0.3881  0.3882 -0.3206
16197TIP3    H170082   6.509   3.255  14.040 -0.4161 -1.8725 -0.7989
16197TIP3    H270083   6.457   3.163  14.149  0.7355 -0.2515  1.2095
16198TIP3   OH270084   5.956   0.381   2.134 -0.2826  0.3203 -0.1972
16198TIP3    H170085   5.878   0.337   2.099  0.4519  0.0576 -1.5560
16198TIP3    H270086   5.991   0.431   2.061 -0.0231  1.7091  0.8168
16199TIP3   OH270087   3.580   4.187   6.831 -0.1749  0.1915 -0.0310
16199TIP3    H170088   3.663   4.210   6.790  0.2834 -1.2404  0.0388
16199TIP3    H270089   3.514   4.233   6.780  0.5034 -0.3294 -1.4226
16200TIP3   OH270090   5.392   2.964  13.708 -0.0413  0.3009 -0.1621
16200TIP3    H170091   5.429   3.052  13.703  1.9252 -0.4324  0.2482
16200TIP3    H270092   5.457   2.914  13.759 -1.6312 -1.1253  0.5648
16201TIP3   OH270093   1.332   6.168  10.785  0.1921  0.1913 -0.0355
16201TIP3    H170094   1.307   6.212  10.704  1.7209 -1.6464 -1.5776
16201TIP3    H270095   1.325   6.075  10.766 -1.9838 -0.3954  2.8269
16202TIP3   OH270096   3.654   1.352  10.431  0.8464 -0.2689 -0.0368
16202TIP3    H170097   3.632   1.388  10.516  0.4505 -0.4135 -0.0736
16202TIP3    H270098   3.578   1.373  10.376  0.8644 -0.6471 -0.2089
16203TIP3   OH270099   6.438   1.586   2.843  0.7083  0.0386 -0.2294
16203TIP3    H170100   6.399   1.664   2.803  0.5492 -0.4086 -0.9655
16203TIP3    H270101   6.372   1.518   2.833  0.3040  0.1108  1.6005
16204TIP3   OH270102   2.715   5.109  12.258 -0.0847 -0.7335  0.5402
16204TIP3    H170103   2.644   5.048  12.281  0.2010 -1.5740 -0.7144
16204TIP3    H270104   2.762   5.123  12.340  0.4234 -2.9828  0.6962
16205TIP3   OH270105   0.947   6.380   4.201 -0.3529 -0.2703 -0.9244
16205TIP3    H170106   0.901   6.429   4.269 -2.2569 -2.8162 -0.2173
16205TIP3    H270107   0.907   6.408   4.119  1.8115  2.6653 -1.1103
16206TIP3   OH270108   0.562   5.312  14.513  0.3464 -0.8742 -0.0536
16206TIP3    H170109   0.593   5.360  14.436 -0.1701 -1.3612 -0.5715
16206TIP3    H270110   0.560   5.377  14.583  0.2492 -0.2911 -0.5954
16207TIP3   OH270111   1.396   6.419  14.123 -0.0291 -0.1663  0.6193
16207TIP3    H170112   1.477   6.449  14.083  0.0508  2.3116  2.4336
16207TIP3    H270113   1.328   6.446  14.061  0.3443 -0.2561  0.1599
16208TIP3   OH270114   4.394   3.467   9.996 -0.1225  0.1642  0.0722
16208TIP3    H170115   4.381   3.502  10.084  0.9982  2.3885 -0.5708
16208TIP3    H270116   4.347   3.383   9.996 -0.0056  0.0181  2.8041
16209TIP3   OH270117   5.490   2.187  11.136  0.3679  0.1632 -0.4777
16209TIP3    H170118   5.401   2.152  11.140 -0.5534  2.0575 -2.5735
16209TIP3    H270119   5.545   2.111  11.115 -0.4616 -1.2956  2.1061
16210TIP3   OH270120   3.286   3.753   6.563 -0.2469  0.2383  0.2549
16210TIP3    H170121   3.375   3.735   6.592  1.1767  1.6289 -2.8296
16210TIP3    H270122   3.280   3.848   6.562 -1.6062  0.1670 -0.0515
16211TIP3   OH270123   3.291   3.797   6.887  0.4616 -0.3261  0.5064
16211TIP3    H170124   3.217   3.743   6.861  0.2273  0.8882 -1.5840
16211TIP3    H270125   3.368   3.746   6.861  0.3570 -1.0309  1.5187
16212TIP3   OH270126   1.877   3.305  16.546  0.0691  0.7375 -0.1001
16212TIP3    H170127   1.873   3.374  16.613 -0.0170  1.1791 -0.5593
16212TIP3    H270128   1.788   3.269  16.543  0.5469 -0.7542  1.5414
16213TIP3   OH270129   3.902   0.563  13.301 -0.2560  0.2632  0.6991
16213TIP3    H170130   3.964   0.491  13.286 -0.1939  0.5850 -0.7565
16213TIP3    H270131   3.828   0.543  13.244  0.2546  1.9001 -0.6063
16214TIP3   OH270132   4.914   0.589  13.369  0.2119 -0.2025  0.2548
16214TIP3    H170133   4.945   0.679  13.361  1.7872 -0.7024  0.4894
16214TIP3    H270134   4.901   0.576  13.463 -0.0177 -0.2226  0.2211
16215TIP3   OH270135   1.804   4.135   5.185  0.1536 -0.2600  0.0208
16215TIP3    H170136   1.750   4.210   5.214  0.1040  0.6304 -2.2161
16215TIP3    H270137   1.860   4.116   5.260 -2.0686 -0.1149  1.8294
16216TIP3   OH270138   4.931   1.525  14.790 -0.5344 -0.1723 -0.1200
16216TIP3    H170139   5.002   1.483  14.741 -0.0149 -2.1743  2.1741
16216TIP3    H270140   4.971   1.550  14.874 -1.9641  0.9465  0.2847
16217TIP3   OH270141   5.247   0.943  12.552  0.6282  0.0630  0.1980
16217TIP3    H170142   5.181   0.882  12.518  0.1786  1.2824 -1.2733
16217TIP3    H270143   5.259   0.917  12.643 -1.9532 -0.1713  0.5603
16218TIP3   OH270144   3.868   0.987  10.642 -0.6542 -0.1258  0.1453
16218TIP3    H170145   3.949   1.035  10.662  0.3292 -0.4355 -2.6290
16218TIP3    H270146   3.880   0.902  10.685  0.2080  0.0720  0.3324
16219TIP3   OH270147   2.300   2.425   5.329 -0.3489  0.1346 -0.3122
16219TIP3    H170148   2.208   2.408   5.307  0.0216 -0.1198 -1.8155
16219TIP3    H270149   2.317   2.513   5.296 -0.0664  0.1896 -0.0186
16220TIP3   OH270150   5.584   5.825  11.933  0.3875  0.3981  0.0158
16220TIP3    H170151   5.488   5.822  11.925  0.2177  1.1967  1.3867
16220TIP3    H270152   5.603   5.918  11.951  1.3582  0.1452  0.3463
16221TIP3   OH270153   1.167   6.041   1.554 -0.3616 -0.2439 -0.2433
16221TIP3    H170154   1.166   6.018   1.647  0.4564 -1.0639 -0.4260
16221TIP3    H270155   1.258   6.031   1.528 -0.9308 -2.2244 -1.6677
16222TIP3   OH270156   4.078   3.586   0.479 -0.1007 -0.0401 -0.6764
16222TIP3    H170157   3.985   3.561   0.484 -0.4154  0.2324 -3.6624
16222TIP3    H270158   4.077   3.681   0.495  0.1585 -0.4605  2.5681
16223TIP3   OH270159   4.193   0.203  15.210  0.2742 -0.3732  0.0968
16223TIP3    H170160   4.170   0.264  15.140  0.5478 -0.4389 -0.0490
16223TIP3    H270161   4.116   0.204  15.268  0.1592 -0.1129 -0.0565
16224TIP3   OH270162   5.758   2.481   4.798 -0.1115  0.2485 -0.0180
16224TIP3    H170163   5.714   2.561   4.827  2.3630  2.1869 -1.1344
16224TIP3    H270164   5.690   2.430   4.755 -1.2938  3.2906 -2.1333
16225TIP3   OH270165   4.502   6.472   0.227 -0.3637  0.0658 -0.4745
16225TIP3    H170166   4.492   6.405   0.160 -0.8453  0.8300 -1.1947
16225TIP3    H270167   4.527   6.424   0.306  0.2308 -0.8487 -1.2015
16226TIP3   OH270168   4.970   3.446   4.833  0.6905 -0.4169 -0.4063
16226TIP3    H170169   4.945   3.531   4.869 -0.2727 -0.5794 -0.6549
16226TIP3    H270170   4.977   3.461   4.738  1.6771 -0.3515 -0.3343
16227TIP3   OH270171   3.936   1.314  15.528 -0.0052  0.6229  0.3652
16227TIP3    H170172   3.979   1.398  15.544 -0.9494  1.2976 -0.5061
16227TIP3    H270173   3.891   1.294  15.610 -0.1289  1.1862  0.4392
16228TIP3   OH270174   2.845   0.351  12.694  0.5494  0.7090  0.0425
16228TIP3    H170175   2.814   0.404  12.620  0.3715 -2.2995 -2.2630
16228TIP3    H270176   2.766   0.307  12.727  1.1573 -1.3268 -1.0010
16229TIP3   OH270177   2.685   4.406   4.233  0.5204 -0.2835 -0.6086
16229TIP3    H170178   2.689   4.421   4.138 -1.5103  0.6479 -0.5858
16229TIP3    H270179   2.735   4.478   4.271  3.1110 -1.7548 -0.9550
16230TIP3   OH270180   4.239   0.419   4.558  0.2278  0.0241  0.3867
16230TIP3    H170181   4.243   0.392   4.466 -1.5963  0.9775 -0.0219
16230TIP3    H270182   4.189   0.350   4.601  1.6709 -0.7777  0.8555
16231TIP3   OH270183   4.005   2.867   1.534  0.2484 -0.0276 -0.4362
16231TIP3    H170184   4.061   2.789   1.523 -1.0443 -0.8190 -1.8247
16231TIP3    H270185   4.041   2.931   1.473  0.7469  0.1379  0.0247
16232TIP3   OH270186   1.314   6.314   4.505 -0.3459 -0.0960 -0.8029
16232TIP3    H170187   1.291   6.396   4.463 -1.6104  0.5465  1.0145
16232TIP3    H270188   1.230   6.272   4.523 -0.4338  1.6208  4.7322
16233TIP3   OH270189   3.562   1.491   6.644 -0.3936  0.6997  0.7497
16233TIP3    H170190   3.537   1.559   6.583 -0.2196  0.9696  0.9744
16233TIP3    H270191   3.585   1.416   6.589 -1.3897  0.5451  0.5339
16234TIP3   OH270192   0.359   4.066   6.222  0.4307 -0.4569 -0.2311
16234TIP3    H170193   0.402   4.137   6.270 -1.3655  0.1630  0.5439
16234TIP3    H270194   0.286   4.040   6.278 -0.7201 -0.8805 -1.8541
16235TIP3   OH270195   1.477   0.922  15.476 -0.4407  0.1612 -0.0801
16235TIP3    H170196   1.466   0.890  15.387 -1.5380 -1.0013  0.4377
16235TIP3    H270197   1.389   0.944  15.505 -0.2326 -0.3596  1.0190
16236TIP3   OH270198   6.001   4.997   2.331 -0.4874  0.2639  0.2784
16236TIP3    H170199   5.980   5.070   2.390 -0.8612 -0.7700  1.4566
16236TIP3    H270200   5.970   4.919   2.377  0.5007 -0.7157 -0.6603
16237TIP3   OH270201   4.491   0.795   2.053  0.3213 -0.3542  0.1677
16237TIP3    H170202   4.500   0.885   2.083  0.9715 -0.6452  0.8599
16237TIP3    H270203   4.411   0.796   1.999  0.1036  0.5428  0.4892
16238TIP3   OH270204   3.336   4.593   3.863 -0.2413 -0.4022 -0.2636
16238TIP3    H170205   3.424   4.563   3.886 -1.2128 -3.3064  0.0406
16238TIP3    H270206   3.322   4.561   3.774 -0.6738  0.8611 -0.6678
16239TIP3   OH270207   4.465   4.108   1.563 -0.1685 -0.8453  0.4137
16239TIP3    H170208   4.440   4.063   1.482  1.2339 -0.2287 -0.4029
16239TIP3    H270209   4.544   4.063   1.592  0.5939  0.3126  0.2132
16240TIP3   OH270210   3.682   5.852   1.563 -0.4447 -0.1412  0.3388
16240TIP3    H170211   3.756   5.858   1.502 -0.7063 -0.2566  0.0097
16240TIP3    H270212   3.645   5.765   1.547 -2.3726  0.9427 -1.4899
16241TIP3   OH270213   5.453   5.605   3.273  0.7095 -0.0118 -0.2802
16241TIP3    H170214   5.398   5.613   3.351  2.1697 -0.9588  0.8787
16241TIP3    H270215   5.498   5.689   3.267  0.1307  0.2904 -0.4821
16242TIP3   OH270216   5.046   2.753   1.217 -0.2891 -0.2413  0.1232
16242TIP3    H170217   4.976   2.764   1.152  0.1552  0.7403 -0.2070
16242TIP3    H270218   5.127   2.760   1.166  0.0862  1.6108  0.9096
16243TIP3   OH270219   3.972   4.013   3.202  0.0157 -0.1773 -0.5161
16243TIP3    H170220   3.941   4.079   3.263  0.7446 -0.0480 -0.2736
16243TIP3    H270221   4.066   4.030   3.193  0.2103 -1.1568 -0.4751
16244TIP3   OH270222   4.797   0.115  14.699  0.3509 -0.3692  0.2927
16244TIP3    H170223   4.778   0.148  14.611 -0.8054  0.7089  0.9204
16244TIP3    H270224   4.832   0.027  14.684 -1.0977 -0.7540 -1.1878
16245TIP3   OH270225   0.200   3.113   1.392  0.0834  0.0991 -0.1870
16245TIP3    H170226   0.151   3.031   1.397  1.7141 -1.0129 -1.2249
16245TIP3    H270227   0.289   3.089   1.419  0.3107  1.8160  0.7000
16246TIP3   OH270228   5.023   5.440   0.558  0.4566 -0.2967 -0.2332
16246TIP3    H170229   5.020   5.407   0.648 -1.5554 -1.6512 -0.7271
16246TIP3    H270230   5.099   5.498   0.556  2.2682 -2.4335  1.5759
16247TIP3   OH270231   5.284   4.082  13.190  0.3413 -0.1274  0.5079
16247TIP3    H170232   5.336   4.158  13.166  1.9001 -0.7583  1.6974
16247TIP3    H270233   5.303   4.016  13.123  1.9394 -0.6921  1.4471
16248TIP3   OH270234   6.159   5.581   1.419  0.1732 -0.4022 -0.5967
16248TIP3    H170235   6.195   5.613   1.502  0.4014 -1.3937 -0.3052
16248TIP3    H270236   6.136   5.490   1.436 -0.1599 -0.4988 -1.5121
16249TIP3   OH270237   3.687   6.708   5.738 -0.2417 -0.2348 -0.0150
16249TIP3    H170238   3.596   6.722   5.713 -0.2635 -0.4942 -0.0928
16249TIP3    H270239   3.694   6.613   5.750 -0.1117 -0.1692  0.4921
16250TIP3   OH270240   0.482   6.390  13.363 -0.5029  0.2993  0.0069
16250TIP3    H170241   0.553   6.407  13.424 -0.7875  1.8560 -0.0735
16250TIP3    H270242   0.422   6.463  13.374 -1.8814 -0.7589 -0.2495
16251TIP3   OH270243   3.308   1.263   1.364  0.4066  0.7105 -0.2924
16251TIP3    H170244   3.401   1.251   1.385  0.6739  2.0752 -0.5845
16251TIP3    H270245   3.308   1.321   1.288 -0.6231 -1.6433 -2.2358
16252TIP3   OH270246   0.308   0.118   1.668  0.0149  0.6293 -0.1364
16252TIP3    H170247   0.225   0.164   1.679  0.7699  1.5599  2.3225
16252TIP3    H270248   0.367   0.182   1.628 -0.1310  0.3291 -0.8454
16253TIP3   OH270249   5.145   5.841   4.208  0.2288 -0.5702  0.2703
16253TIP3    H170250   5.132   5.753   4.172  0.2974 -0.8583  0.9320
16253TIP3    H270251   5.099   5.840   4.292  1.0601 -0.3025  0.7484
16254TIP3   OH270252   5.246   1.483   6.371 -0.3137 -0.4223  0.4850
16254TIP3    H170253   5.251   1.520   6.283 -1.2340 -0.5812  0.3510
16254TIP3    H270254   5.285   1.549   6.427  1.7717 -0.9990 -0.2120
16255TIP3   OH270255   4.110   4.526   5.904 -0.6586 -1.0904 -0.1637
16255TIP3    H170256   4.083   4.500   5.816  0.7474 -2.3540 -0.2579
16255TIP3    H270257   4.062   4.468   5.963 -0.7723 -0.9743 -0.1397
16256TIP3   OH270258   2.021   1.380   4.984  0.2123 -0.0161 -0.1397
16256TIP3    H170259   1.958   1.313   4.957 -0.1281  0.8434 -1.6306
16256TIP3    H270260   2.084   1.385   4.913  0.5170  0.8922  0.1697
16257TIP3   OH270261   5.225   1.786  12.794 -0.2448  0.3967 -0.2570
16257TIP3    H170262   5.234   1.811  12.886 -1.2854  1.8700 -0.5155
16257TIP3    H270263   5.315   1.774  12.763  0.1689  0.9735  0.6857
16258TIP3   OH270264   6.524   4.727   5.481  0.0656 -0.0699  0.2073
16258TIP3    H170265   6.582   4.653   5.464 -0.6855 -0.4108 -0.9646
16258TIP3    H270266   6.439   4.700   5.446  0.0954  1.8768 -1.5384
16259TIP3   OH270267   3.352   5.237   2.008 -0.4493  0.1859  0.2254
16259TIP3    H170268   3.358   5.233   1.912  2.4666  0.4250  0.3049
16259TIP3    H270269   3.308   5.320   2.026  0.0647  0.7273 -0.9023
16260TIP3   OH270270   0.058   0.756  15.297  0.5081 -0.0300  0.6711
16260TIP3    H170271   0.141   0.790  15.265  0.4957  0.1546  0.8329
16260TIP3    H270272  -0.006   0.783  15.232  0.3779  0.9127  1.1692
16261TIP3   OH270273   4.148   3.578  14.561  0.0093  0.0915 -0.0056
16261TIP3    H170274   4.141   3.644  14.491 -0.4092  0.0526 -0.0005
16261TIP3    H270275   4.064   3.534  14.561  1.0876 -2.1242 -1.6604
16262TIP3   OH270276   3.759   4.080  17.121  0.6626  0.0999 -0.1834
16262TIP3    H170277   3.682   4.047  17.168  0.6298  1.4332  0.7716
16262TIP3    H270278   3.731   4.085  17.030  0.2471 -1.1952 -0.1491
16263TIP3   OH270279   2.375   6.112   5.708 -0.3366  0.7468  0.0260
16263TIP3    H170280   2.288   6.131   5.743 -0.3881 -0.1353  0.4125
16263TIP3    H270281   2.358   6.073   5.622 -0.5035 -1.8881  1.1637
16264TIP3   OH270282   3.797   2.543   6.073  0.3050 -0.4839  0.0100
16264TIP3    H170283   3.708   2.575   6.058  0.7553  0.8249 -0.0209
16264TIP3    H270284   3.833   2.602   6.140  1.1787 -0.9223 -0.0500
16265TIP3   OH270285   3.527   2.641   6.539  0.4450  0.4554 -0.3112
16265TIP3    H170286   3.586   2.689   6.481  0.1564 -0.9323 -1.8278
16265TIP3    H270287   3.445   2.635   6.490 -0.3719  0.7008  0.9721
16266TIP3   OH270288   6.828   2.961  14.688 -0.2051 -0.1805 -0.1097
16266TIP3    H170289   6.743   3.005  14.691 -0.3512 -0.4939  1.4884
16266TIP3    H270290   6.892   3.031  14.702 -0.4849 -0.4285  3.6247
16267TIP3   OH270291   1.614   6.793   4.643  0.2314 -0.7563  0.2240
16267TIP3    H170292   1.552   6.814   4.573 -0.1817 -1.8292  0.2493
16267TIP3    H270293   1.618   6.873   4.696  1.4429  0.5147 -1.6360
16268TIP3   OH270294   2.072   3.838   4.057  0.4981  0.0818  0.0653
16268TIP3    H170295   2.030   3.869   4.137 -0.4608 -1.1366  0.0634
16268TIP3    H270296   2.117   3.916   4.022 -0.0420  0.9166  1.1524
16269TIP3   OH270297   1.848   0.217   2.070 -0.1362 -0.3716  0.0762
16269TIP3    H170298   1.826   0.282   2.136  1.0175  0.5390 -0.4056
16269TIP3    H270299   1.939   0.194   2.088  0.1515 -0.2190 -1.0876
16270TIP3   OH270300   3.067   1.944   5.509  0.3597 -0.1589 -0.6499
16270TIP3    H170301   2.993   1.976   5.560 -0.7470  2.8872 -3.7956
16270TIP3    H270302   3.143   1.961   5.565 -1.0264 -1.6901  1.9177
16271TIP3   OH270303   2.011   0.531  11.602 -0.3853  0.6132 -0.5886
16271TIP3    H170304   1.993   0.573  11.519  0.7912  0.6808 -0.8346
16271TIP3    H270305   1.926   0.525  11.646 -0.7828  2.0047 -1.1221
16272TIP3   OH270306   6.522   0.917   5.575  0.1255  0.0485  0.0982
16272TIP3    H170307   6.478   0.991   5.533 -1.4260 -1.3776 -0.8966
16272TIP3    H270308   6.464   0.893   5.647  1.7303  1.1453  1.8513
16273TIP3   OH270309   3.762   3.267  12.406 -0.6909  0.5134 -0.0379
16273TIP3    H170310   3.774   3.182  12.450  0.4527  0.8954  0.4183
16273TIP3    H270311   3.771   3.331  12.476  0.7967  1.1215 -0.7478
16274TIP3   OH270312   2.364   0.574   0.742  0.1682 -0.8138  0.0329
16274TIP3    H170313   2.411   0.626   0.807  0.9544 -0.7597 -0.5587
16274TIP3    H270314   2.304   0.636   0.701  0.1945 -0.6780  0.1980
16275TIP3   OH270315   3.974   2.009   4.740 -0.3329  0.0011 -0.6739
16275TIP3    H170316   3.990   1.988   4.648  1.0020 -0.4929 -0.3558
16275TIP3    H270317   4.060   2.034   4.774 -0.7551 -0.0992  0.5089
16276TIP3   OH270318   6.021   6.210  12.180 -0.4172  0.0120 -0.1478
16276TIP3    H170319   6.066   6.152  12.242 -1.5546 -2.1291 -1.2289
16276TIP3    H270320   6.072   6.291  12.183  1.9156 -1.3723  0.6535
16277TIP3   OH270321   4.768   4.429  15.250 -0.0789  0.6698 -0.5365
16277TIP3    H170322   4.844   4.371  15.257  0.2268  0.8544 -1.9378
16277TIP3    H270323   4.730   4.407  15.165 -2.3563 -0.3041  0.6612
16278TIP3   OH270324   6.818   1.878  12.713  0.4516  0.2887  0.2626
16278TIP3    H170325   6.851   1.956  12.757  0.5663  0.5846 -0.3398
16278TIP3    H270326   6.724   1.880  12.728  0.4374  0.6113  0.1519
16279TIP3   OH270327   5.279   3.145   4.030  0.3671 -0.2954 -0.9716
16279TIP3    H170328   5.344   3.088   3.988  0.6012  0.1320 -1.1970
16279TIP3    H270329   5.319   3.170   4.113 -0.4792 -1.8763 -0.0571
16280TIP3   OH270330   6.054   0.636   1.684 -0.1058 -0.1866  0.3571
16280TIP3    H170331   5.969   0.593   1.691 -0.1254 -0.2708 -0.2700
16280TIP3    H270332   6.117   0.564   1.685 -0.2204 -0.4383 -2.3673
16281TIP3   OH270333   1.343   3.473  13.734 -0.0855 -0.4751 -0.7023
16281TIP3    H170334   1.412   3.478  13.800 -0.4815  0.1518 -0.3273
16281TIP3    H270335   1.388   3.447  13.654  0.5750 -0.1459 -0.4452
16282TIP3   OH270336   0.513   1.368   3.527 -0.5847 -0.8132  0.6982
16282TIP3    H170337   0.559   1.396   3.606 -0.3365  2.3114 -0.3780
16282TIP3    H270338   0.579   1.373   3.458 -1.9323  1.9255 -0.5545
16283TIP3   OH270339   1.660   2.985   3.255  0.1972 -0.0242  0.5786
16283TIP3    H170340   1.618   2.903   3.229 -2.6275  1.4983 -0.0107
16283TIP3    H270341   1.625   3.003   3.343  0.9579  0.4379  0.7937
16284TIP3   OH270342   5.756   6.259  12.299  0.1188 -0.3983 -0.1633
16284TIP3    H170343   5.837   6.257  12.248  0.0513  0.0582 -0.2884
16284TIP3    H270344   5.688   6.279  12.235 -0.3554 -2.5207 -0.4005
16285TIP3   OH270345   4.046   5.525  13.708 -0.1595 -0.1870 -0.3829
16285TIP3    H170346   4.083   5.502  13.623 -2.4751  0.4082 -1.6441
16285TIP3    H270347   4.070   5.617  13.720  0.9577 -0.5200  0.0944
16286TIP3   OH270348   6.628   4.999   4.566  0.2754 -0.0606 -0.0145
16286TIP3    H170349   6.551   5.020   4.619  0.5645  1.5949 -0.2013
16286TIP3    H270350   6.702   5.007   4.626  0.3859 -0.8514 -0.0338
16287TIP3   OH270351   5.968   5.963   0.168  0.0281  0.1591  0.3069
16287TIP3    H170352   5.881   5.947   0.131 -0.6869 -0.2546  2.0890
16287TIP3    H270353   6.015   6.009   0.098 -1.2237 -0.6409 -1.1216
16288TIP3   OH270354   4.978   2.448   1.048  0.2972  0.6408  0.1228
16288TIP3    H170355   4.904   2.508   1.038 -1.2720 -1.0558  1.0263
16288TIP3    H270356   5.003   2.427   0.958 -0.4828  1.0692 -0.2084
16289TIP3   OH270357   3.685   6.705  16.338  0.0333 -0.5146  0.2146
16289TIP3    H170358   3.748   6.633  16.334  1.1659  0.3674  1.3498
16289TIP3    H270359   3.630   6.684  16.414 -1.6017 -1.6657 -1.2036
16290TIP3   OH270360   6.164   5.944   6.124  0.4523 -0.0302  0.0172
16290TIP3    H170361   6.216   5.873   6.085  0.7173  0.4982 -0.6215
16290TIP3    H270362   6.117   5.982   6.050  0.2135  0.3729  0.3746
16291TIP3   OH270363   3.065   5.860   5.614 -0.4747 -0.1075 -0.0624
16291TIP3    H170364   3.061   5.788   5.551  0.5637 -0.3402  0.1168
16291TIP3    H270365   3.030   5.935   5.565  0.5644 -0.2209 -1.0344
16292TIP3   OH270366   3.527   3.410  13.754 -0.0867 -0.2515 -0.2278
16292TIP3    H170367   3.547   3.413  13.847 -0.3519 -0.2779 -0.1700
16292TIP3    H270368   3.438   3.374  13.749 -1.6406  3.1778 -0.2545
16293TIP3   OH270369   1.945   1.303   3.434 -0.1795 -0.5768  0.7161
16293TIP3    H170370   2.039   1.303   3.454 -0.1404 -0.0747  0.5569
16293TIP3    H270371   1.917   1.392   3.454 -0.7072 -0.8393  1.1401
16294TIP3   OH270372   1.181   2.215   4.583  0.2864 -0.1368 -0.0936
16294TIP3    H170373   1.155   2.299   4.545 -0.2250  0.4729  1.5212
16294TIP3    H270374   1.150   2.150   4.521  0.3668  0.8342 -1.2013
16295TIP3   OH270375   1.438   4.486   0.950  0.0670 -0.0527 -0.1923
16295TIP3    H170376   1.363   4.429   0.932  0.0114 -0.3613  0.9040
16295TIP3    H270377   1.424   4.563   0.895 -0.7992 -0.3205 -0.3646
16296TIP3   OH270378   3.720   3.962  11.446  0.3536  0.1487  0.3871
16296TIP3    H170379   3.810   3.994  11.448  0.1659  0.7174 -0.1858
16296TIP3    H270380   3.710   3.912  11.528  1.0707  0.3871  0.6201
16297TIP3   OH270381   5.586   3.254  16.360  0.5507  0.1821 -0.1195
16297TIP3    H170382   5.507   3.274  16.411 -1.2494 -1.4926 -2.0471
16297TIP3    H270383   5.567   3.288  16.273  1.7173 -0.7410 -0.7691
16298TIP3   OH270384   0.924   4.902  13.311 -0.1885 -0.1933 -0.1183
16298TIP3    H170385   0.845   4.846  13.308 -0.5846  0.3172  0.5644
16298TIP3    H270386   0.891   4.990  13.296  0.3550 -0.0606 -0.5419
16299TIP3   OH270387   6.508   5.763  11.283 -0.0344  0.3597  0.2026
16299TIP3    H170388   6.418   5.750  11.314 -0.2516  1.0747 -0.1013
16299TIP3    H270389   6.557   5.785  11.361  0.4830 -2.7309  0.8517
16300TIP3   OH270390   6.056   0.030  12.631 -0.0223  0.8163  0.4340
16300TIP3    H170391   6.089  -0.056  12.603  4.3891  2.7978 -1.3431
16300TIP3    H270392   5.977   0.043  12.578 -0.4193 -1.8188  0.2497
16301TIP3   OH270393   6.447   2.112   2.739 -0.2012 -0.1418  0.5856
16301TIP3    H170394   6.353   2.094   2.734 -0.6636  2.3355 -2.4201
16301TIP3    H270395   6.452   2.206   2.757  1.5930  0.2592 -1.6939
16302TIP3   OH270396   4.665   3.692   3.559 -0.0927 -0.1241  0.2914
16302TIP3    H170397   4.643   3.690   3.466  1.0669 -1.2148  0.0124
16302TIP3    H270398   4.581   3.691   3.604 -0.6886  0.8469 -0.7297
16303TIP3   OH270399   1.416   3.018  12.442 -0.3166  0.3350  0.2117
16303TIP3    H170400   1.353   2.982  12.380 -1.5018  2.5930 -0.0091
16303TIP3    H270401   1.499   3.021  12.394 -0.2708 -1.5918  0.1094
16304TIP3   OH270402   3.898   2.798   4.104 -0.3074 -1.0625  0.2074
16304TIP3    H170403   3.980   2.748   4.102  0.1914 -0.2917 -2.5359
16304TIP3    H270404   3.925   2.889   4.090 -1.4034 -0.2707  2.7145
16305TIP3   OH270405   0.089   5.599  13.587 -0.0406  0.1994  0.3142
16305TIP3    H170406   0.153   5.619  13.655 -1.2895 -2.7694  2.5675
16305TIP3    H270407   0.135   5.544  13.525  0.4014  0.7465  0.1468
16306TIP3   OH270408   1.607   1.715   1.283 -0.7648 -0.0430 -0.5898
16306TIP3    H170409   1.573   1.666   1.207 -0.6333 -0.0753 -0.6271
16306TIP3    H270410   1.530   1.725   1.340 -0.3675 -2.1866  0.4334
16307TIP3   OH270411   2.107   3.232   4.100  0.0970  0.3424 -0.0121
16307TIP3    H170412   2.054   3.288   4.044  0.5914  0.4051 -0.4228
16307TIP3    H270413   2.197   3.264   4.089  0.6824 -1.5975 -1.6410
16308TIP3   OH270414   2.154   5.243  16.913  0.1018  0.8835  0.0553
16308TIP3    H170415   2.172   5.239  16.819 -0.5732  0.8062 -0.0716
16308TIP3    H270416   2.062   5.266  16.920 -0.1437 -0.2366  0.6970
16309TIP3   OH270417   0.983   0.365  15.869 -0.0818  0.0283 -0.0342
16309TIP3    H170418   1.061   0.321  15.904  0.9376  2.0475  0.3903
16309TIP3    H270419   0.937   0.397  15.947 -0.1221  0.7825 -0.3598
16310TIP3   OH270420   5.091   6.787   1.172  1.0511  0.1439 -0.6088
16310TIP3    H170421   5.120   6.822   1.088 -0.9760  0.0860 -1.3739
16310TIP3    H270422   5.119   6.853   1.236 -0.5797  2.0562 -1.7596
16311TIP3   OH270423   6.772   5.688  14.429  0.1834 -0.4751  0.4312
16311TIP3    H170424   6.768   5.780  14.404  0.7160 -0.8470 -1.1320
16311TIP3    H270425   6.709   5.680  14.501  0.0493  1.0720  0.5160
16312TIP3   OH270426   3.467   3.578   0.006 -0.2204  0.2737 -0.1441
16312TIP3    H170427   3.375   3.569  -0.018 -0.2418 -0.1209  0.0852
16312TIP3    H270428   3.496   3.489   0.025  0.5865  0.1990 -1.5675
16313TIP3   OH270429   4.247   0.865   4.772 -0.2473  0.2110 -0.1134
16313TIP3    H170430   4.222   0.831   4.685 -2.7944 -0.2720  0.7144
16313TIP3    H270431   4.177   0.926   4.795 -0.3163 -0.6252  2.1160
16314TIP3   OH270432   1.051   3.795  15.525  0.1878  0.1527 -0.0255
16314TIP3    H170433   1.066   3.708  15.563 -1.9885  0.6949  2.2888
16314TIP3    H270434   0.978   3.782  15.465  0.8860  0.1196 -0.8870
16315TIP3   OH270435   4.738   0.439   4.894  0.3715 -0.1164  0.2444
16315TIP3    H170436   4.744   0.394   4.977 -3.0635  0.2787  0.8540
16315TIP3    H270437   4.722   0.370   4.830  2.5092 -0.3696 -0.0740
16316TIP3   OH270438   0.818   4.196   1.633 -0.4255  0.1572 -0.5788
16316TIP3    H170439   0.761   4.265   1.668 -0.0228  1.1681 -1.8033
16316TIP3    H270440   0.759   4.122   1.616 -0.4453 -0.9574  3.3958
16317TIP3   OH270441   2.752   2.494  14.717 -0.0476 -0.4397 -0.1799
16317TIP3    H170442   2.756   2.571  14.660 -0.3192  0.1854  0.6106
16317TIP3    H270443   2.685   2.517  14.781  1.1693 -0.5437  1.1863
16318TIP3   OH270444   3.838   3.149   1.544 -0.0427  0.4781  0.2898
16318TIP3    H170445   3.887   3.178   1.620  0.1751  0.9666 -0.0295
16318TIP3    H270446   3.746   3.156   1.570  0.0434 -0.1581  0.7856
16319TIP3   OH270447   1.554   1.909  11.775  0.2844  0.2507 -0.1305
16319TIP3    H170448   1.502   1.987  11.793 -0.4663 -0.0367 -1.0004
16319TIP3    H270449   1.491   1.837  11.776  0.6191 -0.0797 -1.3550
16320TIP3   OH270450   1.921   2.177   1.738 -0.4414 -0.7288 -0.1765
16320TIP3    H170451   1.863   2.253   1.741 -0.1668 -0.5041 -0.5424
16320TIP3    H270452   1.862   2.101   1.732 -0.7248 -0.5651  0.4632
16321TIP3   OH270453   6.037   2.079   1.193  0.1750 -0.2962 -0.0889
16321TIP3    H170454   5.952   2.044   1.170 -0.2958  0.2389  0.7599
16321TIP3    H270455   6.072   2.018   1.259  0.8150 -0.9573 -1.0211
16322TIP3   OH270456   0.027   4.172   3.768 -0.0766 -0.4701 -0.7221
16322TIP3    H170457   0.066   4.191   3.853  0.2138 -0.9326 -0.7520
16322TIP3    H270458   0.042   4.079   3.755 -2.5799 -1.0655  0.0021
16323TIP3   OH270459   0.408   4.289   6.386 -0.6612  0.3358  0.4510
16323TIP3    H170460   0.501   4.307   6.377 -0.7099  0.3516 -0.0157
16323TIP3    H270461   0.365   4.373   6.368 -0.8641 -0.1123 -1.2692
16324TIP3   OH270462   0.467   3.278   4.801  0.6178 -0.3348 -0.2399
16324TIP3    H170463   0.378   3.280   4.835  0.6490 -0.6041 -0.1378
16324TIP3    H270464   0.457   3.292   4.707  0.5330  0.4446 -0.1250
16325TIP3   OH270465   2.074   4.301   5.200  0.1135  0.1365 -0.3092
16325TIP3    H170466   2.133   4.315   5.274 -1.3582  2.1500  0.5708
16325TIP3    H270467   2.037   4.214   5.216 -0.2276  0.5545  1.3774
16326TIP3   OH270468   0.144   1.694   1.118 -0.1941 -0.3326 -0.4040
16326TIP3    H170469   0.050   1.677   1.119 -0.4366  0.8218 -1.2077
16326TIP3    H270470   0.153   1.784   1.149  0.7680 -0.8469  0.8919
16327TIP3   OH270471   5.810   0.447  11.294 -0.3570  0.4366 -0.5553
16327TIP3    H170472   5.893   0.435  11.340 -1.3553 -2.5330  0.6833
16327TIP3    H270473   5.754   0.494  11.355 -1.3589 -2.6420  1.0976
16328TIP3   OH270474   4.736   2.345  14.016  0.2048  0.0070 -0.3573
16328TIP3    H170475   4.661   2.403  14.012  0.5676  0.5993  0.8226
16328TIP3    H270476   4.811   2.404  14.026  0.5793 -0.6235  0.8317
16329TIP3   OH270477   5.421   1.794  13.158  0.0759 -0.3549  0.0226
16329TIP3    H170478   5.355   1.853  13.121  0.8916  0.0348 -0.8447
16329TIP3    H270479   5.373   1.742  13.223 -0.9092  0.4601 -0.0282
16330TIP3   OH270480   5.918   6.819  14.939  0.5190 -0.0033  0.7629
16330TIP3    H170481   5.878   6.797  15.023  1.2261 -0.6792  0.9361
16330TIP3    H270482   5.953   6.907  14.951  0.0099  0.1771  0.9461
16331TIP3   OH270483   0.511   3.714   2.164  0.0733 -0.0329 -0.0819
16331TIP3    H170484   0.446   3.785   2.158  0.8863  0.6941 -0.4712
16331TIP3    H270485   0.513   3.691   2.257  1.0307  1.6517  0.3579
16332TIP3   OH270486   5.456   4.912   4.235 -0.5958 -0.5073 -0.0916
16332TIP3    H170487   5.360   4.912   4.236 -0.7229 -0.3462 -3.3047
16332TIP3    H270488   5.480   5.005   4.244 -0.6270 -0.6250  1.6525
16333TIP3   OH270489   3.898   3.373  14.839  0.1239 -0.4522  0.2338
16333TIP3    H170490   3.882   3.432  14.912  1.3242 -0.0193  0.1613
16333TIP3    H270491   3.848   3.294  14.862 -3.3646  1.2471 -0.7074
16334TIP3   OH270492   6.204   4.904  12.858  0.2413 -0.7698 -0.2684
16334TIP3    H170493   6.250   4.875  12.937 -0.3912  1.7043  1.1006
16334TIP3    H270494   6.135   4.962  12.890 -0.1551  0.1850 -2.6521
16335TIP3   OH270495   3.113   1.127  12.853  0.1610 -0.3072  0.3942
16335TIP3    H170496   3.083   1.137  12.943 -2.4125  1.5736 -0.5526
16335TIP3    H270497   3.071   1.047  12.822  0.5966 -0.6503  0.6786
16336TIP3   OH270498   2.978   1.674   0.677  0.6528 -0.3410  0.4494
16336TIP3    H170499   2.892   1.664   0.637  1.2729  0.6636 -1.2824
16336TIP3    H270500   2.968   1.748   0.737 -0.2275 -1.6945  2.0441
16337TIP3   OH270501   3.123   1.731  15.691 -0.5357  0.1330 -0.5490
16337TIP3    H170502   3.093   1.718  15.781  1.3319 -3.5853 -0.2693
16337TIP3    H270503   3.192   1.797  15.698 -1.5173  1.0921  0.4362
16338TIP3   OH270504   5.674   3.200   1.769 -0.2626 -0.0463  0.2333
16338TIP3    H170505   5.701   3.290   1.753  0.2669 -0.1443  0.5636
16338TIP3    H270506   5.579   3.200   1.752 -0.1814  0.4532 -0.2527
16339TIP3   OH270507   5.454   3.028  10.586  0.6341 -0.0254 -0.1152
16339TIP3    H170508   5.448   3.095  10.518 -0.5361 -0.3493 -0.3669
16339TIP3    H270509   5.430   2.947  10.542  0.8193 -0.4034  0.4651
16340TIP3   OH270510   6.037   5.353   4.235 -0.8344 -0.8056 -0.3599
16340TIP3    H170511   5.979   5.278   4.226 -2.6057  0.0966  2.2114
16340TIP3    H270512   6.064   5.351   4.327 -1.1028  1.7729 -0.1474
16341TIP3   OH270513   6.413   0.247   3.863 -0.1118 -0.0462 -0.3806
16341TIP3    H170514   6.378   0.178   3.918 -1.5189  1.6878  1.0205
16341TIP3    H270515   6.483   0.286   3.915  1.5580 -1.1550 -1.6833
16342TIP3   OH270516   2.209   6.423   6.240 -0.5334  0.1926 -0.1660
16342TIP3    H170517   2.255   6.441   6.158  0.4629  0.7437  0.4911
16342TIP3    H270518   2.205   6.508   6.284 -2.2315  0.1589 -0.2145
16343TIP3   OH270519   1.603   3.762  11.188  0.3657 -0.2429  0.6301
16343TIP3    H170520   1.528   3.732  11.135  0.5653  2.4562 -1.4029
16343TIP3    H270521   1.676   3.764  11.126  2.0130 -2.0267  2.3809
16344TIP3   OH270522   4.667   4.320  15.002  0.2963 -0.4630 -0.2811
16344TIP3    H170523   4.577   4.290  15.012 -0.8490  2.2820 -1.4649
16344TIP3    H270524   4.682   4.320  14.908  1.3154 -0.2854 -0.1338
16345TIP3   OH270525   1.811   1.101   3.293  0.3052  0.5511 -0.5596
16345TIP3    H170526   1.871   1.160   3.339 -0.0595 -0.2371  0.9936
16345TIP3    H270527   1.726   1.117   3.334 -0.3105  0.7314 -1.8586
16346TIP3   OH270528   5.581   4.306  16.990 -0.3515 -0.1037 -0.0455
16346TIP3    H170529   5.606   4.221  16.953  0.6636  0.6124 -1.0855
16346TIP3    H270530   5.619   4.306  17.078  0.9848 -0.1580 -0.5867
16347TIP3   OH270531   1.374   4.180   1.894  0.5305 -0.1627  0.2357
16347TIP3    H170532   1.384   4.147   1.983  1.4242 -0.9549 -0.1293
16347TIP3    H270533   1.434   4.126   1.842  1.3083  1.3761 -0.5665
16348TIP3   OH270534   4.690   1.395   4.517 -0.1748  0.1193  0.1134
16348TIP3    H170535   4.732   1.457   4.458 -0.0865 -0.6889 -0.6940
16348TIP3    H270536   4.646   1.332   4.459  0.0141 -0.7608  0.8963
16349TIP3   OH270537   3.027   2.730   4.217 -0.7287  0.1280 -0.2124
16349TIP3    H170538   3.110   2.744   4.262 -0.8205  2.2433 -0.6272
16349TIP3    H270539   2.985   2.658   4.266  1.1682 -0.7668  0.1814
16350TIP3   OH270540   0.221   4.258  11.415  0.7819  0.0420  0.3792
16350TIP3    H170541   0.187   4.347  11.404  1.9794  0.4784  0.0852
16350TIP3    H270542   0.143   4.202  11.416 -0.0393  1.1687  1.4126
16351TIP3   OH270543   5.875   6.742  14.418  0.5620 -0.2041 -0.2018
16351TIP3    H170544   5.963   6.718  14.450  0.4888  0.5563  0.6152
16351TIP3    H270545   5.818   6.726  14.494  0.2093  0.6061 -0.2933
16352TIP3   OH270546   6.414   4.251   2.774 -0.3470  0.3422  0.4013
16352TIP3    H170547   6.348   4.197   2.730  0.8865 -0.0237 -1.0654
16352TIP3    H270548   6.379   4.340   2.769 -1.2821  0.0051  0.7239
16353TIP3   OH270549   3.059   5.399   6.154 -0.1596  0.1130 -0.2339
16353TIP3    H170550   3.055   5.457   6.078  0.1617 -0.4130 -0.6608
16353TIP3    H270551   2.969   5.394   6.185 -0.2704  0.4513 -0.4914
16354TIP3   OH270552   6.074   2.563   2.231  0.3391 -0.1638  0.4120
16354TIP3    H170553   6.039   2.612   2.157  0.7557 -0.5250 -0.0325
16354TIP3    H270554   6.074   2.472   2.201  0.5125 -0.3114  0.8557
16355TIP3   OH270555   0.157   2.517  12.191 -0.8511 -0.6852 -0.4571
16355TIP3    H170556   0.145   2.469  12.273 -2.1076  0.1002 -0.1456
16355TIP3    H270557   0.095   2.590  12.197  0.7313  0.7815 -1.0657
16356TIP3   OH270558   0.655   3.535  13.416  0.6353  0.1676 -0.3075
16356TIP3    H170559   0.651   3.445  13.449  0.9118  0.7156  1.3275
16356TIP3    H270560   0.604   3.585  13.479 -0.9981  0.9284 -2.1576
16357TIP3   OH270561   0.937   1.957   0.202  0.1697  0.0134  0.0198
16357TIP3    H170562   0.942   1.978   0.108  1.2701  0.5136  0.1769
16357TIP3    H270563   0.991   2.024   0.244 -2.7162  1.7324  1.3515
16358TIP3   OH270564   4.343   1.494   4.507 -0.1525 -0.3781  0.1359
16358TIP3    H170565   4.399   1.493   4.585  0.8740  0.4375 -0.5594
16358TIP3    H270566   4.315   1.585   4.499 -3.2082 -1.0873  1.5420
16359TIP3   OH270567   2.688   6.747  14.348 -0.6343  0.3192 -0.1168
16359TIP3    H170568   2.663   6.837  14.328  1.9049  0.8975 -1.0735
16359TIP3    H270569   2.680   6.701  14.264  0.4179  0.2607 -0.1876
16360TIP3   OH270570   0.091   3.837   0.183  0.4199 -0.4132  0.3209
16360TIP3    H170571   0.024   3.846   0.250  0.4790 -1.8070  0.5943
16360TIP3    H270572   0.146   3.765   0.213 -0.0589 -1.6675 -1.6263
16361TIP3   OH270573   4.110   0.320  15.626  0.8806  0.4994  0.0163
16361TIP3    H170574   4.179   0.268  15.585  1.5331 -0.9344  2.6804
16361TIP3    H270575   4.152   0.361  15.702 -0.8349  0.8218  0.8473
16362TIP3   OH270576   0.887   3.828   2.286  0.0607 -0.2505  0.4012
16362TIP3    H170577   0.932   3.798   2.365  0.5863  0.5142  0.3951
16362TIP3    H270578   0.956   3.855   2.227 -0.2946 -1.4023 -0.5924
16363TIP3   OH270579   4.251   2.977  16.843 -0.0427  0.3843 -0.2809
16363TIP3    H170580   4.344   2.973  16.863 -0.5281 -1.2066  2.0605
16363TIP3    H270581   4.235   2.901  16.788  0.3215  1.7710 -2.4252
16364TIP3   OH270582   4.792   6.104  12.813 -0.0973  0.3332  0.3903
16364TIP3    H170583   4.882   6.135  12.819 -0.3824  1.3867 -0.4839
16364TIP3    H270584   4.800   6.010  12.800  0.8090  0.0828  2.4293
16365TIP3   OH270585   2.485   5.488   4.971  0.2901  0.3357 -0.3438
16365TIP3    H170586   2.501   5.399   4.941 -0.2881 -0.2147  0.9042
16365TIP3    H270587   2.567   5.534   4.955  0.7105 -0.5151 -0.6957
16366TIP3   OH270588   2.501   0.747   1.379 -0.9317 -0.0955 -0.0028
16366TIP3    H170589   2.445   0.804   1.432  1.1822  0.2443  2.0554
16366TIP3    H270590   2.452   0.665   1.372 -1.6841  0.1392  1.8137
16367TIP3   OH270591   1.340   0.793  13.666  0.0421 -0.0258  0.1411
16367TIP3    H170592   1.355   0.887  13.665 -0.4056  0.0469  0.0991
16367TIP3    H270593   1.257   0.782  13.713 -0.6021 -0.2851 -1.0025
16368TIP3   OH270594   5.778   0.112  13.549  0.1159  0.0990  0.1790
16368TIP3    H170595   5.770   0.094  13.642 -0.9275 -1.7007 -0.1998
16368TIP3    H270596   5.858   0.066  13.522 -0.2114 -0.3787 -0.0029
16369TIP3   OH270597   2.963   4.567  15.472  0.2144  0.1693  0.2103
16369TIP3    H170598   3.045   4.532  15.506  0.5786 -0.5313 -1.3305
16369TIP3    H270599   2.934   4.503  15.407  0.4058  2.2025 -2.0126
16370TIP3   OH270600   4.106   0.252   2.678  0.1704 -0.2099  0.4017
16370TIP3    H170601   4.012   0.271   2.678  0.1742 -0.1876  0.0629
16370TIP3    H270602   4.132   0.257   2.586  0.7925  1.2356  0.6236
16371TIP3   OH270603   6.028   1.857  15.856  0.3161  0.2469 -0.0630
16371TIP3    H170604   6.025   1.854  15.952  0.2136  1.3195 -0.0292
16371TIP3    H270605   6.118   1.830  15.835  0.3311 -0.0265  0.3245
16372TIP3   OH270606   2.396   5.870  11.186 -0.1883  0.5598 -0.3022
16372TIP3    H170607   2.397   5.894  11.094 -0.3248 -1.4650 -0.8868
16372TIP3    H270608   2.470   5.810  11.196 -1.5220 -1.0559  0.3512
16373TIP3   OH270609   4.462   1.421  16.789  0.0329  0.2079  0.2315
16373TIP3    H170610   4.465   1.331  16.756 -1.5754 -0.2331  1.1198
16373TIP3    H270611   4.541   1.429  16.843  1.8561  0.4319 -2.3103
16374TIP3   OH270612   5.503   2.755  15.139 -0.4855 -0.0512  0.2318
16374TIP3    H170613   5.534   2.700  15.067 -0.8919  0.9976 -0.7675
16374TIP3    H270614   5.582   2.783  15.184 -0.2697 -1.4555  0.7830
16375TIP3   OH270615   2.053   4.615   3.030  0.6270 -0.1044  0.8291
16375TIP3    H170616   2.121   4.559   3.068  1.1151  1.2222  2.0508
16375TIP3    H270617   2.099   4.697   3.011 -0.4411  0.5071  0.8367
16376TIP3   OH270618   6.320   4.690   2.246  0.6424 -0.4127 -0.1539
16376TIP3    H170619   6.253   4.713   2.311  0.0594  0.2498 -0.9764
16376TIP3    H270620   6.400   4.680   2.298  0.2973  0.6426  0.6196
16377TIP3   OH270621   5.228   6.397   0.257 -0.1960 -0.0485  0.4066
16377TIP3    H170622   5.254   6.305   0.254 -1.1428 -0.3280  0.2682
16377TIP3    H270623   5.145   6.400   0.209  0.3947  1.0864 -0.5827
16378TIP3   OH270624   5.056   1.594  14.354  0.3456  0.7690  0.4108
16378TIP3    H170625   4.983   1.627  14.303  0.7307  0.6581 -0.2255
16378TIP3    H270626   5.027   1.508  14.384 -1.0306  1.9918  2.8583
16379TIP3   OH270627   4.199   3.290   0.100  0.4660 -0.2627 -0.1529
16379TIP3    H170628   4.198   3.328   0.187 -1.9171 -0.8065  0.1114
16379TIP3    H270629   4.232   3.360   0.044  1.0909  0.4106  1.0171
16380TIP3   OH270630   5.857   4.603  13.707  0.6943  0.3734  1.0461
16380TIP3    H170631   5.910   4.574  13.632 -0.6009  1.8200 -0.5335
16380TIP3    H270632   5.816   4.524  13.740 -0.3029 -0.0731 -1.1156
16381TIP3   OH270633   3.958   4.175   4.157 -0.5644 -0.2178  0.2656
16381TIP3    H170634   4.016   4.196   4.084 -1.4261 -1.7749 -0.9285
16381TIP3    H270635   3.985   4.234   4.227 -0.2917  1.9780 -1.5835
16382TIP3   OH270636   0.118   1.092   4.958 -0.6773 -0.0881  0.8824
16382TIP3    H170637   0.072   1.173   4.978 -0.4598  0.8454 -1.9260
16382TIP3    H270638   0.049   1.029   4.938 -0.8244  0.3166  0.0706
16383TIP3   OH270639   2.450   6.592  14.844 -0.0913 -0.3224 -0.4236
16383TIP3    H170640   2.472   6.667  14.899 -0.4595 -0.7381  0.3053
16383TIP3    H270641   2.493   6.610  14.760  1.0152  0.0196  0.1996
16384TIP3   OH270642   6.127   5.816   0.970  0.4901 -0.5315 -0.3802
16384TIP3    H170643   6.048   5.813   0.916  0.5247  0.0706 -0.4665
16384TIP3    H270644   6.176   5.891   0.937 -0.5932  1.3456  1.9850
16385TIP3   OH270645   5.145   4.605  16.330  0.4489 -0.0191  0.2601
16385TIP3    H170646   5.201   4.571  16.400 -0.9268 -1.0411  0.9315
16385TIP3    H270647   5.147   4.536  16.263  0.7492  0.3776 -0.1397
16386TIP3   OH270648   3.107   5.153   3.390  0.6092  0.4981  0.4428
16386TIP3    H170649   3.185   5.164   3.444  1.0913 -0.9110  0.0778
16386TIP3    H270650   3.108   5.228   3.330 -0.0038  2.1574  2.3826
16387TIP3   OH270651   6.026   6.254   4.080  0.4260 -0.2745  0.2562
16387TIP3    H170652   6.006   6.165   4.107 -0.0956 -0.2410 -0.0042
16387TIP3    H270653   6.101   6.279   4.133  0.4570 -0.8010  0.4657
16388TIP3   OH270654   1.398   1.852  16.577 -0.2868 -0.0640 -0.2582
16388TIP3    H170655   1.477   1.856  16.524 -0.0703  1.6345  0.1182
16388TIP3    H270656   1.357   1.769  16.553  0.0869  0.3647 -2.6426
16389TIP3   OH270657   5.096   5.772   6.206 -0.3157  0.4114 -0.2994
16389TIP3    H170658   5.033   5.842   6.226 -0.7327 -0.4409  1.5502
16389TIP3    H270659   5.042   5.694   6.194  0.3222 -0.1381  0.3374
16390TIP3   OH270660   5.196   5.977  13.627  0.1727  0.2687  0.2425
16390TIP3    H170661   5.139   5.940  13.695 -1.1704  0.1014 -0.9359
16390TIP3    H270662   5.138   5.995  13.553  1.6204  0.2817 -0.9473
16391TIP3   OH270663   6.575   4.484  14.291 -0.5402  0.0163 -0.2557
16391TIP3    H170664   6.644   4.523  14.236  1.9599 -1.9485  1.2500
16391TIP3    H270665   6.602   4.393  14.302 -4.5920 -1.5316 -1.2950
16392TIP3   OH270666   2.575   6.217  11.753  0.3685 -0.2793  0.1918
16392TIP3    H170667   2.569   6.274  11.677  0.8083 -0.6266 -0.1047
16392TIP3    H270668   2.524   6.262  11.821  0.0082  0.0499 -0.2905
16393TIP3   OH270669   3.303   5.664   4.386 -0.0876  0.4414 -0.2918
16393TIP3    H170670   3.208   5.662   4.397  0.0947 -0.6045  1.5780
16393TIP3    H270671   3.336   5.700   4.468  1.1870 -0.9168 -0.1669
16394TIP3   OH270672   3.455   6.419   2.896  0.5583  0.1920 -0.0184
16394TIP3    H170673   3.435   6.491   2.956  1.1814 -0.4330  0.9601
16394TIP3    H270674   3.379   6.362   2.900 -2.4771  3.1884 -4.7382
16395TIP3   OH270675   4.962   0.947   4.737  0.2617 -0.6241  0.0131
16395TIP3    H170676   4.911   0.893   4.676 -0.4443  0.2997 -0.2420
16395TIP3    H270677   4.896   0.982   4.798  0.9861 -1.7427  1.4857
16396TIP3   OH270678   0.007   6.729   5.083  0.3214 -0.4507  0.7604
16396TIP3    H170679  -0.080   6.766   5.095  0.2507  0.0561 -1.0721
16396TIP3    H270680   0.067   6.801   5.105  0.1878  1.3548 -3.8351
16397TIP3   OH270681   0.150   5.159  11.185 -0.4572 -0.4827  0.3005
16397TIP3    H170682   0.189   5.208  11.257 -0.6647 -0.3419  0.3181
16397TIP3    H270683   0.205   5.082  11.176  0.7766  0.4650 -0.6920
16398TIP3   OH270684   0.762   5.246   5.208  0.2959 -0.4323 -0.7937
16398TIP3    H170685   0.832   5.214   5.151  0.4892 -0.4038 -0.5724
16398TIP3    H270686   0.706   5.170   5.223  0.6042 -0.5986 -0.4913
16399TIP3   OH270687   4.036   4.381  17.052 -0.3688  0.4783 -0.3631
16399TIP3    H170688   4.099   4.367  17.123 -1.1020 -0.6568  0.1052
16399TIP3    H270689   4.076   4.340  16.976 -0.8044 -0.8684  0.0970
16400TIP3   OH270690   0.794   4.150  10.582 -0.1793 -0.3928 -0.4590
16400TIP3    H170691   0.861   4.189  10.638 -1.2469 -1.0846  1.3656
16400TIP3    H270692   0.843   4.088  10.528  0.9053  0.4278 -0.4768
16401TIP3   OH270693   5.462   5.967  12.842  0.0191  0.4860 -0.0596
16401TIP3    H170694   5.451   5.988  12.935  0.0122 -1.0330  0.3095
16401TIP3    H270695   5.552   5.938  12.834 -1.0282 -3.4271  0.3972
16402TIP3   OH270696   1.693   0.125  14.791 -0.1508  0.0512  0.3052
16402TIP3    H170697   1.773   0.168  14.761  0.0684 -0.2590  0.4446
16402TIP3    H270698   1.631   0.197  14.803  0.0499  0.2749  0.0221
16403TIP3   OH270699   3.173   5.376  14.022  0.0117  0.2270  0.1964
16403TIP3    H170700   3.110   5.323  13.974 -0.4830 -0.8797  1.9840
16403TIP3    H270701   3.236   5.405  13.956 -1.2789 -0.2351 -1.2944
16404TIP3   OH270702   1.799   4.363   4.330  0.3454  0.0140 -0.3435
16404TIP3    H170703   1.786   4.268   4.340 -0.6316  0.2254  0.5241
16404TIP3    H270704   1.894   4.373   4.318  0.4093 -1.1044 -0.9052
16405TIP3   OH270705   5.471   2.426  12.629  0.1540 -0.4542  0.1288
16405TIP3    H170706   5.510   2.491  12.571  0.3836 -0.5662  0.1550
16405TIP3    H270707   5.463   2.470  12.713  0.3949 -0.4885  0.1700
16406TIP3   OH270708   2.642   6.271  13.568  0.2423 -0.0481 -0.0033
16406TIP3    H170709   2.665   6.201  13.507  1.0736 -0.2668  0.5358
16406TIP3    H270710   2.708   6.264  13.637 -1.7793 -1.0420  1.9331
16407TIP3   OH270711   1.091   6.767  16.455  0.0825  0.1420  0.2614
16407TIP3    H170712   1.098   6.862  16.451 -0.5863  0.1716 -0.3796
16407TIP3    H270713   1.172   6.735  16.413  0.8778  0.4081  1.5563
16408TIP3   OH270714   6.679   1.374  16.414  0.2964 -0.1189  0.2235
16408TIP3    H170715   6.699   1.321  16.337 -1.7680  1.0603 -1.2068
16408TIP3    H270716   6.670   1.310  16.485  1.7794 -1.2669 -0.5466
16409TIP3   OH270717   4.252   2.073   1.447 -0.0566  0.1862 -0.2074
16409TIP3    H170718   4.297   1.989   1.459  0.7444  0.5320 -0.7176
16409TIP3    H270719   4.166   2.059   1.486  0.4673 -0.5060  0.7508
16410TIP3   OH270720   6.104   4.993   0.560 -0.4537  0.4140  0.1818
16410TIP3    H170721   6.125   4.900   0.571  0.3561  0.5373 -0.2345
16410TIP3    H270722   6.010   4.998   0.577 -0.2290 -0.2158  1.8674
16411TIP3   OH270723   2.396   3.538  12.458 -0.1292  0.0075  0.0579
16411TIP3    H170724   2.443   3.585  12.389  0.5287 -1.6290 -0.6539
16411TIP3    H270725   2.419   3.584  12.539 -1.3686  2.3329 -0.8098
16412TIP3   OH270726   2.050   0.847  15.575 -0.1525 -0.2071 -0.4500
16412TIP3    H170727   1.958   0.863  15.554 -0.8916 -1.4791  1.4892
16412TIP3    H270728   2.075   0.921  15.632 -0.2614 -0.3187 -0.2548
16413TIP3   OH270729   1.942   2.733  12.794 -0.2179  0.1079 -0.4491
16413TIP3    H170730   2.005   2.725  12.865 -0.2428  0.3915 -0.3930
16413TIP3    H270731   1.972   2.808  12.742 -0.3849  0.1101 -0.5466
16414TIP3   OH270732   6.054   5.061  12.290  0.5977  0.2519 -0.2544
16414TIP3    H170733   6.148   5.046  12.302  0.9174  0.2628 -2.4084
16414TIP3    H270734   6.049   5.120  12.215 -1.1308  0.4395 -0.0152
16415TIP3   OH270735   4.509   4.271   5.712  0.5893  0.4248  0.3080
16415TIP3    H170736   4.536   4.360   5.689  2.6709 -0.0246  0.7975
16415TIP3    H270737   4.468   4.236   5.633  0.5506  1.5145 -0.1635
16416TIP3   OH270738   2.661   4.532   1.635 -0.3481  0.0374  0.6332
16416TIP3    H170739   2.626   4.443   1.640 -0.4065  0.0621  0.6679
16416TIP3    H270740   2.753   4.523   1.659 -0.4326  0.0372  0.9527
16417TIP3   OH270741   1.270   2.409   1.079  0.2647  0.1376  0.3901
16417TIP3    H170742   1.228   2.482   1.125  0.2108  0.4787 -0.1959
16417TIP3    H270743   1.265   2.432   0.987  0.0212 -0.7292  0.1759
16418TIP3   OH270744   3.883   4.982  12.672  0.4665  0.4149 -0.0608
16418TIP3    H170745   3.865   5.050  12.607 -0.6240 -0.0336 -0.2464
16418TIP3    H270746   3.843   4.903  12.635  0.2822  0.0409  0.9160
16419TIP3   OH270747   1.847   1.201   4.869 -0.2914 -0.1652 -0.6325
16419TIP3    H170748   1.792   1.269   4.830 -0.3412 -0.5450 -1.2412
16419TIP3    H270749   1.785   1.133   4.895 -0.3275  0.3486  0.7066
16420TIP3   OH270750   1.306   6.144  15.691 -0.1182 -0.3144 -0.0316
16420TIP3    H170751   1.254   6.135  15.771 -0.5107  3.8378  0.3938
16420TIP3    H270752   1.386   6.094  15.709 -0.2178  0.4095  2.9854
16421TIP3   OH270753   5.206   0.545  15.921 -0.1505 -0.2658 -0.1467
16421TIP3    H170754   5.238   0.457  15.944  1.8929  0.7827  1.3644
16421TIP3    H270755   5.285   0.591  15.892 -1.4314  0.7084 -2.2367
16422TIP3   OH270756   1.247   0.828  16.933 -0.4003 -0.6596  0.1552
16422TIP3    H170757   1.337   0.850  16.957  1.2717 -1.4875 -4.3727
16422TIP3    H270758   1.196   0.903  16.963  1.9885  0.4788  1.7383
16423TIP3   OH270759   1.118   1.373  10.493 -0.1216  0.0192 -0.6177
16423TIP3    H170760   1.174   1.383  10.570  2.1944  0.6804 -2.2789
16423TIP3    H270761   1.135   1.283  10.464 -2.0808 -0.7238  0.3731
16424TIP3   OH270762   2.907   3.650   0.934 -0.3213 -0.6637  0.3124
16424TIP3    H170763   2.959   3.726   0.959  1.0022 -0.8549 -1.6165
16424TIP3    H270764   2.949   3.576   0.978 -1.7281 -0.3150  2.3479
16425TIP3   OH270765   2.776   0.569  12.879 -0.2159  0.1984 -0.3798
16425TIP3    H170766   2.744   0.503  12.940 -0.6845 -0.6138 -1.4631
16425TIP3    H270767   2.845   0.525  12.829 -0.4852  0.5402 -1.0728
16426TIP3   OH270768   3.715   2.949   4.241 -0.1221 -0.2816  0.5320
16426TIP3    H170769   3.776   2.912   4.177  1.8825 -0.2284  2.3408
16426TIP3    H270770   3.636   2.896   4.231  0.8604 -1.6220 -0.5599
16427TIP3   OH270771   3.377   5.166   0.859 -0.0874  0.2923 -0.0631
16427TIP3    H170772   3.352   5.197   0.946  0.3320 -1.1892  0.6186
16427TIP3    H270773   3.462   5.207   0.842  1.2618 -1.6827  1.5417
16428TIP3   OH270774   1.011   6.029   0.350  0.3940 -0.5660  0.0978
16428TIP3    H170775   1.032   6.005   0.259  1.0726 -0.3819  0.1966
16428TIP3    H270776   0.977   5.949   0.389  2.1337 -1.2555  0.2738
16429TIP3   OH270777   4.974   4.898  15.553  0.5125  0.0817  0.1162
16429TIP3    H170778   5.047   4.958  15.569  1.5651 -0.9935 -0.4896
16429TIP3    H270779   4.950   4.867  15.640  0.5327  0.7112  0.3558
16430TIP3   OH270780   2.172   0.921   4.028 -0.5304  0.1370  0.8116
16430TIP3    H170781   2.221   0.921   3.946 -0.8034  0.7701  0.6449
16430TIP3    H270782   2.191   0.836   4.067  0.4525  0.2548  0.6056
16431TIP3   OH270783   5.042   2.926   3.515 -0.0334 -0.7629  0.2912
16431TIP3    H170784   5.031   2.981   3.592  3.9300  1.3152 -0.3669
16431TIP3    H270785   5.096   2.852   3.545 -1.1773 -1.7135  0.1051
16432TIP3   OH270786   5.943   4.473  12.266 -0.0021 -0.8730 -0.1536
16432TIP3    H170787   5.979   4.562  12.259  0.1820 -0.9982 -0.8658
16432TIP3    H270788   5.959   4.449  12.358 -1.0397  0.2273  0.3512
16433TIP3   OH270789   0.109   2.132   6.280 -0.2450 -0.2473 -0.0520
16433TIP3    H170790   0.054   2.204   6.251  0.1324 -0.6933 -2.0399
16433TIP3    H270791   0.080   2.057   6.227 -0.4076 -1.4973  1.7177
16434TIP3   OH270792   5.801   2.831  14.405  0.0775 -0.0122  0.8975
16434TIP3    H170793   5.710   2.803  14.411 -0.2711  0.4018 -1.4688
16434TIP3    H270794   5.849   2.752  14.379 -0.3614  0.6779 -2.2944
16435TIP3   OH270795   6.061   1.729  16.347  0.0790 -0.2575  0.1301
16435TIP3    H170796   6.097   1.678  16.274  0.5378 -1.5462  1.2202
16435TIP3    H270797   5.978   1.686  16.368 -0.3876  0.5289 -0.0494
16436TIP3   OH270798   0.909   3.977  15.696 -0.1211  0.6635 -0.7496
16436TIP3    H170799   0.958   3.926  15.631  0.6497  2.0520 -1.2943
16436TIP3    H270800   0.819   3.978  15.662 -0.0263  0.1829 -1.0295
16437TIP3   OH270801   4.114   4.991  10.713  0.5266 -0.5586 -0.8748
16437TIP3    H170802   4.134   4.990  10.807 -3.5864 -0.0591  0.2412
16437TIP3    H270803   4.050   4.920  10.702 -1.8850  1.6507 -2.3867
16438TIP3   OH270804   1.043   1.311   1.802  0.4103  0.2058 -0.1384
16438TIP3    H170805   0.989   1.390   1.810  1.0029  0.6312 -0.2256
16438TIP3    H270806   1.007   1.265   1.726 -0.6214 -0.1616  0.5477
16439TIP3   OH270807   6.167   1.089  14.666 -0.0475 -0.4452  0.4521
16439TIP3    H170808   6.086   1.072  14.618 -1.5947  2.6723  1.7172
16439TIP3    H270809   6.168   1.023  14.735 -0.6600 -1.4550 -0.4601
16440TIP3   OH270810   1.954   6.808   1.352 -0.3976 -0.7671  0.7992
16440TIP3    H170811   1.962   6.713   1.350  1.5930 -0.7199 -2.8907
16440TIP3    H270812   2.032   6.838   1.399  2.0061 -1.0663 -2.5906
16441TIP3   OH270813   6.237   0.118  14.922  0.3127  0.2161  0.6210
16441TIP3    H170814   6.329   0.092  14.923  0.4303  0.5503 -0.3770
16441TIP3    H270815   6.194   0.058  14.983  0.8708 -1.2305 -0.3446
16442TIP3   OH270816   1.547   6.498   4.056 -0.3068  0.4979 -0.0643
16442TIP3    H170817   1.534   6.498   4.150 -0.5477  0.9984 -0.0937
16442TIP3    H270818   1.596   6.418   4.038 -1.2438 -0.1786  0.3494
16443TIP3   OH270819   6.260   1.869   3.868  0.5373  0.3686  0.3919
16443TIP3    H170820   6.299   1.953   3.892  1.7817  0.0265 -0.3754
16443TIP3    H270821   6.329   1.823   3.821 -0.0103 -1.2450  1.1139
16444TIP3   OH270822   4.396   6.002  13.773 -0.5655 -0.1276  0.5032
16444TIP3    H170823   4.375   5.909  13.775 -1.1014 -0.0046  1.6067
16444TIP3    H270824   4.481   6.009  13.815 -0.4335 -0.1344  0.2402
16445TIP3   OH270825   1.989   2.817   4.056 -0.1447  0.1248  0.2490
16445TIP3    H170826   2.016   2.765   4.132  0.9858 -0.0506 -0.2556
16445TIP3    H270827   2.072   2.846   4.016 -0.7309  0.6039 -0.6543
16446TIP3   OH270828   0.755   0.607   1.077  0.1548 -0.2232  0.5745
16446TIP3    H170829   0.763   0.515   1.052 -0.1211 -0.1783  0.3156
16446TIP3    H270830   0.762   0.607   1.172 -0.8153 -0.6270  0.6588
16447TIP3   OH270831   3.056   3.469   7.636  0.8223 -0.0244  0.2028
16447TIP3    H170832   3.027   3.469   7.545  1.2627  1.7757  0.0285
16447TIP3    H270833   2.976   3.490   7.686  0.6935 -0.5071  0.2123
16448TIP3   OH270834   2.559   1.048  16.233 -0.1017 -0.0370  0.3428
16448TIP3    H170835   2.561   1.090  16.319 -0.4835 -0.0383  0.3549
16448TIP3    H270836   2.476   1.078  16.194  1.1804  1.9743 -1.0398
16449TIP3   OH270837   2.416   3.342   1.509 -0.0522 -0.9781  0.7140
16449TIP3    H170838   2.439   3.347   1.602  0.6299 -0.4387  0.5285
16449TIP3    H270839   2.490   3.296   1.469  0.8617  0.9518  0.0661
16450TIP3   OH270840   3.319   5.579  12.255  0.1283  0.1875  0.4671
16450TIP3    H170841   3.254   5.630  12.305 -0.5550 -0.9694  0.7943
16450TIP3    H270842   3.299   5.488  12.275  1.0218 -0.2441 -0.4891
16451TIP3   OH270843   6.639   1.049   1.634  0.2279 -0.1269  0.3469
16451TIP3    H170844   6.722   1.049   1.682 -0.3502 -2.4628  1.4905
16451TIP3    H270845   6.641   0.968   1.583 -2.1073 -1.3149  1.9457
16452TIP3   OH270846   5.740   1.229   0.986  0.7660  0.3930  0.2483
16452TIP3    H170847   5.806   1.291   1.019  3.3102 -1.5803 -0.7719
16452TIP3    H270848   5.710   1.267   0.903  0.1609  1.5669  0.9731
16453TIP3   OH270849   1.600   1.995  16.774 -0.4204 -0.0490  0.3158
16453TIP3    H170850   1.555   2.028  16.696  0.2112  0.3089  0.0988
16453TIP3    H270851   1.677   1.950  16.741 -0.0001  0.3434  0.7410
16454TIP3   OH270852   3.323   0.632  16.203 -0.1319 -0.2321 -0.0338
16454TIP3    H170853   3.354   0.557  16.254  0.0664 -0.1474 -0.0302
16454TIP3    H270854   3.385   0.639  16.131 -1.1523 -1.1765 -1.0559
16455TIP3   OH270855   2.097   3.483   4.436 -0.1676 -0.3832  0.4068
16455TIP3    H170856   2.164   3.512   4.498 -1.0708  1.7409  0.4816
16455TIP3    H270857   2.129   3.511   4.351 -0.2361 -0.7928  0.2431
16456TIP3   OH270858   5.329   5.785  16.945 -1.2280 -0.3119  0.3398
16456TIP3    H170859   5.351   5.783  16.852  0.9171  2.1113  0.6819
16456TIP3    H270860   5.314   5.693  16.968  1.7284 -1.4557 -1.6476
16457TIP3   OH270861   0.453   4.991  16.478  0.1742  0.9345 -0.1760
16457TIP3    H170862   0.491   4.917  16.526 -0.9613  0.9146  0.7422
16457TIP3    H270863   0.378   4.953  16.431  0.2014  1.3028 -0.5222
16458TIP3   OH270864   6.788   3.165  16.577 -0.0316  0.5605  0.4108
16458TIP3    H170865   6.746   3.116  16.507  2.3793 -1.7292  0.3919
16458TIP3    H270866   6.838   3.234  16.532 -1.7402  1.7872  0.2832
16459TIP3   OH270867   5.176   0.853  14.485  0.0942  0.0686  0.4401
16459TIP3    H170868   5.159   0.920  14.419 -1.2691 -1.1880 -0.5487
16459TIP3    H270869   5.205   0.777  14.435  0.9188 -0.3182  1.4747
16460TIP3   OH270870   5.786   2.868   4.395  0.5114  0.1625 -0.0657
16460TIP3    H170871   5.856   2.832   4.449  0.4861  0.1930 -0.0124
16460TIP3    H270872   5.800   2.963   4.397  0.8683  0.1223 -0.6067
16461TIP3   OH270873   1.220   6.625   0.903 -0.5249  0.6995 -0.3848
16461TIP3    H170874   1.126   6.643   0.908 -1.2535 -2.4799 -0.5001
16461TIP3    H270875   1.225   6.532   0.881  2.6621  0.5868  0.3697
16462TIP3   OH270876   0.935   6.624  13.340  0.2213 -0.2185  0.3170
16462TIP3    H170877   0.889   6.624  13.424  0.9293  1.5739  0.7670
16462TIP3    H270878   0.866   6.644  13.275 -0.0165  0.3040  0.7198
16463TIP3   OH270879   1.195   0.422   6.246 -0.1987  0.3306  0.4045
16463TIP3    H170880   1.266   0.358   6.255 -0.2374  0.2126 -0.0900
16463TIP3    H270881   1.124   0.386   6.300 -0.2659 -0.1205  0.0291
16464TIP3   OH270882   4.574   2.054  15.230  0.2679 -0.0372 -0.5331
16464TIP3    H170883   4.649   2.003  15.200 -0.0004 -1.5791  1.2438
16464TIP3    H270884   4.498   2.003  15.202 -0.0290 -0.0809  0.3238
16465TIP3   OH270885   3.651   4.379   2.671 -0.5147 -0.1761  0.1776
16465TIP3    H170886   3.665   4.297   2.718 -0.4679 -0.4554 -0.3165
16465TIP3    H270887   3.711   4.441   2.712 -0.1978 -0.5172  0.2349
16466TIP3   OH270888   5.941   1.731  12.887  0.2771 -0.1422  0.4629
16466TIP3    H170889   5.999   1.656  12.899 -1.7253 -1.9906 -0.6221
16466TIP3    H270890   5.870   1.698  12.831 -1.3178  2.2457  0.9043
16467TIP3   OH270891   3.332   4.144  12.916 -0.2221  0.1415  0.2191
16467TIP3    H170892   3.395   4.179  12.979 -0.3738  0.8176  0.0000
16467TIP3    H270893   3.269   4.215  12.903 -0.3774 -0.1120 -0.4443
16468TIP3   OH270894   1.547   4.136   6.628 -0.1068  0.3678 -0.1269
16468TIP3    H170895   1.552   4.230   6.646 -1.6619  0.6948 -1.2458
16468TIP3    H270896   1.461   4.123   6.588 -0.1387 -1.6282  0.4709
16469TIP3   OH270897   4.142   4.500   5.635  0.2276  0.0076 -0.3357
16469TIP3    H170898   4.088   4.504   5.556 -1.6667  0.4690  0.8946
16469TIP3    H270899   4.227   4.532   5.608 -1.1737  3.0649 -1.5900
16470TIP3   OH270900   0.923   1.234   4.057  0.0064 -0.0352  0.4677
16470TIP3    H170901   0.860   1.298   4.089 -0.3084 -0.5921  0.9829
16470TIP3    H270902   1.008   1.274   4.074 -0.1933  0.5578  0.1157
16471TIP3   OH270903   5.051   3.867   4.424 -0.5312 -0.6449  0.4782
16471TIP3    H170904   5.019   3.942   4.374  0.8088  0.5788  1.3620
16471TIP3    H270905   4.985   3.853   4.491 -0.3041  0.4575  0.9588
16472TIP3   OH270906   6.509   0.384  16.296 -0.3424  0.3340 -0.0921
16472TIP3    H170907   6.452   0.329  16.350  1.0164  0.3592  1.4801
16472TIP3    H270908   6.578   0.412  16.357  1.0137  0.7564 -1.7683
16473TIP3   OH270909   6.236   0.889  11.744  0.6770 -0.1785  0.0105
16473TIP3    H170910   6.245   0.981  11.719 -0.2072 -0.2352 -0.5340
16473TIP3    H270911   6.209   0.892  11.836 -0.9001  0.1573 -0.4449
16474TIP3   OH270912   2.622   0.656  16.136  0.1232 -0.4062 -0.4401
16474TIP3    H170913   2.644   0.592  16.203 -2.4745  0.2018  1.0993
16474TIP3    H270914   2.688   0.725  16.146 -0.3690 -0.1819  1.7411
16475TIP3   OH270915   6.732   3.129  15.658 -0.2124 -0.2051 -0.4872
16475TIP3    H170916   6.747   3.075  15.580 -0.5158  0.1321 -0.7834
16475TIP3    H270917   6.703   3.067  15.724  1.4675 -0.7200 -0.1889
16476TIP3   OH270918   4.814   5.910   3.218  0.4092 -0.3432 -0.3735
16476TIP3    H170919   4.727   5.891   3.253  0.6001  1.0756  0.9660
16476TIP3    H270920   4.799   5.929   3.125 -0.8523  0.6977  0.0104
16477TIP3   OH270921   3.151   4.656  16.089 -0.1170 -0.2443 -0.1132
16477TIP3    H170922   3.060   4.653  16.118 -0.0088 -1.4098  0.1386
16477TIP3    H270923   3.182   4.743  16.115 -1.2233  0.2556 -0.4201
16478TIP3   OH270924   4.581   2.970  16.293  0.4772  0.3686  0.2863
16478TIP3    H170925   4.610   3.049  16.247  0.1092  0.9386  1.0267
16478TIP3    H270926   4.651   2.953  16.356  1.1100 -0.5668 -0.6283
16479TIP3   OH270927   1.856   5.865  14.156 -0.3597  0.5396  0.5600
16479TIP3    H170928   1.871   5.940  14.099  0.5126  1.3270  1.7695
16479TIP3    H270929   1.785   5.817  14.115  1.3089  0.1364 -2.0862
16480TIP3   OH270930   5.756   4.089  10.996  0.4825 -0.3884 -0.0015
16480TIP3    H170931   5.785   4.143  11.069 -2.9628 -0.4483  1.6307
16480TIP3    H270932   5.776   4.140  10.918  1.5115  1.0785  1.1684
16481TIP3   OH270933   2.263   4.118   5.565  0.0214  0.0978 -0.3416
16481TIP3    H170934   2.198   4.117   5.635 -0.0924  0.8471 -0.4323
16481TIP3    H270935   2.343   4.151   5.606 -0.1026  0.7442 -0.6063
16482TIP3   OH270936   5.275   6.432  16.083  0.4639 -0.5338 -0.5771
16482TIP3    H170937   5.363   6.393  16.082  0.5398 -0.3607 -0.6018
16482TIP3    H270938   5.235   6.404  16.001  0.4224 -0.7794 -0.4761
16483TIP3   OH270939   4.597   4.234   5.052 -0.0744  0.5059 -0.2530
16483TIP3    H170940   4.632   4.154   5.014  0.7943  1.1385 -0.8248
16483TIP3    H270941   4.587   4.215   5.145  0.2807 -0.2099 -0.3571
16484TIP3   OH270942   0.250   3.196  11.623 -0.5843 -0.6651  0.0020
16484TIP3    H170943   0.205   3.239  11.551  2.2868 -0.4036 -1.7769
16484TIP3    H270944   0.179   3.159  11.677 -3.0390  3.1000 -0.2940
16485TIP3   OH270945   6.125   6.818   3.223 -0.2473 -0.2648 -0.9769
16485TIP3    H170946   6.129   6.745   3.285 -0.5584  0.4615 -0.0922
16485TIP3    H270947   6.124   6.896   3.277 -0.7024  0.3859 -1.8954
16486TIP3   OH270948   2.614   0.032   4.566  0.1508 -0.7805  0.3031
16486TIP3    H170949   2.705   0.044   4.594  0.7584  2.8054 -2.4436
16486TIP3    H270950   2.621  -0.006   4.478 -1.2100 -2.7545  0.9807
16487TIP3   OH270951   3.034   1.425  14.458 -1.1932 -0.1441  0.1735
16487TIP3    H170952   3.029   1.442  14.364  0.0419  1.4745  0.3648
16487TIP3    H270953   3.009   1.508  14.499 -1.2176 -0.6756  1.2746
16488TIP3   OH270954   1.501   3.016  16.691  0.6640 -0.1516  0.1403
16488TIP3    H170955   1.561   2.946  16.717  2.7443  0.2177 -3.1622
16488TIP3    H270956   1.446   2.977  16.623 -1.2264  0.2787  1.3363
16489TIP3   OH270957   6.528   4.956   1.595  0.3004  0.4338 -0.1060
16489TIP3    H170958   6.556   4.870   1.626  0.4997  0.7094  0.5073
16489TIP3    H270959   6.435   4.946   1.579 -0.3857  0.8806  2.9396
16490TIP3   OH270960   0.382   0.335   5.286  0.7181  0.1586  0.3962
16490TIP3    H170961   0.313   0.283   5.327 -1.1896  1.6340 -0.7350
16490TIP3    H270962   0.335   0.401   5.236  2.9830  0.8456 -0.9830
16491TIP3   OH270963   2.734   6.705   3.542 -0.0634 -0.4913  0.2465
16491TIP3    H170964   2.795   6.768   3.503  1.5726 -1.8758  0.4224
16491TIP3    H270965   2.771   6.688   3.629 -1.3022 -0.6125  0.7641
16492TIP3   OH270966   1.946   3.716  16.866  0.2863  0.0293 -0.2607
16492TIP3    H170967   1.885   3.742  16.936 -0.7505 -1.6263 -0.4762
16492TIP3    H270968   1.924   3.773  16.792 -0.5970 -0.1401 -0.1388
16493TIP3   OH270969   2.165   0.862  17.104 -0.1924 -0.2103 -0.4584
16493TIP3    H170970   2.218   0.783  17.106 -1.1949 -0.8882  0.8272
16493TIP3    H270971   2.172   0.893  17.014  2.8500  0.0992 -0.2080
16494TIP3   OH270972   3.251   0.299   4.125 -0.1430 -0.3497  0.3714
16494TIP3    H170973   3.286   0.211   4.142  1.4148 -0.3001 -2.0516
16494TIP3    H270974   3.270   0.349   4.204  0.5165 -1.7447  1.1279
16495TIP3   OH270975   0.116   1.243   3.590 -0.2016 -0.2580 -0.4946
16495TIP3    H170976   0.102   1.162   3.639 -0.1866  1.3669  2.4192
16495TIP3    H270977   0.070   1.310   3.641 -1.1420  1.4465 -3.3796
16496TIP3   OH270978   2.706   0.550  14.722  0.1159 -0.0049 -0.2886
16496TIP3    H170979   2.627   0.604  14.724  0.8544  1.1240  1.3570
16496TIP3    H270980   2.724   0.532  14.815  1.1430 -1.2283 -0.6979
16497TIP3   OH270981   1.745   1.818  15.918 -0.2475 -0.1926 -0.5300
16497TIP3    H170982   1.724   1.875  15.992 -2.5213 -0.8087 -0.6393
16497TIP3    H270983   1.834   1.844  15.893 -0.6384  2.2657  0.3370
16498TIP3   OH270984   6.260   1.859  11.311  0.1213 -0.6402  0.6321
16498TIP3    H170985   6.284   1.851  11.219  2.2467 -0.1621  1.0931
16498TIP3    H270986   6.172   1.895  11.310 -0.8820 -2.8702 -1.2124
16499TIP3   OH270987   1.843   0.831   2.137  0.0294 -0.3633  0.0274
16499TIP3    H170988   1.830   0.869   2.224 -1.8031  1.3891 -0.9291
16499TIP3    H270989   1.821   0.902   2.076  4.0602 -0.4961 -1.9774
16500TIP3   OH270990   4.651   0.407  10.899 -0.1357 -0.2558  0.0315
16500TIP3    H170991   4.650   0.502  10.904  0.5498 -0.2343 -0.1570
16500TIP3    H270992   4.644   0.388  10.805  1.7093 -0.3397 -0.1164
16501TIP3   OH270993   1.242   3.543   4.237 -0.1498  0.0249 -0.2642
16501TIP3    H170994   1.180   3.567   4.306  0.4653  0.8057  0.0318
16501TIP3    H270995   1.301   3.480   4.279  1.7761  2.3647  0.7449
16502TIP3   OH270996   4.874   3.180   2.451 -0.1930  0.3392  0.3669
16502TIP3    H170997   4.782   3.178   2.477 -0.4002  0.1492 -0.3582
16502TIP3    H270998   4.893   3.091   2.422 -0.0270  0.5849 -0.3005
16503TIP3   OH270999   2.502   1.352   4.533 -0.1928 -0.2106 -0.2485
16503TIP3    H171000   2.513   1.447   4.523 -0.1526 -0.4008 -2.5315
16503TIP3    H271001   2.590   1.316   4.524 -0.3440 -0.5305 -0.4701
16504TIP3   OH271002   4.530   1.422   2.551 -0.6301  0.4913 -0.3909
16504TIP3    H171003   4.516   1.506   2.595 -1.0883  0.8735 -1.2392
16504TIP3    H271004   4.462   1.418   2.484 -2.2654 -1.7192  1.2749
16505TIP3   OH271005   6.133   2.232   3.572  0.1000  0.2178  0.4012
16505TIP3    H171006   6.173   2.296   3.631  0.4478  0.0423  0.3561
16505TIP3    H271007   6.109   2.284   3.495  3.2304 -0.1905 -1.0020
16506TIP3   OH271008   1.409   1.712   3.468 -0.9174 -0.7382 -0.4495
16506TIP3    H171009   1.361   1.718   3.551 -0.5008 -0.9126 -0.1917
16506TIP3    H271010   1.356   1.654   3.414 -2.0209  0.6399 -0.8978
16507TIP3   OH271011   1.411   5.397  12.723  0.5232 -0.3611  0.4191
16507TIP3    H171012   1.317   5.404  12.738  0.3501  1.7760 -1.1622
16507TIP3    H271013   1.447   5.479  12.758  1.7841 -1.0463  0.7864
16508TIP3   OH271014   1.307   6.519  10.699 -0.0351 -0.4248  0.0701
16508TIP3    H171015   1.390   6.491  10.739 -0.5866  0.0226  1.5937
16508TIP3    H271016   1.318   6.613  10.684  0.4413 -0.7095 -1.6028
16509TIP3   OH271017   0.764   3.591   5.054  0.0877 -0.3834 -0.1411
16509TIP3    H171018   0.715   3.542   4.988 -0.9253 -0.1471  0.4277
16509TIP3    H271019   0.757   3.538   5.133  0.7404 -0.3359 -0.0476
16510TIP3   OH271020   5.615   5.765  16.785  0.3817  0.2307 -0.1703
16510TIP3    H171021   5.656   5.849  16.807 -1.3304  0.8400  0.8842
16510TIP3    H271022   5.597   5.724  16.869  0.5605 -0.9127 -0.6627
16511TIP3   OH271023   5.967   1.571   1.996  0.2637 -0.1556 -0.1023
16511TIP3    H171024   6.020   1.648   1.979  0.6781 -0.5221 -0.5217
16511TIP3    H271025   5.970   1.522   1.914 -0.2085 -0.4890  0.0740
16512TIP3   OH271026   1.320   1.406   3.720 -0.7074 -0.1720 -0.0455
16512TIP3    H171027   1.232   1.390   3.753 -0.8614  1.4852  0.4414
16512TIP3    H271028   1.317   1.378   3.628 -1.8786  0.2828 -0.1625
16513TIP3   OH271029   4.916   1.395   2.703 -0.0430 -0.3066 -0.3779
16513TIP3    H171030   4.869   1.416   2.783 -0.7522  1.2701 -1.1496
16513TIP3    H271031   5.006   1.421   2.720 -0.2757  0.4046 -0.2174
16514TIP3   OH271032   1.082   1.093  13.967  0.2262  0.6636 -0.3189
16514TIP3    H171033   1.029   1.017  13.945  1.1562 -0.3030  0.6622
16514TIP3    H271034   1.107   1.130  13.882 -0.5688  0.1257 -0.8018
16515TIP3   OH271035   1.925   4.301  12.592 -0.4880 -0.0735  0.3962
16515TIP3    H171036   1.887   4.385  12.566  0.1028 -0.1759 -0.8935
16515TIP3    H271037   1.876   4.236  12.542  0.3399 -0.3253 -0.1092
16516TIP3   OH271038   5.585   2.579  13.206  0.0006 -0.5461 -0.2704
16516TIP3    H171039   5.577   2.496  13.254 -0.5031 -0.5216 -0.3138
16516TIP3    H271040   5.495   2.605  13.187  0.0834  0.6422  0.8284
16517TIP3   OH271041   4.925   2.205  14.624  0.2729 -0.5008  0.2242
16517TIP3    H171042   4.875   2.239  14.551  1.1586  0.5200  0.0629
16517TIP3    H271043   4.882   2.241  14.702  1.2812  1.1826  0.0502
16518TIP3   OH271044   4.550   6.815  13.063 -0.0212 -0.2928 -0.3924
16518TIP3    H171045   4.527   6.727  13.033  1.1176 -0.3242 -1.2379
16518TIP3    H271046   4.487   6.872  13.019 -0.2534 -0.6117 -0.4790
16519TIP3   OH271047   1.723   5.257  12.730 -0.4177 -0.0658 -0.3447
16519TIP3    H171048   1.640   5.214  12.707 -1.0358  0.3936  0.9310
16519TIP3    H271049   1.697   5.330  12.785  0.8099  0.4925 -0.4865
16520TIP3   OH271050   4.399   6.422   4.486  0.5727  0.2366 -1.0126
16520TIP3    H171051   4.477   6.398   4.537  1.1663  1.2799 -1.3915
16520TIP3    H271052   4.359   6.338   4.463  1.9968 -0.3558 -1.4333
16521TIP3   OH271053   0.984   3.924   3.668  0.1475  0.0542  0.0717
16521TIP3    H171054   0.972   3.894   3.758  1.3087 -0.4430  0.0745
16521TIP3    H271055   0.953   3.852   3.614 -2.0822  0.9677  0.0213
16522TIP3   OH271056   1.336   4.843   5.233 -0.3358  0.4826  0.1466
16522TIP3    H171057   1.386   4.765   5.257 -0.0657 -0.1863 -2.3585
16522TIP3    H271058   1.357   4.907   5.301  0.7037 -1.0870  1.3695
16523TIP3   OH271059   0.641   5.877  11.470  0.1640  0.1686 -0.4342
16523TIP3    H171060   0.638   5.869  11.565  0.7177 -0.4972 -0.4724
16523TIP3    H271061   0.703   5.810  11.442  1.7678  1.8336 -1.0881
16524TIP3   OH271062   2.418   0.366  16.414 -0.0636 -0.2671  0.8980
16524TIP3    H171063   2.463   0.359  16.330 -0.7011 -2.2747  0.6734
16524TIP3    H271064   2.363   0.288  16.419 -0.8695  0.3499  2.7101
16525TIP3   OH271065   6.487   3.648  16.659 -0.2950  0.4181 -0.4400
16525TIP3    H171066   6.575   3.625  16.687 -0.5831 -2.1492 -1.3500
16525TIP3    H271067   6.440   3.668  16.740  1.1545  2.1778  0.0244
16526TIP3   OH271068   3.427   3.076  16.370 -0.2034  0.1503 -0.5127
16526TIP3    H171069   3.434   2.996  16.422  1.5893  0.1627 -0.6545
16526TIP3    H271070   3.421   3.146  16.436  0.7159  0.0606 -0.3117
16527TIP3   OH271071   1.306   6.620   4.446  0.3455  0.1556  0.3737
16527TIP3    H171072   1.393   6.582   4.437  0.0315 -0.4708 -0.0333
16527TIP3    H271073   1.322   6.715   4.444  0.9326  0.0552 -0.6147
16528TIP3   OH271074   3.003   2.399  11.238  0.3541 -0.2366  0.1502
16528TIP3    H171075   3.055   2.475  11.212  2.5563 -1.4723  0.7211
16528TIP3    H271076   2.974   2.361  11.155 -0.9824  1.2796 -0.1460
16529TIP3   OH271077   5.693   0.703  16.898  0.0724  0.0654 -0.0506
16529TIP3    H171078   5.656   0.661  16.820 -0.7485  1.2551 -0.3236
16529TIP3    H271079   5.724   0.630  16.951 -0.0254 -0.8078 -1.1523
16530TIP3   OH271080   3.124   4.320   3.795 -0.2305 -0.5440 -0.2528
16530TIP3    H171081   3.113   4.394   3.735 -1.5550 -1.0152 -0.6293
16530TIP3    H271082   3.126   4.360   3.882  0.7915  0.0648 -0.5438
16531TIP3   OH271083   0.586   1.353  14.180 -0.8037 -0.0556  0.0050
16531TIP3    H171084   0.655   1.306  14.133 -0.7841 -0.0882  0.0670
16531TIP3    H271085   0.607   1.341  14.273 -0.6572  0.2831  0.0190
16532TIP3   OH271086   5.182   6.790   3.132  0.0739  0.1342 -0.9971
16532TIP3    H171087   5.123   6.796   3.056 -2.5618  1.9373  1.0152
16532TIP3    H271088   5.228   6.873   3.133 -1.7962  1.2193  0.7128
16533TIP3   OH271089   2.137   5.888  16.464  0.3005  0.3329 -0.1579
16533TIP3    H171090   2.205   5.954  16.450 -0.9964  1.1855 -3.3611
16533TIP3    H271091   2.183   5.812  16.500  2.8639  1.0861 -1.6228
16534TIP3   OH271092   4.443   6.469   5.238 -0.0816 -0.0347 -0.0522
16534TIP3    H171093   4.453   6.531   5.311 -1.7931 -0.6581  0.7740
16534TIP3    H271094   4.490   6.391   5.267 -1.1479 -0.4499  0.6513
16535TIP3   OH271095   5.727   6.379  13.394 -0.3650  0.8491 -0.2324
16535TIP3    H171096   5.796   6.429  13.351 -1.7662  1.2941 -2.1218
16535TIP3    H271097   5.703   6.312  13.330  0.8340 -1.7661  1.8571
16536TIP3   OH271098   3.095   5.885   2.171 -0.4208 -0.0391  0.5345
16536TIP3    H171099   3.041   5.818   2.129 -1.8897  0.9715  0.7401
16536TIP3    H271100   3.120   5.847   2.255  0.7652 -1.2430 -0.3285
16537TIP3   OH271101   1.058   6.806  12.061  0.0661 -0.2238  0.2581
16537TIP3    H171102   0.980   6.780  12.012  1.2935 -0.8081 -1.4704
16537TIP3    H271103   1.047   6.900  12.075 -1.7066 -0.5784  1.5307
16538TIP3   OH271104   0.514   6.453  11.784  0.0149 -0.4043  0.1310
16538TIP3    H171105   0.487   6.539  11.816 -0.4946  0.3181 -2.0228
16538TIP3    H271106   0.433   6.405  11.771  0.1385 -0.3918 -0.7488
16539TIP3   OH271107   2.659   3.799   2.553  0.1612  0.5225  0.6426
16539TIP3    H171108   2.736   3.852   2.533  1.4880 -1.7032 -0.5703
16539TIP3    H271109   2.689   3.739   2.623 -0.3177 -0.5846 -0.0704
16540TIP3   OH271110   2.201   5.144  16.285  0.1094 -0.1525  0.0928
16540TIP3    H171111   2.294   5.161  16.271  0.2377 -1.0765 -0.2207
16540TIP3    H271112   2.199   5.072  16.348 -0.4144  0.4521  0.7870
16541TIP3   OH271113   0.879   5.917   2.087 -0.0190  0.2357 -0.2301
16541TIP3    H171114   0.970   5.945   2.097 -0.4022  0.8687  2.2141
16541TIP3    H271115   0.859   5.933   1.995  1.8593  1.5889 -0.4692
16542TIP3   OH271116   1.012   5.492  14.913  0.4820 -0.0838 -0.3336
16542TIP3    H171117   0.985   5.413  14.959 -0.7024  0.2347 -0.4550
16542TIP3    H271118   0.976   5.483  14.825 -3.0924  2.2563  0.6699
16543TIP3   OH271119   0.641   3.266  15.559 -0.5700  0.0260 -0.3506
16543TIP3    H171120   0.673   3.313  15.636 -0.0225  1.5207 -1.4513
16543TIP3    H271121   0.578   3.203  15.594  1.0428 -0.6723  1.5340
16544TIP3   OH271122   4.195   5.535  10.598  0.3890  0.0674 -0.0080
16544TIP3    H171123   4.169   5.448  10.566  0.4450 -0.1495  0.5304
16544TIP3    H271124   4.251   5.517  10.674 -0.7343  0.5844  0.9739
16545TIP3   OH271125   3.896   3.066  14.963  0.1390 -0.8816 -0.0445
16545TIP3    H171126   3.944   3.079  15.044  0.4092 -1.1081 -0.1653
16545TIP3    H271127   3.812   3.028  14.990  0.1175 -0.6985  0.1493
16546TIP3   OH271128   1.819   6.005   3.156 -0.1581  0.4191 -0.3182
16546TIP3    H171129   1.772   5.936   3.204 -0.1110  0.5451 -0.0894
16546TIP3    H271130   1.806   5.983   3.064  0.2931 -0.1942 -0.2450
16547TIP3   OH271131   3.949   2.519  13.276  0.1905  0.1971  0.3501
16547TIP3    H171132   3.900   2.437  13.285 -0.6989  0.6444 -0.2711
16547TIP3    H271133   3.992   2.512  13.191 -0.7284  0.7926 -0.1831
16548TIP3   OH271134   1.840   5.466   5.662 -0.1092 -0.4969  0.2932
16548TIP3    H171135   1.769   5.402   5.669 -2.4274  2.0587  2.4006
16548TIP3    H271136   1.806   5.534   5.604 -0.6851  2.0602  3.3237
16549TIP3   OH271137   5.029   2.271  11.318  0.3928 -0.1323  0.5745
16549TIP3    H171138   5.024   2.180  11.289  0.4782 -0.0523  0.3018
16549TIP3    H271139   4.940   2.294  11.343 -0.5308  0.9141 -3.0724
16550TIP3   OH271140   2.556   4.642  11.664 -0.1360  0.2474  0.4170
16550TIP3    H171141   2.537   4.723  11.618 -1.9916  0.1310  0.9005
16550TIP3    H271142   2.544   4.663  11.756  0.3235 -0.3357  0.6150
16551TIP3   OH271143   1.335   5.669  14.042  0.4366 -0.0269 -0.1322
16551TIP3    H171144   1.274   5.657  13.969  0.0313  0.4084  0.1341
16551TIP3    H271145   1.289   5.634  14.118  1.2011 -1.2842 -0.2229
16552TIP3   OH271146   5.682   6.273   5.798 -0.2033 -0.2284 -0.0576
16552TIP3    H171147   5.607   6.311   5.843  0.9333 -0.5253  2.2071
16552TIP3    H271148   5.645   6.203   5.745 -1.7068  0.7650 -0.3828
16553TIP3   OH271149   5.890   0.176   4.471  0.4615 -0.5583 -0.0871
16553TIP3    H171150   5.973   0.204   4.509  1.7954 -0.4778 -2.8143
16553TIP3    H271151   5.862   0.250   4.417  0.3629 -1.7575 -1.7838
16554TIP3   OH271152   5.417   1.791   0.003 -0.1229  0.1994 -0.0160
16554TIP3    H171153   5.503   1.801  -0.037 -0.0396  0.3928  0.2066
16554TIP3    H271154   5.435   1.789   0.097 -0.3571  0.1967  0.0291
16555TIP3   OH271155   5.141   1.168   1.113 -0.2000  0.4503  0.2428
16555TIP3    H171156   5.117   1.087   1.157  2.8230  0.0649  1.4075
16555TIP3    H271157   5.152   1.143   1.021 -1.3171  0.0663  0.1952
16556TIP3   OH271158   2.309   3.727   3.936  0.2077 -0.0756 -0.5124
16556TIP3    H171159   2.278   3.806   3.979  0.7168  0.3561 -0.9116
16556TIP3    H271160   2.253   3.719   3.858 -2.2976 -2.1571  1.3329
16557TIP3   OH271161   1.870   3.678  11.300  0.3554 -0.0354 -0.1143
16557TIP3    H171162   1.800   3.735  11.333  0.6983 -0.5277  1.5945
16557TIP3    H271163   1.942   3.738  11.280  0.3128  0.2597  0.5665
16558TIP3   OH271164   4.160   1.877  12.547 -0.5504  0.1592  0.3792
16558TIP3    H171165   4.148   1.827  12.466  0.4832  0.0759  0.2611
16558TIP3    H271166   4.094   1.946  12.543  0.1326  0.7778 -1.0297
16559TIP3   OH271167   0.983   6.682  14.717 -0.1661  0.0023 -0.2911
16559TIP3    H171168   0.924   6.690  14.792  0.5092 -0.0628  0.2529
16559TIP3    H271169   1.071   6.695  14.753  0.0604  2.0918 -1.3950
16560TIP3   OH271170   0.858   0.394  14.048  0.1316  0.1110 -0.5260
16560TIP3    H171171   0.840   0.302  14.064 -1.2171  0.4928  0.3260
16560TIP3    H271172   0.813   0.414  13.966 -0.5953  0.2717 -0.1017
16561TIP3   OH271173   3.659   2.748   4.427 -0.3846  0.2779  0.0012
16561TIP3    H171174   3.598   2.682   4.395 -0.2967  0.5823 -0.8204
16561TIP3    H271175   3.745   2.706   4.423 -0.2508  0.6159 -1.0838
16562TIP3   OH271176   3.314   1.900  12.082 -0.6696  0.3837 -0.1475
16562TIP3    H171177   3.224   1.895  12.052 -1.1996  1.2583  1.1877
16562TIP3    H271178   3.355   1.819  12.051 -2.5259 -1.1333  1.1789
16563TIP3   OH271179   1.486   0.729   3.586 -0.9629  0.0040  0.3951
16563TIP3    H171180   1.534   0.755   3.664 -1.5355 -0.3932  0.8837
16563TIP3    H271181   1.463   0.812   3.543  0.9611  0.1939 -0.3646
16564TIP3   OH271182   2.517   2.955  12.432 -0.1037  0.0354 -0.0635
16564TIP3    H171183   2.439   2.986  12.480 -1.7185  0.2055 -2.6152
16564TIP3    H271184   2.552   2.886  12.487 -2.8956 -1.0013  0.6163
16565TIP3   OH271185   3.572   0.564  12.166  0.0903  0.0612 -0.1307
16565TIP3    H171186   3.492   0.611  12.143  0.9293  1.0842 -1.0654
16565TIP3    H271187   3.617   0.550  12.083 -0.1948 -2.6180  0.0709
16566TIP3   OH271188   0.938   0.774   5.479  0.2554  0.5288 -0.4055
16566TIP3    H171189   1.024   0.743   5.507 -0.8053 -2.9192 -0.4850
16566TIP3    H271190   0.877   0.735   5.542 -1.3776  1.5788 -1.2641
16567TIP3   OH271191   0.621   0.778  15.011  0.4674  0.4128 -0.0966
16567TIP3    H171192   0.710   0.790  14.977  0.8432  1.1371  1.0847
16567TIP3    H271193   0.634   0.747  15.101 -0.4113  2.4454  0.8087
16568TIP3   OH271194   0.470   1.011  16.664  0.1777  0.3492  0.5018
16568TIP3    H171195   0.529   1.016  16.590  0.8136 -0.6327  0.9292
16568TIP3    H271196   0.523   1.036  16.739  0.2517 -1.1504  0.9816
16569TIP3   OH271197   2.613   3.866  12.174  0.0230 -0.0424  0.7768
16569TIP3    H171198   2.528   3.907  12.157  0.6351  1.0057  0.1009
16569TIP3    H271199   2.652   3.920  12.243  1.0035  0.8274 -0.3944
16570TIP3   OH271200   2.811   1.801   4.087 -0.0945 -0.3897  0.2084
16570TIP3    H171201   2.803   1.716   4.131 -2.0247  0.3388  1.3862
16570TIP3    H271202   2.876   1.786   4.018 -1.4839 -3.2721 -0.6666
16571TIP3   OH271203   3.812   4.775   4.916 -0.1902  0.1243  0.4211
16571TIP3    H171204   3.751   4.839   4.953 -2.2613 -1.7691  0.4710
16571TIP3    H271205   3.806   4.789   4.821 -0.0381  0.5122  0.4666
16572TIP3   OH271206   5.827   4.196  16.333  0.0031  0.0552 -0.2180
16572TIP3    H171207   5.860   4.108  16.354 -3.1352 -1.2972 -0.2689
16572TIP3    H271208   5.885   4.228  16.265  1.8342 -1.5665  0.4812
16573TIP3   OH271209   3.135   5.466  15.864 -0.4164  1.0174  0.0612
16573TIP3    H171210   3.226   5.435  15.867 -1.0497 -1.3375 -1.7983
16573TIP3    H271211   3.083   5.386  15.871 -2.2766  2.0202 -1.4522
16574TIP3   OH271212   0.572   3.856  16.573  0.4289 -0.2545 -0.2427
16574TIP3    H171213   0.553   3.798  16.499  0.3602 -0.3984 -0.1131
16574TIP3    H271214   0.653   3.821  16.611 -0.6186 -1.4451  1.0013
16575TIP3   OH271215   2.685   1.738   5.593  0.7080  0.2022 -0.2191
16575TIP3    H171216   2.735   1.683   5.653 -0.6488 -0.1058  0.6959
16575TIP3    H271217   2.689   1.691   5.509  1.2958 -0.2054  0.0291
16576TIP3   OH271218   1.641   3.110  14.397 -0.1417  0.5743 -0.0242
16576TIP3    H171219   1.672   3.122  14.487 -1.5512 -1.6669  0.8335
16576TIP3    H271220   1.719   3.085  14.348  0.1757 -0.9833  1.2171
16577TIP3   OH271221   6.102   2.085   0.307  0.1412  0.5350  0.2468
16577TIP3    H171222   6.181   2.078   0.254 -0.6823 -0.1872 -0.9291
16577TIP3    H271223   6.129   2.055   0.394  0.8741 -0.8822 -0.4432
16578TIP3   OH271224   4.479   2.934   0.348  0.7869 -0.4906 -0.1202
16578TIP3    H171225   4.529   2.879   0.409  2.7760 -0.1447 -1.3438
16578TIP3    H271226   4.469   3.017   0.394  0.7120 -0.7839  0.4078
16579TIP3   OH271227   1.297   3.737   4.623 -0.2037 -0.2230  0.0260
16579TIP3    H171228   1.219   3.782   4.657  0.5894 -0.2411  1.9993
16579TIP3    H271229   1.369   3.796   4.642  0.5631 -1.2749  0.4760
16580TIP3   OH271230   3.880   0.385  15.510 -0.0822  0.3147  0.6264
16580TIP3    H171231   3.901   0.298  15.475  1.0622  1.2994 -1.3079
16580TIP3    H271232   3.936   0.393  15.587 -1.2098 -1.1589  1.6510
16581TIP3   OH271233   3.225   2.994  13.336 -0.3640  0.3945 -0.1987
16581TIP3    H171234   3.200   3.049  13.410  0.5268 -1.0935  1.2630
16581TIP3    H271235   3.317   3.015  13.320 -0.0399 -0.6201  0.3236
16582TIP3   OH271236   4.243   4.808  15.767 -0.6182  0.1641 -0.2968
16582TIP3    H171237   4.326   4.850  15.747 -0.1487 -0.3090  0.6272
16582TIP3    H271238   4.201   4.866  15.830 -0.3293 -0.3205  0.3559
16583TIP3   OH271239   4.734   0.784  12.108 -0.3627  0.2431 -0.5751
16583TIP3    H171240   4.741   0.698  12.066 -0.7673  0.3760 -0.9288
16583TIP3    H271241   4.707   0.765  12.198  0.2212 -0.0318 -0.4521
16584TIP3   OH271242   4.535   4.036  11.264  0.0540  0.0930  0.1227
16584TIP3    H171243   4.541   4.125  11.297  2.0916  0.1419 -0.2749
16584TIP3    H271244   4.597   3.986  11.318  0.1687 -0.7345 -0.7446
16585TIP3   OH271245   5.766   6.822   4.577 -0.2532  0.0041 -0.2257
16585TIP3    H171246   5.812   6.815   4.661  0.1645  0.2263 -0.4327
16585TIP3    H271247   5.823   6.876   4.523  0.2087 -1.3302 -1.1477
16586TIP3   OH271248   2.190   4.021  15.372  0.1412 -0.2147  0.0645
16586TIP3    H171249   2.283   4.011  15.393  0.5247  2.9458  0.4035
16586TIP3    H271250   2.145   4.009  15.455  0.5062  0.6243  0.3917
16587TIP3   OH271251   3.218   5.171   1.094  0.1268  0.4229  0.0093
16587TIP3    H171252   3.255   5.105   1.152 -0.8156  0.3438  0.5399
16587TIP3    H271253   3.139   5.131   1.058  0.6154  0.5271 -1.2256
16588TIP3   OH271254   0.782   0.079  17.120 -0.0771 -0.1719 -0.5080
16588TIP3    H171255   0.824   0.145  17.176  1.0755  0.4398 -2.0300
16588TIP3    H271256   0.843   0.005  17.121 -0.7682 -0.7452  0.1973
16589TIP3   OH271257   3.421   6.101   4.721  0.1671 -0.2124 -0.2319
16589TIP3    H171258   3.492   6.165   4.730  0.3323 -0.2575 -1.0832
16589TIP3    H271259   3.392   6.084   4.810  3.0413 -2.2294  0.4441
16590TIP3   OH271260   0.244   3.826  16.126  0.2171 -0.2048  0.1569
16590TIP3    H171261   0.207   3.864  16.046  2.6471  0.3186 -0.7954
16590TIP3    H271262   0.200   3.873  16.197  0.0230  1.3068 -0.9224
16591TIP3   OH271263   1.213   4.391  16.731  0.3276 -0.3711 -0.5196
16591TIP3    H171264   1.262   4.314  16.761 -1.5510 -0.7009  2.0122
16591TIP3    H271265   1.172   4.363  16.649  2.0602 -1.0039 -1.2168
16592TIP3   OH271266   0.635   1.352   6.119 -0.0253  0.1591  0.3622
16592TIP3    H171267   0.552   1.349   6.168  0.3852  0.7219  1.1142
16592TIP3    H271268   0.635   1.271   6.067 -0.4401 -0.5029  1.3618
16593TIP3   OH271269   5.543   5.014  13.610  0.1189  0.0769  0.3630
16593TIP3    H171270   5.600   5.069  13.555  0.0353  1.3719  1.5346
16593TIP3    H271271   5.604   4.966  13.666  0.2520 -1.8560 -1.3402
16594TIP3   OH271272   6.081   1.895   5.935  0.4114 -0.3932  0.6311
16594TIP3    H171273   6.090   1.804   5.906 -0.3094 -0.4087  0.4521
16594TIP3    H271274   6.168   1.918   5.966  0.6881 -1.0348  0.3553
16595TIP3   OH271275   3.484   3.283  16.544 -0.1794  0.0173  0.0446
16595TIP3    H171276   3.522   3.217  16.602  0.9771  0.3040 -0.3491
16595TIP3    H271277   3.499   3.367  16.589 -1.8624  0.0302  0.6600
16596TIP3   OH271278   5.339   5.739  15.475 -0.1023 -1.0533 -0.4930
16596TIP3    H171279   5.370   5.661  15.521 -2.7447 -1.6881  0.3924
16596TIP3    H271280   5.324   5.803  15.545 -1.2831 -0.9834 -0.7960
16597TIP3   OH271281   1.408   0.451   3.903  0.4102  0.0016  0.5675
16597TIP3    H171282   1.386   0.492   3.986  2.5157  0.9871  0.6899
16597TIP3    H271283   1.369   0.507   3.837 -0.0673 -0.0059  0.8393
16598TIP3   OH271284   3.805   0.723  14.502 -0.2438 -0.4550 -0.5150
16598TIP3    H171285   3.816   0.628  14.503 -2.4794 -0.8155 -1.9918
16598TIP3    H271286   3.782   0.744  14.411 -2.8219  1.0424  0.3694
16599TIP3   OH271287   4.662   4.786   4.680 -0.1605  0.2967 -0.0059
16599TIP3    H171288   4.567   4.772   4.681 -0.1096 -0.0441  0.2901
16599TIP3    H271289   4.683   4.812   4.770 -0.1773  1.8353 -0.4080
16600TIP3   OH271290   5.121   5.652   4.704  0.0098  0.0983  0.4972
16600TIP3    H171291   5.135   5.690   4.617 -1.7832 -0.2751  0.0063
16600TIP3    H271292   5.128   5.558   4.691  0.0520  0.0536  0.8355
16601TIP3   OH271293   2.525   1.747  13.607  0.4893  0.4149 -0.4307
16601TIP3    H171294   2.441   1.711  13.638  2.1637 -1.8197  1.9781
16601TIP3    H271295   2.562   1.676  13.555  0.8498  1.4712 -1.6542
16602TIP3   OH271296   6.169   6.586  15.528  0.3499 -0.4070 -0.0966
16602TIP3    H171297   6.117   6.665  15.538  0.2235 -0.5806  0.7091
16602TIP3    H271298   6.120   6.519  15.575  1.4823 -0.4782  1.0384
16603TIP3   OH271299   1.499   5.062  15.819  0.3799  0.0126 -0.4803
16603TIP3    H171300   1.531   5.022  15.899 -0.7469  1.8721  0.9791
16603TIP3    H271301   1.447   5.137  15.848 -2.5803 -0.9337 -2.8176
16604TIP3   OH271302   6.333   0.704  10.784  0.4567 -0.5405 -0.2556
16604TIP3    H171303   6.308   0.612  10.789  1.7372 -1.0070 -1.5507
16604TIP3    H271304   6.428   0.702  10.773  0.7579  1.0237  1.6084
16605TIP3   OH271305   0.326   3.860   1.571  0.3193 -0.0179  0.0598
16605TIP3    H171306   0.392   3.802   1.534  0.8395  0.5279  0.1018
16605TIP3    H271307   0.309   3.825   1.659  0.1381 -0.4811 -0.1582
16606TIP3   OH271308   2.652   6.473  15.773  0.4169  0.0226  0.0664
16606TIP3    H171309   2.726   6.530  15.794  3.0751 -2.2889 -2.2094
16606TIP3    H271310   2.657   6.461  15.678 -2.8297 -0.4397 -0.1683
16607TIP3   OH271311   0.540   5.796  15.770  0.1013  0.2882  0.0972
16607TIP3    H171312   0.458   5.801  15.720 -0.5133 -0.9616  0.9397
16607TIP3    H271313   0.607   5.831  15.710 -0.5022 -1.7113 -1.8496
16608TIP3   OH271314   5.792   1.819  11.737 -0.3492  0.0844 -0.8638
16608TIP3    H171315   5.850   1.892  11.760 -0.6305  0.1586 -0.3773
16608TIP3    H271316   5.837   1.742  11.771 -0.9826  0.2375  0.4135
16609TIP3   OH271317   4.255   6.592  16.208 -0.4857  0.4142  0.1970
16609TIP3    H171318   4.225   6.589  16.117  1.2903  1.0265 -0.4519
16609TIP3    H271319   4.295   6.507  16.223  1.9412  1.3130 -0.6538
16610TIP3   OH271320   6.730   2.297  13.445  0.0291  0.4256  0.1874
16610TIP3    H171321   6.683   2.218  13.472 -1.3156  1.1496  0.0442
16610TIP3    H271322   6.761   2.335  13.527 -0.2748  0.3292  0.3485
16611TIP3   OH271323   0.257   1.676  13.049 -0.4925  0.8987  0.4537
16611TIP3    H171324   0.219   1.654  12.964 -0.9611  0.8421  0.6730
16611TIP3    H271325   0.348   1.699  13.029  0.1078 -1.4539  0.2453
16612TIP3   OH271326   6.029   5.945  13.713 -0.2174  0.2201 -0.4663
16612TIP3    H171327   6.093   5.875  13.702  0.5328  0.8956 -0.5190
16612TIP3    H271328   6.028   5.963  13.807 -0.3694  0.1837 -0.4597
16613TIP3   OH271329   4.068   2.764   5.231 -0.5458  0.3106  0.4246
16613TIP3    H171330   4.021   2.736   5.309  1.2006 -0.1491  1.3812
16613TIP3    H271331   4.076   2.859   5.239  2.5715  0.0365  2.7264
16614TIP3   OH271332   6.519   1.278  13.114 -0.2436  0.3814 -0.6620
16614TIP3    H171333   6.479   1.214  13.173  2.3452 -0.3421  0.4520
16614TIP3    H271334   6.557   1.227  13.043  2.7973  0.3751  0.7872
16615TIP3   OH271335   1.953   5.618  16.075 -0.0416 -0.2955 -0.0689
16615TIP3    H171336   1.981   5.539  16.120  0.2101  0.3606  0.9686
16615TIP3    H271337   1.920   5.675  16.145  1.0226  1.0386 -0.6195
16616TIP3   OH271338   5.506   0.326  10.826  0.4951  0.5431 -0.3570
16616TIP3    H171339   5.541   0.261  10.765 -1.4433 -0.9256 -0.0001
16616TIP3    H271340   5.577   0.339  10.890  1.2336 -0.5772 -0.9142
16617TIP3   OH271341   1.839   4.157  11.078  0.1894 -0.6036  0.1837
16617TIP3    H171342   1.880   4.113  11.153  1.1997 -0.1500 -0.0812
16617TIP3    H271343   1.868   4.107  11.002  1.8306  0.8079 -0.1749
16618TIP3   OH271344   3.285   3.674   2.521 -0.8891  0.3083 -0.0293
16618TIP3    H171345   3.189   3.671   2.521 -0.8926  0.1908  0.6569
16618TIP3    H271346   3.308   3.713   2.437 -1.5030 -0.6170 -0.6331
16619TIP3   OH271347   0.443   3.474   3.771 -1.0705 -0.6103  0.1796
16619TIP3    H171348   0.439   3.498   3.864 -2.0100 -0.5543  0.1413
16619TIP3    H271349   0.435   3.557   3.725  2.1650 -0.2957  0.0052
16620TIP3   OH271350   6.404   2.030  13.169 -0.5257 -0.3310  0.5370
16620TIP3    H171351   6.394   1.941  13.133 -0.0592 -0.1588 -0.0362
16620TIP3    H271352   6.486   2.026  13.219 -0.3128 -0.1274  0.2064
16621TIP3   OH271353   5.681   5.133  15.420  0.4510  0.6411 -0.1063
16621TIP3    H171354   5.715   5.192  15.353 -1.6508  2.0791 -0.0181
16621TIP3    H271355   5.748   5.133  15.488  0.9692  2.1365 -0.5701
16622TIP3   OH271356   0.720   0.870   3.585 -0.1364 -0.0557  0.2638
16622TIP3    H171357   0.731   0.903   3.674  1.1481  0.0226  0.0967
16622TIP3    H271358   0.681   0.943   3.537  1.0149  0.6233  0.3166
16623TIP3   OH271359   4.658   6.278  16.597  0.1183 -0.2439  0.5980
16623TIP3    H171360   4.678   6.352  16.653 -1.5104  1.3168 -0.7682
16623TIP3    H271361   4.734   6.269  16.540 -0.3084  1.4934 -0.3179
16624TIP3   OH271362   2.993   4.046   5.565  0.3434  0.2362 -0.1724
16624TIP3    H171363   3.057   3.975   5.564 -0.5048 -0.5701  0.9299
16624TIP3    H271364   2.953   4.044   5.478  1.2039  0.1907 -0.5759
16625TIP3   OH271365   0.902   1.454  15.921  0.3505 -0.0665  0.8455
16625TIP3    H171366   0.983   1.407  15.904  2.1177  3.2841 -0.8765
16625TIP3    H271367   0.859   1.460  15.836 -0.2458  0.7005  1.1882
16626TIP3   OH271368   4.972   3.602  12.849  0.0033 -0.3848 -0.1818
16626TIP3    H171369   4.900   3.633  12.904 -1.5743 -1.1306 -1.7339
16626TIP3    H271370   4.963   3.652  12.767 -0.6140 -2.5265 -1.5027
16627TIP3   OH271371   0.409   2.726  13.166 -0.1121 -0.1132 -0.4315
16627TIP3    H171372   0.376   2.796  13.222 -0.6828  0.9163 -2.0054
16627TIP3    H271373   0.503   2.744  13.158 -0.1244  0.0434 -0.2261
16628TIP3   OH271374   3.996   6.424  16.156 -0.0958 -0.2276  0.0197
16628TIP3    H171375   4.020   6.357  16.091 -0.9260 -0.4316 -0.0902
16628TIP3    H271376   4.074   6.434  16.210  0.8755  0.4766 -1.4545
16629TIP3   OH271377   4.087   1.785  15.560 -0.8825  0.4340 -0.6429
16629TIP3    H171378   4.083   1.821  15.472 -0.8782 -1.2185 -1.3404
16629TIP3    H271379   4.148   1.712  15.554 -0.5382  0.5603  0.8360
16630TIP3   OH271380   5.412   2.514  14.011  0.3921  0.0169  0.2145
16630TIP3    H171381   5.478   2.444  14.011 -0.7550 -1.1080  1.4758
16630TIP3    H271382   5.376   2.512  14.099 -0.2171  1.7053  0.0202
16631TIP3   OH271383   5.646   2.117  16.773 -0.2903 -0.2074  0.3724
16631TIP3    H171384   5.671   2.209  16.773  1.9373 -0.7495  1.8467
16631TIP3    H271385   5.728   2.069  16.788 -1.5106 -2.3885  0.5113
16632TIP3   OH271386   2.296   0.595  17.073  0.0018 -0.9076 -0.3052
16632TIP3    H171387   2.323   0.535  17.004  0.2629 -1.4671  0.2740
16632TIP3    H271388   2.378   0.633  17.105 -0.0512 -1.1733  0.1617
16633TIP3   OH271389   1.207   6.193  12.698 -0.2500 -0.4665  0.0676
16633TIP3    H171390   1.264   6.255  12.741 -0.4497  1.1829 -1.8763
16633TIP3    H271391   1.206   6.117  12.756 -0.3839  1.4730  2.8019
16634TIP3   OH271392   2.655   1.479   0.824  0.0797 -0.0967 -0.3018
16634TIP3    H171393   2.721   1.409   0.832 -1.1327 -1.1377  1.0715
16634TIP3    H271394   2.690   1.536   0.755  3.6680  0.7915  1.9721
16635TIP3   OH271395   2.396   5.725  15.464  0.2352  0.5006  0.5109
16635TIP3    H171396   2.478   5.685  15.435  0.1228  0.8933 -0.3679
16635TIP3    H271397   2.327   5.669  15.428  0.0839  1.2689 -0.4507
16636TIP3   OH271398   1.518   0.133  11.661 -0.2104  0.1540  0.1860
16636TIP3    H171399   1.593   0.176  11.620  0.3701  0.3046  1.3582
16636TIP3    H271400   1.451   0.131  11.593  0.0545  2.1014 -0.2012
16637TIP3   OH271401   2.373   3.420   3.990  0.1784 -0.1616 -0.8696
16637TIP3    H171402   2.363   3.378   3.905  1.0494  1.2599 -1.7353
16637TIP3    H271403   2.318   3.498   3.984 -0.9867 -0.8496  0.4840
16638TIP3   OH271404   1.085   2.286   0.798 -0.3061  1.0582 -0.3829
16638TIP3    H171405   1.041   2.225   0.857 -1.5635  1.9331 -0.3711
16638TIP3    H271406   1.021   2.302   0.728  0.5902  1.1869 -1.1860
16639TIP3   OH271407   4.263   1.918  15.974  0.3838  0.2891 -0.5651
16639TIP3    H171408   4.350   1.958  15.979  0.6402 -0.3074 -0.1036
16639TIP3    H271409   4.281   1.824  15.968 -0.1672  0.2611 -2.7089
16640TIP3   OH271410   2.567   3.968   1.576  0.4065 -0.3872 -0.1613
16640TIP3    H171411   2.567   3.933   1.666  2.2085 -1.2329 -0.4491
16640TIP3    H271412   2.475   3.966   1.550 -0.1117 -0.4573  1.5434
16641TIP3   OH271413   0.788   2.565   5.048 -0.4215 -0.1326 -0.5268
16641TIP3    H171414   0.712   2.526   5.092 -1.1233  2.6651  1.0075
16641TIP3    H271415   0.753   2.643   5.004  1.0745 -0.4882 -2.5050
16642TIP3   OH271416   1.120   1.907  12.942  0.6908 -0.1119  0.0555
16642TIP3    H171417   1.162   1.989  12.916  1.9060 -0.5165  0.6631
16642TIP3    H271418   1.033   1.910  12.901  0.3441  1.9030  0.8525
16643TIP3   OH271419   1.771   3.534   3.673  0.1328 -0.3628 -0.1184
16643TIP3    H171420   1.822   3.543   3.753 -1.0976  0.1507  0.6391
16643TIP3    H271421   1.727   3.449   3.682 -1.8241  0.6985  0.8809
16644TIP3   OH271422   0.081   0.385  13.096 -0.4398 -0.2452  0.8789
16644TIP3    H171423   0.170   0.378  13.060 -0.8958 -0.0287 -0.3307
16644TIP3    H271424   0.064   0.479  13.099 -0.7042 -0.2955  0.9264
16645TIP3   OH271425   0.464   3.825  12.213  0.5983  0.2213  0.0921
16645TIP3    H171426   0.439   3.903  12.162  2.5552  1.0529  0.3253
16645TIP3    H271427   0.430   3.752  12.162 -0.9506  1.1881 -0.3486
16646TIP3   OH271428   5.409   1.389  12.036  0.1277  0.1506  0.7198
16646TIP3    H171429   5.396   1.477  12.072  0.7666 -0.4397  2.4776
16646TIP3    H271430   5.369   1.330  12.100 -2.6441 -0.8092 -1.6137
16647TIP3   OH271431   3.466   6.417  15.412 -0.4504  0.1608  0.5057
16647TIP3    H171432   3.502   6.504  15.392 -1.4659  0.6653  0.8352
16647TIP3    H271433   3.494   6.363  15.338  3.3843 -0.2306  1.9908
16648TIP3   OH271434   0.582   2.645   4.005 -0.0339 -0.0578 -0.5346
16648TIP3    H171435   0.677   2.640   3.997 -0.0370 -0.7628 -0.2148
16648TIP3    H271436   0.562   2.593   4.083 -0.5761  1.0666  0.0991
16649TIP3   OH271437   5.526   4.929   3.735 -0.2472  0.6680 -0.3032
16649TIP3    H171438   5.610   4.969   3.758 -0.1835  0.5868 -0.3948
16649TIP3    H271439   5.468   4.951   3.808 -0.2398  1.0123 -0.3995
16650TIP3   OH271440   6.341   5.930  16.551 -0.2245  0.2176  0.2907
16650TIP3    H171441   6.364   5.891  16.467 -0.1391  3.0287 -1.1147
16650TIP3    H271442   6.246   5.946  16.544 -0.5800 -1.1614  1.5115
16651TIP3   OH271443   6.166   3.592   4.760  0.0384 -0.2335 -0.8063
16651TIP3    H171444   6.141   3.502   4.780 -1.1600  0.3011  0.2136
16651TIP3    H271445   6.109   3.645   4.814  2.0667  1.1352  0.1117
16652TIP3   OH271446   3.926   5.198   1.333 -0.4711 -0.1692 -0.6014
16652TIP3    H171447   3.917   5.154   1.418 -1.0581  1.1942  0.0672
16652TIP3    H271448   3.967   5.132   1.277 -0.1450 -1.1354  0.7097
16653TIP3   OH271449   2.662   6.180  10.565 -0.2940  0.8444 -0.0659
16653TIP3    H171450   2.584   6.136  10.534  1.2565 -3.6954  1.6111
16653TIP3    H271451   2.710   6.204  10.486 -1.3278 -0.4814 -1.1331
16654TIP3   OH271452   3.799   4.478   6.367  0.4048  0.0166  0.5471
16654TIP3    H171453   3.711   4.461   6.333  1.0959 -1.0633 -0.7748
16654TIP3    H271454   3.784   4.537   6.441 -1.3126  1.0375 -0.5313
16655TIP3   OH271455   0.744   5.036  16.361 -0.1023 -0.2993 -0.4343
16655TIP3    H171456   0.691   5.017  16.438 -0.4293 -0.6454 -0.7461
16655TIP3    H271457   0.711   4.978  16.293  2.1945 -2.2707 -0.0041
16656TIP3   OH271458   5.249   0.676  14.307 -0.1037 -0.3424 -0.7123
16656TIP3    H171459   5.276   0.585  14.320 -0.8596 -0.4375  0.4491
16656TIP3    H271460   5.302   0.708  14.235  0.1588 -1.7170 -1.1485
16657TIP3   OH271461   5.550   6.157  15.378  0.6457  0.0643 -0.6293
16657TIP3    H171462   5.537   6.208  15.297  1.7852  0.8396 -0.3443
16657TIP3    H271463   5.502   6.206  15.445  1.0844  0.3382 -0.5125
16658TIP3   OH271464   3.658   6.238   4.787 -0.1045 -0.7220  0.0285
16658TIP3    H171465   3.728   6.176   4.768 -0.0320 -1.6333  2.7471
16658TIP3    H271466   3.700   6.324   4.780  0.6340 -1.1412 -0.7475
16659TIP3   OH271467   0.986   3.814   2.777  0.1553  0.5035 -0.3437
16659TIP3    H171468   0.918   3.874   2.745 -2.0715 -0.0409  2.7816
16659TIP3    H271469   1.066   3.867   2.779 -0.6590  1.9001 -2.0534
16660TIP3   OH271470   0.214   0.246  14.816  0.2336 -0.1485  0.0468
16660TIP3    H171471   0.300   0.253  14.857  0.5620 -0.2014 -0.6216
16660TIP3    H271472   0.221   0.300  14.738  0.0376 -1.0902 -0.6330
16661TIP3   OH271473   0.195   5.633  14.531  0.3146  0.4382 -0.4032
16661TIP3    H171474   0.189   5.728  14.535  0.9637  0.4909 -0.4990
16661TIP3    H271475   0.105   5.602  14.543  0.4877  0.9111  3.3894
16662TIP3   OH271476   5.993   3.979  17.055  0.1737 -0.0314  0.3933
16662TIP3    H171477   6.048   3.903  17.038 -0.3954 -0.3503 -0.0621
16662TIP3    H271478   5.951   3.960  17.139 -1.4739 -1.1459 -0.6317
16663TIP3   OH271479   3.157   0.595  11.592  0.6930 -0.1455 -0.0370
16663TIP3    H171480   3.095   0.522  11.597  1.2129 -0.5961 -0.1897
16663TIP3    H271481   3.128   0.645  11.516 -2.8000  2.6981  2.7639
16664TIP3   OH271482   1.879   3.031  14.317  0.3119 -0.3100  0.6130
16664TIP3    H171483   1.904   2.983  14.396 -1.0566 -1.3571  0.4451
16664TIP3    H271484   1.910   2.975  14.245  3.3057  1.5231  0.2769
16665TIP3   OH271485   2.559   3.560  15.694 -0.4561 -0.4370  0.1058
16665TIP3    H171486   2.619   3.634  15.681 -0.4463 -0.3917  0.4055
16665TIP3    H271487   2.573   3.505  15.617 -0.6556  0.0061 -0.2491
16666TIP3   OH271488   3.555   6.714  15.140 -0.9776 -0.3671  0.0011
16666TIP3    H171489   3.566   6.711  15.045 -0.1030 -0.3966  0.0939
16666TIP3    H271490   3.623   6.656  15.174 -2.7159 -2.1800  0.5789
16667TIP3   OH271491   0.064   0.434  13.633  0.1056  0.1072  0.0792
16667TIP3    H171492   0.006   0.394  13.569 -0.8463  1.9401 -0.2669
16667TIP3    H271493   0.123   0.489  13.582 -0.1296  0.9541  0.7044
16668TIP3   OH271494   1.874   0.305  13.404  0.3457 -0.0295 -0.1855
16668TIP3    H171495   1.823   0.380  13.437 -0.0991 -0.7788  0.8779
16668TIP3    H271496   1.850   0.233  13.461  1.8970 -0.6417 -0.2605
16669TIP3   OH271497   5.489   4.189  11.170 -0.4511  0.0671 -0.1260
16669TIP3    H171498   5.464   4.148  11.087 -0.4559 -0.3347  0.0727
16669TIP3    H271499   5.425   4.157  11.233 -0.9843  1.0600 -0.1339
16670TIP3   OH271500   5.449   2.975  11.609  0.3119 -0.0540 -0.4316
16670TIP3    H171501   5.381   3.042  11.615  0.4856  0.0418  0.7511
16670TIP3    H271502   5.529   3.023  11.587  0.4166  0.1240  0.3178
16671TIP3   OH271503   2.669   3.428   4.387 -0.2583  0.0276 -0.4556
16671TIP3    H171504   2.592   3.416   4.332 -0.9718 -1.2963  0.7746
16671TIP3    H271505   2.679   3.345   4.433  3.2106 -0.6473 -2.1234
16672TIP3   OH271506   1.796   0.831  16.697  0.3686  0.6814  0.6443
16672TIP3    H171507   1.823   0.922  16.683  1.9012  0.3578  1.3202
16672TIP3    H271508   1.875   0.787  16.730 -0.4883 -0.7738  0.8410
16673TIP3   OH271509   3.575   2.814  11.877  0.0780  0.4739  0.0128
16673TIP3    H171510   3.506   2.867  11.835  0.4091  0.9685  0.0823
16673TIP3    H271511   3.654   2.867  11.869  0.2318  0.3922  0.8925
16674TIP3   OH271512   6.533   0.311   3.233 -0.2083 -0.1547 -0.4070
16674TIP3    H171513   6.551   0.261   3.154  3.0199 -1.9615  1.2979
16674TIP3    H271514   6.555   0.252   3.305 -1.0467  2.0822  1.8490
16675TIP3   OH271515   3.934   3.878  15.817 -0.2094 -0.0527 -0.0955
16675TIP3    H171516   3.865   3.880  15.750 -0.7281  0.6611  0.4451
16675TIP3    H271517   3.977   3.963  15.809 -0.2431  0.0158  0.4381
16676TIP3   OH271518   4.163   6.738  11.801  0.2244  0.3848 -0.3661
16676TIP3    H171519   4.129   6.722  11.713 -0.1728 -1.0480  0.0206
16676TIP3    H271520   4.087   6.768  11.851 -0.2753 -1.6904  0.2059
16677TIP3   OH271521   6.737   3.706  13.877 -0.0470 -0.0847 -0.3285
16677TIP3    H171522   6.804   3.664  13.823  1.3592  1.1926  0.3710
16677TIP3    H271523   6.780   3.781  13.916 -2.1093  1.2896 -0.4939
16678TIP3   OH271524   2.454   3.122  13.294 -0.6446 -0.3039 -0.3403
16678TIP3    H171525   2.417   3.059  13.355 -0.9329 -0.3215 -0.5293
16678TIP3    H271526   2.452   3.205  13.340 -0.0278 -0.4703  0.0078
16679TIP3   OH271527   0.818   1.987   3.625  0.0361  0.5454  0.1162
16679TIP3    H171528   0.825   2.019   3.535 -0.4534  1.6482  0.4551
16679TIP3    H271529   0.725   1.997   3.647  0.0315 -0.2996  0.5456
16680TIP3   OH271530   0.831   4.082  12.439  0.0604 -0.8596  0.0953
16680TIP3    H171531   0.861   4.141  12.509 -0.6407  0.2140 -0.4970
16680TIP3    H271532   0.806   4.002  12.485 -2.1256  0.4541  1.3317
16681TIP3   OH271533   6.534   1.976  11.010  0.0943  0.6042  0.6020
16681TIP3    H171534   6.569   1.936  10.931  0.8479  0.4216  1.0223
16681TIP3    H271535   6.441   1.951  11.011 -0.5468  2.5755 -1.4778
16682TIP3   OH271536   5.090   4.246  14.452  0.6411 -0.2432  0.2099
16682TIP3    H171537   5.048   4.264  14.368 -1.0711  0.6151  1.1805
16682TIP3    H271538   5.101   4.151  14.454  0.8681 -0.2621 -1.0314
16683TIP3   OH271539   2.094   1.467   4.209  0.5152 -0.2413  0.6487
16683TIP3    H171540   2.073   1.547   4.257 -1.5488  0.0574 -0.6364
16683TIP3    H271541   2.188   1.454   4.225  0.8872  2.3259  1.0213
16684TIP3   OH271542   5.014   2.505  14.574 -0.3136  0.6127  0.3842
16684TIP3    H171543   4.956   2.511  14.498 -0.0914  0.5791  0.2126
16684TIP3    H271544   5.075   2.578  14.563  0.6754 -0.2920 -0.2761
16685TIP3   OH271545   3.602   5.613  12.470  0.4491 -0.1563  0.0692
16685TIP3    H171546   3.533   5.666  12.510  0.8823  0.1965  0.3668
16685TIP3    H271547   3.556   5.538  12.432 -0.0731 -0.0275  0.4324
16686TIP3   OH271548   5.581   5.993  16.165  0.7929  0.6280  0.3189
16686TIP3    H171549   5.513   6.011  16.229 -0.2863 -0.2306 -0.5394
16686TIP3    H271550   5.660   5.978  16.216  0.0529  0.3872  1.4126
16687TIP3   OH271551   3.268   5.575  16.539 -0.3351  0.1530 -0.2017
16687TIP3    H171552   3.209   5.646  16.513  0.2932  0.3784 -1.0864
16687TIP3    H271553   3.282   5.588  16.633 -1.8934 -0.0770  0.0831
16688TIP3   OH271554   6.334   3.558   1.173  0.1128  0.2130  0.8048
16688TIP3    H171555   6.318   3.522   1.086  2.1366  1.0735  0.0258
16688TIP3    H271556   6.398   3.498   1.212  0.8959  1.0360  0.8168
16689TIP3   OH271557   4.066   4.884   4.548  0.3652 -0.1600  0.2328
16689TIP3    H171558   3.989   4.889   4.605  0.1968 -0.9671  0.0844
16689TIP3    H271559   4.058   4.799   4.504  1.0227  0.0157 -0.2391
16690TIP3   OH271560   6.704   6.368  10.973  0.9568  0.8769  0.4284
16690TIP3    H171561   6.759   6.322  10.909  0.9294  2.9176 -1.1791
16690TIP3    H271562   6.632   6.404  10.921 -1.5521 -1.0095  2.3532
16691TIP3   OH271563   0.272   4.986  14.837  0.2203 -0.1005  0.3689
16691TIP3    H171564   0.302   4.975  14.747 -2.1739  0.9199 -0.6401
16691TIP3    H271565   0.260   4.896  14.869  0.7944 -0.4779 -0.4409
16692TIP3   OH271566   5.782   2.747   2.792 -0.1398 -0.3377 -0.2835
16692TIP3    H171567   5.733   2.762   2.873  0.5522  1.3874 -0.1418
16692TIP3    H271568   5.748   2.663   2.759 -2.1841  0.0946  0.5279
16693TIP3   OH271569   1.011   5.069  14.497  0.2186 -0.2257  0.3193
16693TIP3    H171570   1.028   4.975  14.503  1.6049  0.0265  0.8986
16693TIP3    H271571   0.959   5.089  14.575 -2.3570 -0.8969 -1.1089
16694TIP3   OH271572   0.492   0.032   4.386  1.0514  0.1773  0.2165
16694TIP3    H171573   0.485  -0.047   4.332 -0.4380 -0.4798  1.3033
16694TIP3    H271574   0.523   0.000   4.471 -0.9697  0.5106  1.1162
16695TIP3   OH271575   1.569   1.139  16.154 -0.2049 -0.5717  0.5886
16695TIP3    H171576   1.538   1.082  16.085  0.5504 -0.1206 -0.1371
16695TIP3    H271577   1.511   1.121  16.228 -1.0491 -1.0211 -0.1698
16696TIP3   OH271578   0.091   5.275  16.114  0.4657  0.3033  0.0915
16696TIP3    H171579   0.102   5.370  16.104  0.6082  0.0858 -2.4678
16696TIP3    H271580   0.019   5.253  16.056  0.8149 -1.2373  0.2040
16697TIP3   OH271581   2.891   2.920  14.350  0.0911  1.0012  0.2888
16697TIP3    H171582   2.852   2.999  14.315  1.6033  1.4982 -0.3522
16697TIP3    H271583   2.835   2.849  14.318 -0.1510  1.6573 -0.7954
16698TIP3   OH271584   6.377   6.222  11.888  0.0055  0.4281  0.4880
16698TIP3    H171585   6.404   6.218  11.980  2.0072 -2.0376 -0.0711
16698TIP3    H271586   6.432   6.291  11.850 -1.2542  1.8770  1.1922
16699TIP3   OH271587   6.466   1.990  11.466 -0.1380 -0.2843  0.4764
16699TIP3    H171588   6.491   2.065  11.412 -0.8037  0.1447  0.7485
16699TIP3    H271589   6.379   1.965  11.435  0.2509 -1.2117  0.1153
16700TIP3   OH271590   2.037   6.583  12.723  0.1573 -0.0977  0.6974
16700TIP3    H171591   2.040   6.494  12.757  0.7049 -0.2518  0.2578
16700TIP3    H271592   2.009   6.636  12.798 -0.8041 -0.7119  0.7862
16701TIP3   OH271593   3.650   3.526  15.603  0.0858 -0.0010 -0.1925
16701TIP3    H171594   3.668   3.557  15.692  0.4100  0.2192 -0.3371
16701TIP3    H271595   3.725   3.554  15.551 -0.3724  0.3725 -0.6580
16702TIP3   OH271596   5.978   5.491   5.093 -0.1290 -0.3350 -0.2482
16702TIP3    H171597   5.979   5.518   5.002 -0.8518 -0.2204 -0.2265
16702TIP3    H271598   6.041   5.419   5.098  0.3773  0.0703 -0.7012
16703TIP3   OH271599   1.491   1.097  13.407 -0.5390 -0.5752 -0.2365
16703TIP3    H171600   1.428   1.047  13.356 -1.9890 -0.2696  1.1988
16703TIP3    H271601   1.455   1.098  13.496  0.3509  1.4946  0.1460
16704TIP3   OH271602   4.731   0.652   5.963  0.2937 -0.0470 -0.0478
16704TIP3    H171603   4.765   0.656   6.052  0.0649 -0.1066  0.0446
16704TIP3    H271604   4.637   0.634   5.974 -0.0774  1.5737 -0.2335
16705TIP3   OH271605   3.704   5.633   5.246  0.1164 -0.0941  0.3785
16705TIP3    H171606   3.746   5.705   5.292  0.0942 -0.6854  1.3725
16705TIP3    H271607   3.645   5.675   5.184  2.3524  0.7724 -1.2969
16706TIP3   OH271608   0.568   0.299   3.563 -0.1506 -0.3110 -0.5312
16706TIP3    H171609   0.623   0.365   3.606 -0.5521 -0.6928  0.6358
16706TIP3    H271610   0.626   0.254   3.502  0.7283 -0.4268  0.3658
16707TIP3   OH271611   2.030   0.627   2.187 -0.6067 -0.0509  0.3100
16707TIP3    H171612   1.950   0.667   2.154 -0.6139 -0.5982 -0.3694
16707TIP3    H271613   2.036   0.656   2.278 -2.3109 -1.1052  0.8115
16708TIP3   OH271614   3.098   0.899   4.865 -0.6503 -0.4831 -0.2676
16708TIP3    H171615   3.186   0.917   4.831 -0.4634 -0.3284  0.2848
16708TIP3    H271616   3.109   0.822   4.921 -0.5460  0.4435  1.0410
16709TIP3   OH271617   4.425   6.192  15.852  0.0113 -0.5362 -0.0442
16709TIP3    H171618   4.437   6.279  15.814  2.3771  0.1863  2.0866
16709TIP3    H271619   4.330   6.182  15.859 -0.3332  2.0321 -0.0412
16710TIP3   OH271620   5.570   3.760  11.940  0.4732  0.2939 -0.1052
16710TIP3    H171621   5.625   3.770  12.017  1.6076 -1.6789 -0.5858
16710TIP3    H271622   5.555   3.665  11.934 -1.9504  0.6472 -0.7206
16711TIP3   OH271623   2.416   6.270  14.410  0.2646 -0.7856  0.2336
16711TIP3    H171624   2.479   6.270  14.482 -0.6941  2.0152  1.2176
16711TIP3    H271625   2.469   6.284  14.332  0.9651  1.3244  1.0223
16712TIP3   OH271626   5.689   6.186  13.208 -0.2649 -0.2660  0.3327
16712TIP3    H171627   5.667   6.097  13.236  0.2847 -0.6843 -0.5211
16712TIP3    H271628   5.785   6.191  13.215 -0.2640  0.1581  0.1039
16713TIP3   OH271629   2.408   2.695  15.692 -0.5462  0.4134  0.1442
16713TIP3    H171630   2.390   2.650  15.775  0.4504 -0.3921 -0.0523
16713TIP3    H271631   2.492   2.659  15.663  0.4212  2.5606  0.0737
16714TIP3   OH271632   5.621   2.577  15.639  0.6490 -0.0437 -0.6528
16714TIP3    H171633   5.535   2.605  15.673  0.1656 -0.9803 -1.0714
16714TIP3    H271634   5.659   2.525  15.710  0.9255  0.4623 -0.4252
16715TIP3   OH271635   2.240   5.319   4.149 -0.1003 -0.2288 -0.2142
16715TIP3    H171636   2.314   5.299   4.205 -0.8999 -1.1071  0.5675
16715TIP3    H271637   2.244   5.255   4.078 -0.0419 -0.1870 -0.2484
16716TIP3   OH271638   2.050   0.754  13.166 -0.2451 -0.1733 -0.1273
16716TIP3    H171639   2.130   0.726  13.210 -2.6706 -2.9029  2.9568
16716TIP3    H271640   2.024   0.679  13.113 -0.5047  0.9373 -1.6532
16717TIP3   OH271641   3.666   2.311   0.328 -0.0189 -0.3338 -0.0190
16717TIP3    H171642   3.599   2.263   0.279 -1.1064  1.6445 -0.5409
16717TIP3    H271643   3.735   2.328   0.264  0.6307 -1.5872  0.3008
16718TIP3   OH271644   1.811   4.675   1.990 -0.4174 -0.2658  0.0827
16718TIP3    H171645   1.854   4.760   1.983  0.3979 -0.7479 -1.0098
16718TIP3    H271646   1.881   4.611   1.977 -0.7260 -1.1760  2.3139
16719TIP3   OH271647   4.177   6.432   3.657  0.0880  0.0049 -0.4511
16719TIP3    H171648   4.147   6.409   3.569 -0.2146 -1.3603 -0.0082
16719TIP3    H271649   4.180   6.528   3.657 -0.6180  0.0426 -1.7080
16720TIP3   OH271650   3.135   2.511   0.349 -0.0684  0.0019  0.1208
16720TIP3    H171651   3.071   2.480   0.284  0.2018 -0.2417 -0.0333
16720TIP3    H271652   3.220   2.487   0.312  0.2040  1.5782 -0.3497
16721TIP3   OH271653   6.533   5.540  12.136  0.2451  0.6829 -0.2812
16721TIP3    H171654   6.498   5.618  12.178  0.4951  0.4658  0.3404
16721TIP3    H271655   6.553   5.567  12.047  1.8741  1.7926  0.3793
16722TIP3   OH271656   6.849   2.791   2.390 -0.1799 -0.2041 -0.2117
16722TIP3    H171657   6.823   2.726   2.325 -1.2596 -0.8092  0.7822
16722TIP3    H271658   6.890   2.741   2.460  1.1465  0.4631 -0.4709
16723TIP3   OH271659   4.834   5.137   1.857  0.0311  0.1970 -0.3413
16723TIP3    H171660   4.784   5.099   1.784 -0.0615 -1.3660  0.5020
16723TIP3    H271661   4.904   5.187   1.814 -0.2396 -0.3822 -1.5117
16724TIP3   OH271662   3.343   2.079   4.130 -0.3773 -0.3986 -0.1710
16724TIP3    H171663   3.358   1.990   4.101  1.8907 -0.6001  1.3932
16724TIP3    H271664   3.281   2.070   4.203 -1.2062 -0.5182 -0.8723
16725TIP3   OH271665   3.705   0.380   3.697 -0.0042  0.0155  0.6118
16725TIP3    H171666   3.771   0.445   3.673 -1.3299  0.4077 -2.3827
16725TIP3    H271667   3.741   0.297   3.666 -0.3656  0.0411  0.1234
16726TIP3   OH271668   3.571   3.540  13.278 -0.6760  0.2486  0.1509
16726TIP3    H171669   3.500   3.595  13.312 -0.2556  1.4363 -0.8402
16726TIP3    H271670   3.536   3.502  13.198  0.4208  2.4557 -1.4765
16727TIP3   OH271671   0.551   3.713   5.316 -0.5701  0.2461  0.0209
16727TIP3    H171672   0.532   3.804   5.295 -1.3010  0.0442 -0.2094
16727TIP3    H271673   0.537   3.665   5.235 -0.3837 -0.1045  0.1895
16728TIP3   OH271674   0.440   6.851   3.783 -0.3039  0.0095  0.2036
16728TIP3    H171675   0.473   6.922   3.838  3.6629 -2.9397  2.1710
16728TIP3    H271676   0.387   6.797   3.842 -0.7631 -0.2163 -0.4099
16729TIP3   OH271677   3.753   2.331   1.781 -0.3387  0.1877 -0.2989
16729TIP3    H171678   3.726   2.343   1.872  0.2063  1.1343 -0.2452
16729TIP3    H271679   3.834   2.383   1.773 -0.3478  0.0731 -1.3063
16730TIP3   OH271680   1.223   5.431   6.038  0.0443 -0.1599 -0.1268
16730TIP3    H171681   1.232   5.363   6.104  1.3025 -0.0723 -0.1773
16730TIP3    H271682   1.133   5.423   6.007  0.0078 -1.4335  0.2562
16731TIP3   OH271683   0.999   6.455  13.087 -0.1156  0.7009  0.1349
16731TIP3    H171684   1.058   6.381  13.104  0.8271  1.0095 -1.5162
16731TIP3    H271685   0.975   6.486  13.173  2.1885  0.5533  0.9084
16732TIP3   OH271686   3.678   2.139   4.028 -0.1361  0.0815  0.4828
16732TIP3    H171687   3.598   2.086   4.032 -0.1122 -0.1353 -1.0860
16732TIP3    H271688   3.747   2.076   4.008  0.2559  0.4130  0.7781
16733TIP3   OH271689   0.158   6.288  13.571  0.1482 -0.1114 -0.1106
16733TIP3    H171690   0.194   6.273  13.484 -1.0908 -2.1218 -0.3534
16733TIP3    H271691   0.095   6.359  13.559  1.2743  0.8687 -0.4302
16734TIP3   OH271692   0.873   0.690   0.078 -0.1214  0.2228 -0.1505
16734TIP3    H171693   0.825   0.614   0.110  1.7382 -0.2988  1.6117
16734TIP3    H271694   0.875   0.751   0.152  1.5795  0.3668 -0.2639
16735TIP3   OH271695   4.234   5.389   5.142 -0.4021 -0.6207  0.3469
16735TIP3    H171696   4.157   5.371   5.089  0.1715  0.8527 -1.0900
16735TIP3    H271697   4.209   5.366   5.231 -1.4993 -2.9181 -0.4833
16736TIP3   OH271698   3.463   1.891  13.486  0.2601  0.0602 -0.3818
16736TIP3    H171699   3.475   1.879  13.581 -0.6318  0.9023 -0.1454
16736TIP3    H271700   3.368   1.886  13.474  0.4388 -1.2924 -1.4298
16737TIP3   OH271701   2.186   6.666  11.465 -0.2392 -0.6456 -0.2853
16737TIP3    H171702   2.112   6.625  11.420 -0.5124  0.7430 -1.1619
16737TIP3    H271703   2.250   6.682  11.396  1.2589 -2.5351  0.5815
16738TIP3   OH271704   3.097   4.053  16.089 -0.7609 -0.1465 -0.7401
16738TIP3    H171705   3.148   4.076  16.011  0.8373 -2.6701 -0.5313
16738TIP3    H271706   3.029   3.994  16.056 -0.7268 -0.3885 -0.3780
16739TIP3   OH271707   0.856   3.394   2.240  0.4559  0.1310 -0.1862
16739TIP3    H171708   0.823   3.444   2.165  2.0566  0.2185 -0.8631
16739TIP3    H271709   0.839   3.303   2.216  0.2906  0.1960 -0.3191
16740TIP3   OH271710   2.916   4.213  15.426  0.0594 -0.5367  0.4192
16740TIP3    H171711   2.928   4.209  15.521 -0.5078  0.7293  0.5570
16740TIP3    H271712   2.996   4.173  15.391  0.0714 -1.4645  1.4138
16741TIP3   OH271713   3.269   2.487   6.244 -0.1544  0.0489 -0.2652
16741TIP3    H171714   3.328   2.418   6.214 -1.3513 -0.7921 -0.7964
16741TIP3    H271715   3.211   2.503   6.169 -1.6413 -0.3424  0.7555
16742TIP3   OH271716   4.101   6.491  13.301 -0.3120 -0.6216 -0.1496
16742TIP3    H171717   4.050   6.445  13.234 -1.1761  0.1186 -0.0169
16742TIP3    H271718   4.086   6.584  13.284  0.0939 -0.4098  0.5914
16743TIP3   OH271719   0.701   5.452  11.606 -0.7973 -0.1104 -0.2575
16743TIP3    H171720   0.793   5.477  11.594 -0.5233 -1.1771 -0.5088
16743TIP3    H271721   0.665   5.450  11.517 -1.3632  1.3318 -0.0835
16744TIP3   OH271722   3.228   1.519  15.554 -0.3232  0.1225 -0.4404
16744TIP3    H171723   3.190   1.590  15.606 -0.6489 -0.1066 -0.3667
16744TIP3    H271724   3.220   1.441  15.610 -0.0006  0.0187 -0.5355
16745TIP3   OH271725   4.436   0.873   5.539 -0.1742 -0.0009 -0.0430
16745TIP3    H171726   4.374   0.901   5.471 -1.5954 -2.3746  0.1363
16745TIP3    H271727   4.522   0.889   5.501 -0.9184  0.3253 -1.7185
16746TIP3   OH271728   1.068   0.233   3.903 -0.6964 -0.2494  0.0641
16746TIP3    H171729   1.106   0.146   3.892  0.0557 -0.0353  0.8130
16746TIP3    H271730   1.046   0.262   3.815  3.1835  0.6241 -0.8317
16747TIP3   OH271731   2.876   0.815  14.158  0.1564  0.1316 -0.1921
16747TIP3    H171732   2.915   0.775  14.080 -0.8129  0.4028 -0.8434
16747TIP3    H271733   2.945   0.869  14.195  0.8851 -0.6413 -0.3931
16748TIP3   OH271734   5.984   5.888  14.379 -0.5206 -0.4437 -0.3122
16748TIP3    H171735   6.007   5.926  14.463 -1.8712  0.1672 -0.1910
16748TIP3    H271736   5.975   5.794  14.397 -0.0673 -0.4251  0.0426
16749TIP3   OH271737   5.364   2.540   2.208 -1.0035 -0.2107 -0.1001
16749TIP3    H171738   5.288   2.482   2.194 -0.8804 -0.3509 -0.1954
16749TIP3    H271739   5.420   2.492   2.269 -0.5942 -0.4787 -0.6772
16750TIP3   OH271740   1.978   0.638   3.123  0.3614 -0.0413 -0.0756
16750TIP3    H171741   2.036   0.703   3.163  0.8326 -0.5400  0.0736
16750TIP3    H271742   1.909   0.624   3.188 -0.9117  1.8153 -0.9597
16751TIP3   OH271743   0.067   0.066   4.231  0.2615 -0.0561  0.0697
16751TIP3    H171744  -0.027   0.068   4.245  0.4729  0.9389  1.5694
16751TIP3    H271745   0.092  -0.024   4.252 -0.3879 -0.4705 -0.8324
16752TIP3   OH271746   6.651   4.395  13.455  0.5552  0.2410 -0.3312
16752TIP3    H171747   6.577   4.369  13.510 -0.9663  1.1002 -1.8776
16752TIP3    H271748   6.654   4.491  13.463  1.1320  0.2608 -0.7542
16753TIP3   OH271749   5.634   3.408   1.384  0.1111 -0.4696 -0.3633
16753TIP3    H171750   5.707   3.466   1.403  0.1673 -1.0248  1.3181
16753TIP3    H271751   5.577   3.415   1.461 -0.3185 -1.9516 -0.5056
16754TIP3   OH271752   6.471   2.137   5.679 -0.1886 -0.3704  0.4280
16754TIP3    H171753   6.525   2.080   5.733 -1.8061  0.8598  3.6970
16754TIP3    H271754   6.507   2.225   5.693 -1.2842  0.1043  0.4523
16755TIP3   OH271755   3.470   2.010  15.820 -0.4296  0.3612 -0.0034
16755TIP3    H171756   3.423   2.051  15.747  0.4378 -0.1209 -0.8690
16755TIP3    H271757   3.556   1.989  15.783 -0.2305 -0.5671  0.9529
16756TIP3   OH271758   5.963   0.635   5.326 -0.3005 -0.0557  0.5305
16756TIP3    H171759   5.871   0.660   5.319 -0.5696 -1.1525 -0.2140
16756TIP3    H271760   5.965   0.573   5.399 -0.3857 -0.9258 -0.1830
16757TIP3   OH271761   3.700   0.687   0.685 -0.2211  0.1269 -0.1197
16757TIP3    H171762   3.778   0.659   0.733 -0.1373 -0.7750 -0.7703
16757TIP3    H271763   3.633   0.624   0.709 -0.7912  0.9492  0.5029
16758TIP3   OH271764   4.086   2.961  13.397 -0.2155 -0.1159  0.3163
16758TIP3    H171765   4.167   2.911  13.402 -0.4541 -0.5078  0.2759
16758TIP3    H271766   4.018   2.900  13.424 -0.3363  0.6180  1.7902
16759TIP3   OH271767   3.123   2.310   3.657  0.2375 -0.2127  0.1679
16759TIP3    H171768   3.216   2.293   3.672  0.3749  0.7126  0.4168
16759TIP3    H271769   3.117   2.334   3.564  0.2462 -0.2834  0.1491
16760TIP3   OH271770   3.795   3.298   6.310  0.4128 -0.1118 -0.3043
16760TIP3    H171771   3.839   3.322   6.392 -0.5989  1.7407 -0.2489
16760TIP3    H271772   3.842   3.348   6.243 -0.7828  0.9254 -0.4003
16761TIP3   OH271773   4.923   0.459  11.496 -0.1683  0.0033 -0.5163
16761TIP3    H171774   4.846   0.476  11.550 -0.6297 -1.6691 -0.5970
16761TIP3    H271775   4.912   0.518  11.420 -0.6522  0.7463  0.1116
16762TIP3   OH271776   4.981   5.871  13.388 -0.3751  0.5778 -0.1051
16762TIP3    H171777   4.898   5.823  13.387 -0.1518  0.1534  0.6115
16762TIP3    H271778   5.048   5.802  13.384 -0.0543  0.8881 -0.1462
16763TIP3   OH271779   2.755   3.164  11.952  0.1838  0.2296 -0.2720
16763TIP3    H171780   2.783   3.097  11.890  0.4271  0.4436 -0.3966
16763TIP3    H271781   2.725   3.115  12.028 -0.0866 -0.0348 -0.5425
16764TIP3   OH271782   1.765   2.647   1.144 -0.0787  0.1272 -0.2074
16764TIP3    H171783   1.801   2.697   1.217  2.0014 -2.3550  0.6063
16764TIP3    H271784   1.831   2.654   1.075 -0.0570 -0.9245 -0.3065
16765TIP3   OH271785   5.914   2.312   2.808  0.3591  0.5625 -0.3642
16765TIP3    H171786   5.993   2.338   2.762  0.8129 -0.3044 -0.1070
16765TIP3    H271787   5.899   2.381   2.872  0.2005  1.3515 -1.2324
16766TIP3   OH271788   3.385   2.830   3.697 -0.3056  0.6786  0.1701
16766TIP3    H171789   3.333   2.881   3.758  0.3496 -1.3461  2.5842
16766TIP3    H271790   3.474   2.862   3.709 -0.4576  1.9429 -1.6235
16767TIP3   OH271791   6.128   5.302   3.309 -0.1942  0.3290  0.0046
16767TIP3    H171792   6.125   5.248   3.229  2.3694 -0.7336  0.5465
16767TIP3    H271793   6.214   5.342   3.308 -0.9846  2.1839  1.1202
16768TIP3   OH271794   2.784   2.267   1.757  0.4418  0.3526 -0.0109
16768TIP3    H171795   2.724   2.280   1.684 -0.2461 -0.2815  0.4273
16768TIP3    H271796   2.830   2.186   1.736 -0.9522 -0.7602  1.0238
16769TIP3   OH271797   1.230   0.159  12.656 -0.6788 -0.1113 -0.3894
16769TIP3    H171798   1.196   0.106  12.584 -0.9790 -3.0694  1.7426
16769TIP3    H271799   1.320   0.129  12.669 -0.2097  1.2632 -0.2678
16770TIP3   OH271800   3.342   0.124   5.203 -0.5114  0.0027 -0.6491
16770TIP3    H171801   3.312   0.213   5.221  0.4527 -0.2290  2.7795
16770TIP3    H271802   3.267   0.068   5.221 -1.0100  0.0171 -2.4585
16771TIP3   OH271803   1.585   6.831   2.292  0.0333 -0.2853  0.5928
16771TIP3    H171804   1.641   6.900   2.258 -0.1661 -1.4496 -2.4550
16771TIP3    H271805   1.642   6.754   2.296 -0.5594 -0.7433  0.4567
16772TIP3   OH271806   1.936   3.591  16.325 -0.0958  0.0648  0.1268
16772TIP3    H171807   1.868   3.567  16.387 -0.4896  0.0716 -0.3007
16772TIP3    H271808   1.894   3.587  16.240  0.7437 -1.0664 -0.2569
16773TIP3   OH271809   5.887   0.205   1.767  0.1373  0.3737 -0.0543
16773TIP3    H171810   5.981   0.224   1.771  0.5328 -1.4862  0.8579
16773TIP3    H271811   5.875   0.135   1.831 -1.8219  0.3193 -0.4371
16774TIP3   OH271812   6.468   2.152   0.424  0.3095 -0.1401  0.2226
16774TIP3    H171813   6.559   2.181   0.422  0.2158  0.2151 -2.0101
16774TIP3    H271814   6.440   2.155   0.332 -1.7077 -1.0373  0.7482
16775TIP3   OH271815   0.083   4.436  11.713 -0.0910  0.0428  0.3361
16775TIP3    H171816   0.164   4.387  11.728  0.2181  0.5118  0.2334
16775TIP3    H271817   0.020   4.370  11.684 -0.6175 -0.8811  3.2194
16776TIP3   OH271818   3.097   2.180   3.907  0.2869  0.5329  0.7379
16776TIP3    H171819   3.109   2.226   3.824  0.9815  0.5877  0.8660
16776TIP3    H271820   3.141   2.235   3.972 -1.7089  1.3719  1.4443
16777TIP3   OH271821   3.271   0.371  10.878 -0.1396  0.8972 -0.3099
16777TIP3    H171822   3.197   0.431  10.874  0.5188  1.7931  0.5583
16777TIP3    H271823   3.237   0.292  10.919 -0.9637  0.7251 -1.2868
16778TIP3   OH271824   3.566   0.850   5.133  0.9298  0.1549 -0.4077
16778TIP3    H171825   3.477   0.874   5.159  1.2734  0.8063  0.1931
16778TIP3    H271826   3.557   0.820   5.042  0.1539  0.5085 -0.4566
16779TIP3   OH271827   0.227   1.969   5.606  0.3821  0.0273  0.7174
16779TIP3    H171828   0.150   1.919   5.578  0.1536 -1.3936  3.5186
16779TIP3    H271829   0.301   1.918   5.575  0.1792  0.1370  0.0459
16780TIP3   OH271830   4.870   5.714   4.575 -0.0446 -0.1229 -0.3024
16780TIP3    H171831   4.821   5.739   4.654 -0.3369 -1.2350 -0.1141
16780TIP3    H271832   4.879   5.619   4.582 -0.4123 -0.2833 -1.8147
16781TIP3   OH271833   5.371   4.763  15.948 -0.1457 -0.9049  0.1857
16781TIP3    H171834   5.334   4.751  15.861  0.8531 -2.0247 -0.1109
16781TIP3    H271835   5.296   4.788  16.003 -0.9559 -1.1333 -0.7912
16782TIP3   OH271836   1.160   4.167   4.155 -0.5712  0.5648 -0.3028
16782TIP3    H171837   1.226   4.116   4.109 -1.5640 -0.7959 -0.2883
16782TIP3    H271838   1.173   4.146   4.247 -0.7308  0.6452 -0.2612
16783TIP3   OH271839   3.057   6.582   4.316  0.1154 -0.9148  0.5377
16783TIP3    H171840   3.090   6.542   4.397  2.8720 -0.2035 -0.1107
16783TIP3    H271841   3.069   6.676   4.330  1.1097 -0.8067 -0.8582
16784TIP3   OH271842   2.784   4.794  10.650  0.3075  0.0575  0.0450
16784TIP3    H171843   2.800   4.792  10.556 -2.4879 -0.7593 -0.5103
16784TIP3    H271844   2.788   4.887  10.673  1.7932  0.1966 -0.6813
16785TIP3   OH271845   2.975   5.640   3.088 -0.4814 -0.2507 -0.1873
16785TIP3    H171846   3.014   5.609   3.170 -1.1414 -0.1444  0.1719
16785TIP3    H271847   2.911   5.705   3.115 -0.1661  0.3463 -0.8450
16786TIP3   OH271848   3.879   0.891   1.815 -0.3730 -0.6267  0.7188
16786TIP3    H171849   3.912   0.891   1.904 -0.8633  0.1409  0.9083
16786TIP3    H271850   3.954   0.919   1.761 -0.3773 -0.0472  1.0096
16787TIP3   OH271851   0.522   1.695  16.812  0.2153 -0.1797  0.1592
16787TIP3    H171852   0.532   1.625  16.748 -1.2411 -0.5345  0.2867
16787TIP3    H271853   0.428   1.708  16.820  0.4416  1.7592  0.1933
16788TIP3   OH271854   5.841   0.165   5.466  0.8799 -0.2649  0.4242
16788TIP3    H171855   5.853   0.220   5.389  1.0586  0.0826  0.6974
16788TIP3    H271856   5.822   0.078   5.431  0.2293  0.0455 -0.0111
16789TIP3   OH271857   0.968   4.886  16.309 -0.2798 -0.0499  0.2729
16789TIP3    H171858   0.961   4.830  16.386  0.3808  0.7449  0.9277
16789TIP3    H271859   0.904   4.955  16.322 -1.6190 -1.0162 -0.8873
16790TIP3   OH271860   1.421   5.609   6.393  0.0980  0.5203  0.3306
16790TIP3    H171861   1.477   5.672   6.348  0.4205  0.1532  0.2076
16790TIP3    H271862   1.431   5.528   6.343 -0.9131  0.5682  0.0311
16791TIP3   OH271863   0.566   5.367  14.124  0.0627  0.0314 -0.6760
16791TIP3    H171864   0.638   5.349  14.186 -0.2958  2.1613  0.4761
16791TIP3    H271865   0.610   5.397  14.045  0.5452  2.5118  0.4249
16792TIP3   OH271866   5.181   6.372   6.062  0.4945  0.1733  0.1889
16792TIP3    H171867   5.249   6.438   6.048 -0.3114  0.8409 -0.6378
16792TIP3    H271868   5.107   6.420   6.099 -1.1810  0.3742 -3.0669
16793TIP3   OH271869   0.484   3.718  14.070  0.2577  0.5043 -0.1271
16793TIP3    H171870   0.551   3.782  14.093 -1.1583  2.6564 -1.5429
16793TIP3    H271871   0.416   3.729  14.137  0.8532 -0.9658  0.7475
16794TIP3   OH271872   5.662   1.272   4.716 -0.2939  0.2224 -0.3059
16794TIP3    H171873   5.712   1.242   4.640  1.2634  1.8042  0.0467
16794TIP3    H271874   5.573   1.284   4.683  0.2189  0.2939 -1.7223
16795TIP3   OH271875   0.639   6.095  15.714  0.0518  0.2338  0.0990
16795TIP3    H171876   0.673   6.092  15.803 -1.0997 -0.8383  0.5399
16795TIP3    H271877   0.714   6.072  15.659  0.4327 -0.5639  0.9138
16796TIP3   OH271878   0.543   6.158  10.563 -0.0752  0.7130  0.0865
16796TIP3    H171879   0.471   6.163  10.626 -1.0663 -0.3748 -0.9085
16796TIP3    H271880   0.502   6.171  10.478 -0.0228 -4.1978 -0.9906
16797TIP3   OH271881   1.698   0.441   4.603 -0.3734  0.4007  0.2187
16797TIP3    H171882   1.609   0.470   4.584 -0.1522  0.9904  0.0775
16797TIP3    H271883   1.750   0.474   4.530  0.2655  1.5757  1.1764
16798TIP3   OH271884   1.786   5.814  13.744  0.2603  0.2047 -0.3251
16798TIP3    H171885   1.705   5.846  13.784 -0.0893  0.2579 -1.0513
16798TIP3    H271886   1.810   5.738  13.795 -0.0767  0.3771  0.0953
16799TIP3   OH271887   1.875   1.330   0.447 -0.1404  0.2523  0.1605
16799TIP3    H171888   1.933   1.374   0.509  0.2960 -0.9289  0.5966
16799TIP3    H271889   1.802   1.298   0.500  0.8071 -1.7999  0.3197
16800TIP3   OH271890   0.315   6.460  16.846 -0.1558  0.1778 -0.1101
16800TIP3    H171891   0.277   6.388  16.796  2.2758 -0.5510 -1.0130
16800TIP3    H271892   0.354   6.517  16.780 -0.6189  1.4953  0.7118
16801TIP3   OH271893   5.672   0.820  11.317 -0.4822 -0.3629  0.0846
16801TIP3    H171894   5.688   0.908  11.283 -1.4031 -0.3087 -0.2256
16801TIP3    H271895   5.577   0.808  11.310 -0.4538 -1.1100  0.7919
16802TIP3   OH271896   6.022   5.460   1.735  0.6383  0.4071 -0.2717
16802TIP3    H171897   6.066   5.376   1.747 -0.0694  0.0948  0.2227
16802TIP3    H271898   5.930   5.438   1.727  0.3313  1.1955  0.7645
16803TIP3   OH271899   4.378   3.935   3.849  0.1351  0.1366 -0.4817
16803TIP3    H171900   4.385   3.849   3.807 -0.9372 -0.6330  0.8345
16803TIP3    H271901   4.328   3.988   3.788 -0.7861 -0.7452 -0.5163
16804TIP3   OH271902   6.207   5.527  16.994 -0.0185  0.5609 -0.2167
16804TIP3    H171903   6.292   5.518  17.037  0.0235  1.8113 -0.0154
16804TIP3    H271904   6.175   5.437  16.985  1.1647  0.1036  0.0223
16805TIP3   OH271905   6.766   6.500   1.689  0.1337 -0.7109 -0.1451
16805TIP3    H171906   6.755   6.530   1.779 -1.0948 -0.5118 -0.3490
16805TIP3    H271907   6.808   6.414   1.698  0.2917 -0.5650  0.5959
16806TIP3   OH271908   5.523   3.253   6.222  0.1020  0.0116  0.0705
16806TIP3    H171909   5.561   3.174   6.260 -1.7460 -0.5453  0.9052
16806TIP3    H271910   5.434   3.256   6.258  0.4964  3.1779  1.0788
16807TIP3   OH271911   6.125   5.635   4.341 -0.2355  0.5757  0.1129
16807TIP3    H171912   6.157   5.546   4.359 -1.8439 -0.2976 -1.1031
16807TIP3    H271913   6.193   5.675   4.288  0.6626  0.2186  0.9493
16808TIP3   OH271914   6.507   0.494  13.550  0.3653  0.1201 -0.2036
16808TIP3    H171915   6.573   0.516  13.485  0.8312 -0.2012  0.1556
16808TIP3    H271916   6.527   0.405  13.577  0.6102  0.4846  0.8821
16809TIP3   OH271917   6.377   3.865   2.738  0.3610  0.1237  0.4983
16809TIP3    H171918   6.421   3.931   2.685 -0.2753  0.9907  1.0230
16809TIP3    H271919   6.287   3.864   2.704  0.7800 -1.7677 -0.7044
16810TIP3   OH271920   1.998   5.784   3.308  0.0540  0.1463 -0.2558
16810TIP3    H171921   2.009   5.833   3.390  0.4097 -1.2077  0.5287
16810TIP3    H271922   1.906   5.797   3.284  0.2349  1.5250 -0.3064
16811TIP3   OH271923   6.739   0.701  13.689  0.1506 -0.0574  0.8654
16811TIP3    H171924   6.815   0.748  13.723  0.4215  0.9427 -0.9708
16811TIP3    H271925   6.776   0.634  13.632 -0.3250  0.0149  0.4676
16812TIP3   OH271926   3.088   3.005  16.314 -0.3957 -0.2037  0.4275
16812TIP3    H171927   3.180   3.008  16.339 -0.6588 -0.6788  1.5411
16812TIP3    H271928   3.078   3.073  16.248  1.0593 -1.1155 -0.7892
16813TIP3   OH271929   2.551   2.325  16.062  0.7374 -0.6553 -0.0686
16813TIP3    H171930   2.614   2.279  16.007  1.6617 -0.4886  0.8185
16813TIP3    H271931   2.537   2.266  16.136  1.0118 -0.0281  0.4838
16814TIP3   OH271932   0.444   3.449  16.843 -0.3854  0.0079 -0.0989
16814TIP3    H171933   0.451   3.354  16.838 -0.8269 -0.0979  0.9946
16814TIP3    H271934   0.534   3.480  16.839 -0.2143 -0.4748 -0.1033
16815TIP3   OH271935   4.341   1.837   2.771  0.0505  0.2064  0.0443
16815TIP3    H171936   4.302   1.820   2.856 -0.1417  0.5568  0.0295
16815TIP3    H271937   4.321   1.929   2.754  0.7439  0.3474 -0.0340
16816TIP3   OH271938   0.867   3.557   1.162 -0.4256  0.4011  0.6031
16816TIP3    H171939   0.807   3.536   1.090 -0.6502 -1.1176  1.2100
16816TIP3    H271940   0.907   3.473   1.186  1.7404  1.3161  0.4241
16817TIP3   OH271941   2.047   5.087   1.884 -0.9804 -0.0584 -0.3306
16817TIP3    H171942   2.090   5.092   1.969 -0.3778 -1.9457 -0.4744
16817TIP3    H271943   2.111   5.124   1.823 -1.1178  0.6163 -0.0778
16818TIP3   OH271944   6.789   1.373  10.835  0.0509 -0.0094  0.1911
16818TIP3    H171945   6.853   1.437  10.866 -0.0987 -0.5235  1.6055
16818TIP3    H271946   6.773   1.398  10.744  1.1467  1.0210  0.2576
16819TIP3   OH271947   2.364   2.589   3.989  0.3905  0.0320 -0.3500
16819TIP3    H171948   2.387   2.621   3.901  0.6833 -2.4945 -1.2753
16819TIP3    H271949   2.283   2.540   3.975  1.4067 -1.9605  0.3774
16820TIP3   OH271950   6.311   1.010  12.353 -0.4211  0.2109 -0.0654
16820TIP3    H171951   6.340   1.057  12.431  0.5653 -2.0797  1.0549
16820TIP3    H271952   6.216   1.002  12.364 -0.2388 -0.5245  1.2187
16821TIP3   OH271953   4.237   5.654  16.310 -0.6774  0.3316  0.8887
16821TIP3    H171954   4.288   5.646  16.391  2.7842 -0.2123 -1.1381
16821TIP3    H271955   4.244   5.567  16.270 -0.6679  1.1081 -0.8492
16822TIP3   OH271956   6.763   6.095  13.431 -0.2606 -0.0841 -0.1977
16822TIP3    H171957   6.816   6.021  13.460  2.0964  0.9077 -1.6755
16822TIP3    H271958   6.746   6.145  13.511  1.2566 -0.3142  0.2972
16823TIP3   OH271959   3.549   3.140  12.834  0.1492  0.0669 -1.1920
16823TIP3    H171960   3.548   3.222  12.784 -1.7215  0.7971 -0.0751
16823TIP3    H271961   3.527   3.072  12.771  1.4317  0.4412 -2.0760
16824TIP3   OH271962   5.540   2.687  12.588  0.1161 -0.3715 -0.0513
16824TIP3    H171963   5.593   2.742  12.646 -0.5110 -0.1178  0.2937
16824TIP3    H271964   5.459   2.670  12.637 -0.4694 -0.0789 -0.8763
16825TIP3   OH271965   2.373   4.502  12.256 -0.1544  0.0319 -0.1675
16825TIP3    H171966   2.309   4.448  12.303 -1.3539 -1.5772 -3.3628
16825TIP3    H271967   2.439   4.439  12.227  0.5558  0.9782 -0.6291
16826TIP3   OH271968   2.461   6.227   2.597  0.0026  0.0647 -0.5110
16826TIP3    H171969   2.432   6.225   2.506  0.3967 -0.3904 -0.6295
16826TIP3    H271970   2.509   6.145   2.609 -0.3479 -0.0500  0.2056
16827TIP3   OH271971   5.242   3.635  16.937 -0.2022 -0.5381  0.8073
16827TIP3    H171972   5.228   3.595  17.023  2.6986 -0.9969  1.1827
16827TIP3    H271973   5.302   3.708  16.954 -1.1148  0.5912 -0.6003
16828TIP3   OH271974   1.350   3.792  14.065 -0.2108 -0.9419 -0.2153
16828TIP3    H171975   1.378   3.866  14.012 -1.3013  0.2937  0.8592
16828TIP3    H271976   1.384   3.715  14.020 -0.4036  0.1062 -2.2384
16829TIP3   OH271977   2.362   3.852  15.996 -0.6357  0.0735  0.0733
16829TIP3    H171978   2.298   3.885  15.933 -0.0433 -0.7056 -0.9727
16829TIP3    H271979   2.352   3.909  16.072 -1.6502  0.7899 -0.5672
16830TIP3   OH271980   0.531   2.795  17.009 -0.0574 -0.6834  0.1038
16830TIP3    H171981   0.609   2.813  17.061  0.1164  1.8666 -0.9074
16830TIP3    H271982   0.551   2.831  16.923 -2.8780  1.5527  0.2335
16831TIP3   OH271983   0.742   5.600  13.075 -0.3922  0.0087 -0.1436
16831TIP3    H171984   0.713   5.691  13.084  1.5739  0.8367 -1.2239
16831TIP3    H271985   0.795   5.584  13.153 -0.1142  0.0693 -0.3172
16832TIP3   OH271986   4.724   3.463   0.012 -0.7867  0.3528  0.1206
16832TIP3    H171987   4.694   3.450  -0.078  0.7526  0.8704 -0.5004
16832TIP3    H271988   4.677   3.540   0.042  0.4570  1.6760 -1.1346
16833TIP3   OH271989   3.236   3.200  15.958 -0.8090 -0.0526  0.0756
16833TIP3    H171990   3.282   3.134  16.010 -0.2501 -0.5134 -0.9740
16833TIP3    H271991   3.148   3.202  15.995 -0.4344 -0.3848  1.0176
16834TIP3   OH271992   1.514   2.629   0.846  0.1149 -0.2413  0.0393
16834TIP3    H171993   1.453   2.560   0.817  0.1212  0.4041 -1.6107
16834TIP3    H271994   1.484   2.652   0.934 -0.4775 -1.6750  0.2443
16835TIP3   OH271995   0.548   5.161   4.998 -0.3075  0.1840 -0.1674
16835TIP3    H171996   0.594   5.212   4.930  1.8254 -0.0646  0.9930
16835TIP3    H271997   0.590   5.076   4.996 -1.2684 -0.3165  0.4675
16836TIP3   OH271998   3.547   4.723   1.538 -0.1319 -0.0855  0.1904
16836TIP3    H171999   3.487   4.740   1.611  0.2948 -1.2377  0.8391
16836TIP3    H272000   3.598   4.647   1.566 -0.5357 -1.1017 -1.6556
16837TIP3   OH272001   0.243   2.477  11.091  0.5052  0.5955 -0.0734
16837TIP3    H172002   0.229   2.432  11.174  0.8986  2.4662  1.0885
16837TIP3    H272003   0.274   2.409  11.031  2.1027 -0.4949  1.8458
16838TIP3   OH272004   3.008   1.153   2.679 -0.1704 -0.3708  0.5394
16838TIP3    H172005   3.080   1.142   2.741  0.3038 -1.6243 -0.2097
16838TIP3    H272006   3.044   1.211   2.611 -0.6946  1.0140  1.3901
16839TIP3   OH272007   5.164   5.509   1.668 -0.6988  0.1339 -0.0731
16839TIP3    H172008   5.149   5.417   1.687 -0.4947  0.4337  1.6267
16839TIP3    H272009   5.169   5.512   1.572 -0.6459 -1.6153 -0.1668
16840TIP3   OH272010   3.322   4.104   1.753  0.6740  0.3823 -0.3220
16840TIP3    H172011   3.317   4.017   1.714 -0.4886  0.7166 -0.9527
16840TIP3    H272012   3.394   4.147   1.707 -0.2586  0.5455 -1.6829
16841TIP3   OH272013   2.118   1.499   1.106  0.3021 -0.5894  0.3235
16841TIP3    H172014   2.086   1.409   1.109  0.1116 -0.5799 -0.8849
16841TIP3    H272015   2.123   1.520   1.012 -0.5361  0.9687  0.5860
16842TIP3   OH272016   2.269   4.495   4.605 -0.4100  0.4978 -0.1503
16842TIP3    H172017   2.250   4.423   4.544 -0.7927  0.2789  0.2251
16842TIP3    H272018   2.350   4.533   4.572  0.8939 -1.3377  0.7636
16843TIP3   OH272019   3.000   6.517  14.091  0.5469  0.4001  0.2691
16843TIP3    H172020   3.039   6.497  14.176 -0.6035 -0.5690  0.5999
16843TIP3    H272021   2.951   6.598  14.105 -0.0989 -0.0575  0.6937
16844TIP3   OH272022   6.488   3.629  12.754  0.2155 -0.4185 -0.2137
16844TIP3    H172023   6.462   3.693  12.820 -0.7217 -0.3717 -0.6080
16844TIP3    H272024   6.455   3.546  12.787 -0.2518 -0.3958 -0.6082
16845TIP3   OH272025   3.617   5.684   6.497  0.2092 -0.1660  0.6918
16845TIP3    H172026   3.538   5.630   6.493  0.4968 -0.6472  1.2995
16845TIP3    H272027   3.587   5.773   6.479 -0.1425 -0.6285 -1.2627
16846TIP3   OH272028   5.387   5.958  11.495 -0.2958  0.2298 -0.2665
16846TIP3    H172029   5.303   5.937  11.535 -0.0241 -0.5465 -0.0850
16846TIP3    H272030   5.409   6.044  11.529 -0.7145  0.1654  0.1761
16847TIP3   OH272031   4.948   5.911  14.418 -0.6825  0.0722  0.3562
16847TIP3    H172032   4.960   5.946  14.506  0.5137  0.9735 -0.1290
16847TIP3    H272033   5.021   5.851  14.405  0.2370  1.3535 -0.6544
16848TIP3   OH272034   2.463   1.464  16.246 -0.2341 -0.0766 -0.2545
16848TIP3    H172035   2.415   1.503  16.319  0.3326 -1.1831  0.7407
16848TIP3    H272036   2.401   1.404  16.205  0.2779 -1.6706  1.1630
16849TIP3   OH272037   5.451   2.949   2.116 -0.0190  0.4570 -0.2337
16849TIP3    H172038   5.478   3.024   2.170 -1.5011  0.7147  0.1773
16849TIP3    H272039   5.531   2.897   2.107  0.7341  1.4357  0.5377
16850TIP3   OH272040   1.316   4.167  12.897  0.0549  0.1715 -0.7175
16850TIP3    H172041   1.283   4.237  12.953 -1.6269 -0.5964 -0.6781
16850TIP3    H272042   1.365   4.110  12.956  0.7108  0.8576 -0.5896
16851TIP3   OH272043   6.620   1.739  13.672 -0.0740  0.0867 -0.3706
16851TIP3    H172044   6.676   1.668  13.703 -0.4191  0.2735  0.7536
16851TIP3    H272045   6.679   1.797  13.624  0.3363 -0.6206 -0.7314
16852TIP3   OH272046   2.486   5.073   4.067 -0.1590 -0.0238 -0.2070
16852TIP3    H172047   2.575   5.075   4.032  0.0874  0.3941  0.4208
16852TIP3    H272048   2.430   5.091   3.992  0.3660  0.9477 -0.3773
16853TIP3   OH272049   3.870   6.833  13.424  0.1825  0.4459 -0.2300
16853TIP3    H172050   3.818   6.908  13.455  0.4583  0.6346 -0.2190
16853TIP3    H272051   3.816   6.757  13.443  0.4968  0.5249  1.0220
16854TIP3   OH272052   5.122   3.012  12.409 -0.0867  0.5110  0.0531
16854TIP3    H172053   5.089   3.088  12.456  0.6292 -0.0275  1.4965
16854TIP3    H272054   5.217   3.015  12.422  0.0435 -0.0983 -0.6921
16855TIP3   OH272055   5.664   3.294  11.336  1.0336  0.2328 -0.0095
16855TIP3    H172056   5.738   3.234  11.341  1.2512  0.5906  1.1884
16855TIP3    H272057   5.595   3.253  11.388  0.2146 -0.2774 -1.4063
16856TIP3   OH272058   1.088   3.616   4.441  0.7618  0.0139  0.0224
16856TIP3    H172059   1.001   3.652   4.457  0.8629  0.1534  0.2647
16856TIP3    H272060   1.141   3.647   4.515  1.2322  0.6665 -0.5757
16857TIP3   OH272061   5.409   1.886  14.228  0.3215 -0.0362 -0.7375
16857TIP3    H172062   5.488   1.832  14.230 -1.6856 -3.2445 -0.6229
16857TIP3    H272063   5.375   1.881  14.317  0.6717  2.5639 -0.3955
16858TIP3   OH272064   2.468   2.686   4.409 -0.1533  0.0403  0.7100
16858TIP3    H172065   2.500   2.773   4.385  0.0261  0.1797  1.4195
16858TIP3    H272066   2.405   2.664   4.341  1.8563 -0.5097 -1.0906
16859TIP3   OH272067   5.627   3.744  15.513  0.2843  0.3518 -0.1155
16859TIP3    H172068   5.564   3.731  15.442 -1.3668  0.7050  1.2208
16859TIP3    H272069   5.661   3.833  15.499  0.9867 -0.0720 -1.2022
16860TIP3   OH272070   6.088   5.326   2.698 -0.6710  0.5035 -0.6378
16860TIP3    H172071   6.049   5.339   2.785 -1.0592  0.4367 -0.8018
16860TIP3    H272072   6.170   5.375   2.702  0.1168 -0.8347  0.3150
16861TIP3   OH272073   1.779   6.326  11.976  0.4875  0.0143 -0.0709
16861TIP3    H172074   1.768   6.297  11.886 -1.0062  1.4462 -0.3859
16861TIP3    H272075   1.870   6.355  11.980  0.6362 -0.2678 -1.0391
16862TIP3   OH272076   2.751   5.893   2.771  0.4533 -0.3863 -0.3844
16862TIP3    H172077   2.717   5.817   2.819  0.9724 -0.4012 -0.0224
16862TIP3    H272078   2.846   5.879   2.769  0.5247  0.1000 -0.5848
16863TIP3   OH272079   5.565   0.502   5.728  0.2305  0.1101  0.0520
16863TIP3    H172080   5.627   0.575   5.722  0.5627 -0.1149  0.7402
16863TIP3    H272081   5.540   0.499   5.820 -0.5035 -0.0559 -0.1481
16864TIP3   OH272082   0.278   6.743  10.853  0.4809  0.0494 -0.0954
16864TIP3    H172083   0.312   6.826  10.819  0.3310  0.9157  1.7443
16864TIP3    H272084   0.247   6.696  10.775 -2.0937  2.9366 -1.0256
16865TIP3   OH272085   1.392   3.496  14.024 -0.5673 -0.4420  0.5266
16865TIP3    H172086   1.450   3.470  14.095 -1.8680  0.0565  1.8273
16865TIP3    H272087   1.304   3.495  14.063 -1.5847 -2.0207 -1.5913
16866TIP3   OH272088   5.226   6.151   0.698 -0.1075  0.0775  0.9821
16866TIP3    H172089   5.258   6.240   0.715 -0.2990  0.2265  0.5739
16866TIP3    H272090   5.249   6.102   0.777  2.7087 -0.2596  0.0776
16867TIP3   OH272091   5.031   2.389   1.313  0.5143  0.2097 -0.5331
16867TIP3    H172092   5.033   2.454   1.384 -2.4882  0.3658 -0.4453
16867TIP3    H272093   5.025   2.441   1.233 -4.5941  0.3810 -0.3559
16868TIP3   OH272094   2.198   6.260   3.365 -0.0222 -0.9268 -0.5364
16868TIP3    H172095   2.125   6.308   3.405  0.7967 -1.9386  2.3898
16868TIP3    H272096   2.156   6.192   3.313 -1.2054 -1.4422  1.0318
16869TIP3   OH272097   5.456   5.266  15.435 -0.2690  0.4318  0.1955
16869TIP3    H172098   5.406   5.253  15.355 -0.5457 -0.7493  0.5395
16869TIP3    H272099   5.519   5.193  15.436 -2.0741 -1.2467  2.3588
16870TIP3   OH272100   5.235   5.810   4.471 -0.0176  0.5960 -0.3982
16870TIP3    H172101   5.318   5.826   4.516 -1.1929 -1.1634  2.6381
16870TIP3    H272102   5.216   5.893   4.426  1.4927  2.3656  2.0068
16871TIP3   OH272103   1.704   3.047   0.605  0.0487 -0.1787  0.8545
16871TIP3    H172104   1.649   3.124   0.615  1.3539  0.6053  2.4167
16871TIP3    H272105   1.715   3.037   0.510 -0.4529  1.3338  0.6194
16872TIP3   OH272106   2.091   0.493  14.040  0.0246 -0.0102 -0.4362
16872TIP3    H172107   2.004   0.525  14.017 -0.2201 -1.2010 -1.2749
16872TIP3    H272108   2.150   0.565  14.016 -0.7060  0.8025  0.1296
16873TIP3   OH272109   3.234   1.175  12.055 -0.1659  0.2236  0.0746
16873TIP3    H172110   3.310   1.142  12.007 -1.3234 -0.9407 -1.0304
16873TIP3    H272111   3.233   1.122  12.135 -1.6035 -2.1160 -1.3700
16874TIP3   OH272112   5.086   6.691   2.641  0.0427  0.0936  0.6064
16874TIP3    H172113   5.143   6.749   2.692 -1.8115  1.5584  1.1130
16874TIP3    H272114   5.032   6.750   2.589  0.5957 -1.3206 -1.7071
16875TIP3   OH272115   1.967   0.039  15.161  0.4102  0.3205  0.1460
16875TIP3    H172116   1.895  -0.016  15.191  0.3473  0.2444 -0.1423
16875TIP3    H272117   2.035  -0.022  15.134  0.0879  0.3708 -0.7939
16876TIP3   OH272118   4.579   1.096   1.091 -0.0105 -0.1147 -0.1103
16876TIP3    H172119   4.504   1.105   1.033  1.2961  2.1620 -1.6143
16876TIP3    H272120   4.617   1.184   1.095  3.1396 -1.3415 -0.2382
16877TIP3   OH272121   2.029   0.001  14.769  0.1491 -1.2481  0.2111
16877TIP3    H172122   2.002   0.072  14.710  1.2670 -0.7175  0.3176
16877TIP3    H272123   1.952  -0.056  14.774 -0.9191  0.1485  0.4375
16878TIP3   OH272124   5.040   2.651   2.361 -0.1341  0.4993  0.3683
16878TIP3    H172125   5.068   2.561   2.381  0.3191  0.5407 -0.0636
16878TIP3    H272126   5.112   2.687   2.309  0.1427  1.4483  1.3716
16879TIP3   OH272127   2.490   6.816   1.979  0.4024 -0.6533 -0.5780
16879TIP3    H172128   2.577   6.782   1.999  1.1843  0.3673 -2.0034
16879TIP3    H272129   2.476   6.791   1.887 -0.3481  0.1031 -0.6785
16880TIP3   OH272130   6.817   0.466   1.507 -0.0452  0.4199  0.1536
16880TIP3    H172131   6.746   0.406   1.487  1.9422 -1.5005 -1.8291
16880TIP3    H272132   6.825   0.521   1.429 -0.5368  1.9898  1.1464
16881TIP3   OH272133   5.244   0.838  16.816  0.1101 -1.0361 -0.0854
16881TIP3    H172134   5.214   0.923  16.850 -0.8661 -1.7335  0.8751
16881TIP3    H272135   5.339   0.844  16.817  0.0500  0.0444 -0.0162
16882TIP3   OH272136   0.063   6.006  11.948  0.2218 -0.8297 -0.4822
16882TIP3    H172137   0.044   5.913  11.933  2.1249 -1.1503 -1.1629
16882TIP3    H272138   0.158   6.010  11.960  0.1796  1.0379 -0.4350
16883TIP3   OH272139   6.227   1.387  14.893  0.0489  0.1597 -0.0784
16883TIP3    H172140   6.284   1.327  14.846 -0.1866  0.1923 -0.4055
16883TIP3    H272141   6.142   1.378  14.851  0.1206  1.0800 -0.4467
16884TIP3   OH272142   3.919   3.558   4.291 -0.0785  0.6071 -0.1348
16884TIP3    H172143   3.874   3.557   4.376  2.0916 -1.0950  1.1086
16884TIP3    H272144   3.962   3.643   4.288  1.1493  0.0850  1.2887
16885TIP3   OH272145   2.505   0.304  13.675  0.1608  0.2483  0.3521
16885TIP3    H172146   2.503   0.274  13.585  0.8590  0.8418  0.1301
16885TIP3    H272147   2.511   0.224  13.727 -2.6226 -0.2501  0.0185
16886TIP3   OH272148   1.630   0.069   2.015 -0.2795  0.1462  0.2024
16886TIP3    H172149   1.713   0.117   2.023 -0.2302 -0.1216  1.6027
16886TIP3    H272150   1.600   0.088   1.926  2.0373 -1.0007 -0.9076
16887TIP3   OH272151   4.760   1.392   2.079 -0.3327  0.4525 -0.6729
16887TIP3    H172152   4.816   1.385   2.156 -0.9129 -0.2196 -0.3071
16887TIP3    H272153   4.674   1.415   2.113 -0.3829  1.0943 -1.2015
16888TIP3   OH272154   3.114   1.313  13.305  0.1358  0.0351  0.3385
16888TIP3    H172155   3.188   1.373  13.319  0.8079 -0.4997 -0.8115
16888TIP3    H272156   3.150   1.226  13.324  0.0248 -0.3066 -0.9236
16889TIP3   OH272157   1.145   3.377  14.766  0.0240 -0.1694 -0.4688
16889TIP3    H172158   1.137   3.292  14.810 -1.3949  1.1760  2.1195
16889TIP3    H272159   1.077   3.376  14.699  1.0325 -1.6064 -1.5166
16890TIP3   OH272160   3.346   4.556  15.502  0.2384 -0.6329 -0.7628
16890TIP3    H172161   3.290   4.556  15.580  0.4425 -0.2410 -0.6152
16890TIP3    H272162   3.323   4.638  15.456  2.0036  0.4882  0.2510
16891TIP3   OH272163   0.508   5.521  15.585 -0.3743  0.5377 -0.2704
16891TIP3    H172164   0.588   5.522  15.636 -0.3272  1.0159 -0.3539
16891TIP3    H272165   0.498   5.430  15.558  0.9756  0.7412 -1.5666
16892TIP3   OH272166   6.658   3.606   0.178 -0.3856 -0.6634  0.3071
16892TIP3    H172167   6.645   3.560   0.095  1.6810 -0.2924 -0.2772
16892TIP3    H272168   6.620   3.693   0.163  0.7502 -0.2855 -0.6259
16893TIP3   OH272169   4.162   2.415  12.405 -0.2317 -0.2228 -0.1014
16893TIP3    H172170   4.147   2.464  12.324  1.3099  3.1365  1.4463
16893TIP3    H272171   4.103   2.456  12.468 -0.3441 -1.7814  0.8485
16894TIP3   OH272172   4.691   2.391   4.928 -0.2540  0.3023  0.1675
16894TIP3    H172173   4.710   2.362   5.017 -2.5687  0.4300  0.7838
16894TIP3    H272174   4.674   2.485   4.937  0.4569  0.5140 -0.6027
16895TIP3   OH272175   1.874   6.736   4.555  0.4843  0.1408 -0.3323
16895TIP3    H172176   1.790   6.764   4.594  0.2806  0.0038 -0.6664
16895TIP3    H272177   1.903   6.664   4.609 -1.1123 -1.8334 -1.9301
16896TIP3   OH272178   3.385   1.989   5.613  0.3400 -0.2842 -0.6278
16896TIP3    H172179   3.371   1.897   5.594  2.1598 -0.6900 -0.1787
16896TIP3    H272180   3.477   2.005   5.591  0.1167  1.3820 -0.5304
16897TIP3   OH272181   2.320   1.467   5.329 -1.0313  0.0133  0.4239
16897TIP3    H172182   2.405   1.450   5.369 -0.6970  0.4519 -0.0860
16897TIP3    H272183   2.311   1.401   5.261 -0.2395  1.1262 -0.7946
16898TIP3   OH272184   5.626   6.173  11.897 -0.2302  0.1138 -0.2897
16898TIP3    H172185   5.691   6.205  11.834 -0.6959 -0.5395 -1.1364
16898TIP3    H272186   5.677   6.125  11.962  0.2825  0.9807 -0.0360
16899TIP3   OH272187   3.576   3.284  14.328 -0.3050 -0.1069  0.1894
16899TIP3    H172188   3.614   3.232  14.399  0.1273 -0.6520 -0.4306
16899TIP3    H272189   3.482   3.280  14.343 -0.1986  2.2077  2.4313
16900TIP3   OH272190   6.495   0.917   2.919  0.3507 -0.4215 -0.5155
16900TIP3    H172191   6.451   0.840   2.882  0.3119 -1.6882  1.9849
16900TIP3    H272192   6.551   0.883   2.988 -0.4765  1.8486  1.4384
16901TIP3   OH272193   0.304   5.314  15.811  0.1798 -0.5060 -0.4721
16901TIP3    H172194   0.380   5.273  15.771  0.8066 -1.0242  1.1663
16901TIP3    H272195   0.339   5.388  15.860 -0.3871 -0.5701  0.0456
16902TIP3   OH272196   6.639   5.415   3.392  0.2722  0.0930 -0.4733
16902TIP3    H172197   6.655   5.509   3.406  1.4306 -0.0696 -0.5629
16902TIP3    H272198   6.544   5.407   3.386  0.2131  1.5400 -2.3775
16903TIP3   OH272199   4.957   0.596   1.554 -0.1329  0.2984  0.5956
16903TIP3    H172200   4.940   0.515   1.506  1.3471 -0.9938  2.1351
16903TIP3    H272201   4.976   0.568   1.644  2.8389  2.0681  0.6655
16904TIP3   OH272202   1.202   4.929  13.730  0.0151 -0.5559  0.4506
16904TIP3    H172203   1.126   4.873  13.712 -0.7679  0.7366 -0.4815
16904TIP3    H272204   1.200   4.994  13.660  1.0428  0.4824  1.3512
16905TIP3   OH272205   6.170   0.712  11.563  0.5340  0.1773 -0.3871
16905TIP3    H172206   6.179   0.783  11.627 -0.0160  1.3549 -1.5775
16905TIP3    H272207   6.217   0.744  11.485  0.7997 -1.0353 -0.7429
16906TIP3   OH272208   4.996   3.172   4.020 -0.2235  0.1783 -0.0701
16906TIP3    H172209   4.968   3.239   4.083  0.1191  0.6200 -0.3717
16906TIP3    H272210   5.082   3.144   4.053  0.3775  1.0703 -0.8171
16907TIP3   OH272211   5.818   1.696  12.096 -0.4831 -0.2068 -0.0395
16907TIP3    H172212   5.728   1.714  12.068 -1.4940 -1.7093  1.9846
16907TIP3    H272213   5.816   1.604  12.124  1.1069  0.3546  2.1268
16908TIP3   OH272214   1.847   1.610   4.943 -0.1781  0.6606  0.7964
16908TIP3    H172215   1.762   1.567   4.945 -0.0616  0.3651 -0.2303
16908TIP3    H272216   1.910   1.539   4.957 -0.0016  0.5127 -0.6113
16909TIP3   OH272217   3.369   6.677   1.400  0.1313 -0.6199  0.6865
16909TIP3    H172218   3.280   6.685   1.365  0.2148  2.2055  0.8885
16909TIP3    H272219   3.370   6.592   1.444 -2.1263 -1.1828 -0.2110
16910TIP3   OH272220   1.076   4.002  15.130 -0.2866  0.0821 -0.2317
16910TIP3    H172221   1.128   4.043  15.199 -1.4165  0.4526  0.4390
16910TIP3    H272222   1.098   3.909  15.136  0.6984  0.2934 -0.3446
16911TIP3   OH272223   0.652   1.655   4.875 -0.4063 -0.2567 -0.2159
16911TIP3    H172224   0.604   1.584   4.833 -1.0789  0.5369 -0.8109
16911TIP3    H272225   0.621   1.655   4.965  1.5170 -2.3964  0.5679
16912TIP3   OH272226   5.597   1.276  15.995 -0.2326 -0.0409 -0.3401
16912TIP3    H172227   5.608   1.258  16.089 -0.8213 -0.8996 -0.4261
16912TIP3    H272228   5.549   1.201  15.962  0.0991  0.1900 -1.3723
16913TIP3   OH272229   1.676   5.157  13.376  0.1797 -0.2457  0.1686
16913TIP3    H172230   1.620   5.184  13.449 -0.1584 -2.7805  0.9815
16913TIP3    H272231   1.639   5.200  13.299 -1.6851 -0.2638  1.0014
16914TIP3   OH272232   4.825   3.289   1.670  0.3694  0.8806  0.0173
16914TIP3    H172233   4.896   3.286   1.734 -1.1778 -0.8172  1.7752
16914TIP3    H272234   4.835   3.209   1.619 -0.2619  0.6440  0.2606
16915TIP3   OH272235   2.641   5.383   4.671  0.1158 -0.3180  0.0909
16915TIP3    H172236   2.726   5.420   4.648  0.3928 -1.9520 -1.7305
16915TIP3    H272237   2.580   5.419   4.606 -0.2096 -0.6528  0.2041
16916TIP3   OH272238   6.715   4.633   4.375 -0.0863  0.3817 -0.2259
16916TIP3    H172239   6.712   4.617   4.470  0.1761 -1.6104 -0.5121
16916TIP3    H272240   6.788   4.580   4.344  2.2011  3.7788 -1.1235
16917TIP3   OH272241   2.633   3.063   0.237 -0.0446 -0.0265  0.2394
16917TIP3    H172242   2.727   3.082   0.246 -0.3300  0.9424  1.4995
16917TIP3    H272243   2.595   3.145   0.206 -0.4610 -0.4513 -0.3798
16918TIP3   OH272244   3.587   3.812  16.480 -0.1763 -0.3157 -0.6208
16918TIP3    H172245   3.526   3.873  16.523  0.5165  0.3846 -0.6044
16918TIP3    H272246   3.582   3.833  16.387  1.7569  1.4102 -0.4142
16919TIP3   OH272247   5.718   2.764  13.340 -0.4005  0.2034 -0.2989
16919TIP3    H172248   5.694   2.689  13.285 -0.5399 -1.2535  1.6251
16919TIP3    H272249   5.646   2.770  13.403  1.1246 -0.1463  1.5861
16920TIP3   OH272250   6.274   1.634  14.602  0.1365 -0.5493 -0.5748
16920TIP3    H172251   6.335   1.566  14.629  0.2385 -0.3456 -0.2863
16920TIP3    H272252   6.230   1.598  14.525  0.1908 -0.9392 -0.4249
16921TIP3   OH272253   6.755   1.824   6.003  0.1384 -0.1525  0.2493
16921TIP3    H172254   6.739   1.900   6.058  0.2039 -0.4182  0.6381
16921TIP3    H272255   6.769   1.752   6.064 -0.8836 -0.6807 -0.1130
16922TIP3   OH272256   3.689   6.413  11.976 -0.4540 -0.0265 -0.1417
16922TIP3    H172257   3.763   6.449  12.025 -0.8868  1.2389 -0.3820
16922TIP3    H272258   3.612   6.450  12.019 -0.9903 -1.7420  0.4344
16923TIP3   OH272259   2.561   5.316   1.834  0.4737  0.1912 -0.1960
16923TIP3    H172260   2.620   5.345   1.902  0.9470 -1.6599  0.2373
16923TIP3    H272261   2.617   5.302   1.757  0.6719 -1.6296  0.2347
16924TIP3   OH272262   6.337   3.907  14.383  0.0098 -0.0807 -0.7963
16924TIP3    H172263   6.279   3.879  14.312  0.9469  2.5474 -2.7561
16924TIP3    H272264   6.423   3.875  14.358  0.2502  0.3288 -0.4952
16925TIP3   OH272265   3.214   0.066   0.884  0.6865 -0.0376  0.4458
16925TIP3    H172266   3.171   0.106   0.959 -0.5275 -0.4931  0.0309
16925TIP3    H272267   3.303   0.100   0.885  0.7872 -0.3019  2.2677
16926TIP3   OH272268   4.288   6.317  13.051  0.2524  0.3711 -0.1008
16926TIP3    H172269   4.379   6.299  13.076  0.5575  0.4493 -1.0928
16926TIP3    H272270   4.283   6.290  12.959 -1.1764 -1.1503  0.3926
16927TIP3   OH272271   6.327   1.667  12.362 -0.6944 -0.3395  0.3325
16927TIP3    H172272   6.305   1.584  12.320  0.6432 -1.1073  1.0955
16927TIP3    H272273   6.319   1.649  12.456 -0.3627  0.3789  0.5056
16928TIP3   OH272274   0.021   0.228  11.216  0.1221  0.0225 -0.2005
16928TIP3    H172275  -0.016   0.294  11.158 -2.3598 -1.6780 -0.7171
16928TIP3    H272276   0.104   0.203  11.175 -0.3161  0.7402 -1.5718
16929TIP3   OH272277   2.015   4.102   2.472  0.0075 -0.7574 -0.5329
16929TIP3    H172278   1.926   4.070   2.455  1.2211 -4.0627 -1.5468
16929TIP3    H272279   2.046   4.048   2.544  0.5796  1.8042  1.2683
16930TIP3   OH272280   4.742   3.797  12.923  0.5030 -0.3722 -0.1755
16930TIP3    H172281   4.664   3.843  12.954  0.9111  0.0042  0.2994
16930TIP3    H272282   4.725   3.705  12.946  0.2599 -0.2731  0.0581
16931TIP3   OH272283   1.028   2.008  16.329 -0.1284 -0.2280 -0.0189
16931TIP3    H172284   0.981   1.957  16.395 -1.1689 -0.8267 -1.1890
16931TIP3    H272285   1.051   1.945  16.261  1.4177  0.2681 -0.0071
16932TIP3   OH272286   2.285   1.138   3.216 -0.2738  0.0149 -0.3302
16932TIP3    H172287   2.242   1.053   3.225  2.4840 -1.4345  0.3037
16932TIP3    H272288   2.247   1.191   3.285 -1.0619 -1.1533  0.1716
16933TIP3   OH272289   4.384   2.211  12.216 -0.2098 -0.2763 -0.1719
16933TIP3    H172290   4.415   2.295  12.250 -0.9239  0.6531 -1.7301
16933TIP3    H272291   4.451   2.148  12.244  0.2488  0.7586  1.1787
16934TIP3   OH272292   2.055   2.568  14.924  0.2484  0.1808 -0.1545
16934TIP3    H172293   1.975   2.612  14.896  0.3131 -0.2662 -1.0765
16934TIP3    H272294   2.123   2.600  14.865  0.8247  0.7691  0.7950
16935TIP3   OH272295   6.424   6.200  14.841 -0.2923  0.1358  0.1357
16935TIP3    H172296   6.376   6.224  14.761 -1.2438  0.1379  0.6947
16935TIP3    H272297   6.488   6.135  14.811  1.2394  2.0878 -1.1180
16936TIP3   OH272298   0.054   5.916   4.240  0.3037 -0.8242  0.0151
16936TIP3    H172299  -0.040   5.898   4.232 -0.2783  2.2997 -1.5205
16936TIP3    H272300   0.088   5.904   4.151  1.3037 -1.4685  0.4661
16937TIP3   OH272301   6.487   2.530  17.123  0.2736 -0.1639 -0.0703
16937TIP3    H172302   6.393   2.535  17.104  0.6010  0.5722 -1.5554
16937TIP3    H272303   6.502   2.603  17.184  0.0600  0.3603 -0.6310
16938TIP3   OH272304   0.343   4.063   1.369  0.5656 -0.1583  0.4117
16938TIP3    H172305   0.407   4.131   1.392 -0.2934  0.1036  2.2303
16938TIP3    H272306   0.323   4.021   1.452 -1.2283 -0.5880 -0.2015
16939TIP3   OH272307   6.085   3.250  14.549  0.4222 -0.0911  0.3082
16939TIP3    H172308   6.048   3.304  14.479  0.5524 -0.1442  0.1956
16939TIP3    H272309   6.033   3.170  14.548  2.0250 -1.1939 -1.4740
16940TIP3   OH272310   1.070   2.248  14.466 -0.4074 -0.3436  1.0709
16940TIP3    H172311   0.995   2.201  14.431  0.4807 -1.5379  0.6702
16940TIP3    H272312   1.092   2.313  14.400  0.9197 -2.2173 -0.4327
16941TIP3   OH272313   4.002   0.363   4.845  0.0854 -0.3748  0.4894
16941TIP3    H172314   4.021   0.420   4.920  1.9667 -0.1023 -0.1236
16941TIP3    H272315   4.083   0.313   4.832 -1.2612 -2.7737  0.5895
16942TIP3   OH272316   1.507   0.527  13.816 -0.3472  0.1464  0.3341
16942TIP3    H172317   1.586   0.533  13.870 -1.0395  0.9087  1.2943
16942TIP3    H272318   1.527   0.580  13.739  0.1976  0.0659  0.4163
16943TIP3   OH272319   0.416   6.378   3.952  0.2127  0.4317 -0.2057
16943TIP3    H172320   0.499   6.375   3.905 -0.8622 -1.8772 -2.1913
16943TIP3    H272321   0.376   6.461   3.925  1.6206  1.3859  0.4754
16944TIP3   OH272322   5.246   4.013  12.556 -0.0897 -0.3770 -0.0799
16944TIP3    H172323   5.208   4.070  12.489 -0.6352 -1.1932 -0.4796
16944TIP3    H272324   5.174   3.998  12.618  0.3369  0.1640  0.5569
16945TIP3   OH272325   5.875   5.360  13.624  0.6609 -0.2583 -0.4092
16945TIP3    H172326   5.964   5.362  13.659  0.3272 -1.6028  0.5849
16945TIP3    H272327   5.857   5.451  13.599  1.0100  0.8104  2.7917
16946TIP3   OH272328   4.276   2.499  16.006 -0.7787 -0.3804 -0.3846
16946TIP3    H172329   4.203   2.437  16.010 -0.1408 -1.2231 -1.2863
16946TIP3    H272330   4.277   2.528  15.915 -1.1931  1.1413  0.0666
16947TIP3   OH272331   5.055   5.178   2.882  0.7004 -0.2270 -0.4705
16947TIP3    H172332   5.146   5.170   2.912  0.2076 -0.3472  1.0791
16947TIP3    H272333   5.022   5.256   2.928 -0.2855 -0.8096 -0.1664
16948TIP3   OH272334   5.772   2.446   1.714 -0.3729  0.1614  0.3749
16948TIP3    H172335   5.760   2.504   1.638 -1.4170 -0.0379  0.3686
16948TIP3    H272336   5.698   2.386   1.709  2.2329 -3.2467 -1.3760
16949TIP3   OH272337   5.754   2.713  14.116  0.0814 -0.1934  0.6096
16949TIP3    H172338   5.820   2.703  14.047  0.9164 -0.9660  1.4906
16949TIP3    H272339   5.754   2.629  14.161 -1.1272 -0.0103  0.9792
16950TIP3   OH272340   5.234   1.301  11.190 -0.0043 -0.3976 -0.0925
16950TIP3    H172341   5.328   1.287  11.180  0.4978  2.1334  0.2626
16950TIP3    H272342   5.200   1.297  11.100  0.2333 -2.2962 -0.1330
16951TIP3   OH272343   3.690   1.118   5.355  0.4717  0.1288  0.6592
16951TIP3    H172344   3.620   1.183   5.349 -0.2897 -0.7207  0.0120
16951TIP3    H272345   3.646   1.038   5.381  0.8341 -0.9178 -1.6777
16952TIP3   OH272346   0.282   2.913  13.369 -0.0723  0.1115 -0.7756
16952TIP3    H172347   0.284   3.002  13.335 -0.0093  0.3886 -0.0721
16952TIP3    H272348   0.198   2.906  13.414  1.4481  1.1523  2.5426
16953TIP3   OH272349   4.728   5.569   2.691  0.2554  0.1405  0.2569
16953TIP3    H172350   4.741   5.561   2.785 -1.0872 -2.5633  0.3043
16953TIP3    H272351   4.753   5.483   2.656 -3.1643 -0.3692 -1.3054
16954TIP3   OH272352   6.296   6.146  15.068  0.3249 -0.2479 -0.5725
16954TIP3    H172353   6.356   6.151  14.994  1.8471  2.3506  0.7180
16954TIP3    H272354   6.331   6.208  15.132 -2.6872 -0.0295  1.0362
16955TIP3   OH272355   5.763   6.373  15.441  0.2704 -0.2340  0.6822
16955TIP3    H172356   5.729   6.304  15.498 -0.7510 -0.7794 -0.5194
16955TIP3    H272357   5.839   6.334  15.399  0.3171 -0.2620  0.7949
16956TIP3   OH272358   6.769   4.631  13.156  0.3796  0.0015 -0.1302
16956TIP3    H172359   6.811   4.600  13.076  1.5535  0.4230  0.3125
16956TIP3    H272360   6.684   4.664  13.126  0.3349 -0.8754 -1.0322
16957TIP3   OH272361   2.187   1.174  16.639  0.4536  0.1992 -0.2033
16957TIP3    H172362   2.183   1.217  16.724 -0.8203 -0.9241  0.3394
16957TIP3    H272363   2.154   1.239  16.578  1.1159  0.9194  0.1853
16958TIP3   OH272364   4.406   3.642   6.769  0.0150 -0.1646  0.3182
16958TIP3    H172365   4.358   3.716   6.732 -0.4844  0.0625  1.3831
16958TIP3    H272366   4.495   3.675   6.781  0.3259 -0.4206 -1.1782
16959TIP3   OH272367   1.400   4.341   0.134  0.0517 -0.0985  0.1968
16959TIP3    H172368   1.312   4.310   0.111 -0.0199  0.1421  0.1459
16959TIP3    H272369   1.387   4.432   0.160  0.1491 -0.3050  1.0286
16960TIP3   OH272370   6.144   1.014  14.936  0.9949  0.1146 -0.2858
16960TIP3    H172371   6.065   1.031  14.987  1.3088  2.0269 -0.3456
16960TIP3    H272372   6.213   1.003  15.002  1.0340  0.5416 -0.2501
16961TIP3   OH272373   1.460   4.455  14.774  0.2098  0.3101  0.5068
16961TIP3    H172374   1.509   4.392  14.722 -0.4927 -0.2248  0.4676
16961TIP3    H272375   1.523   4.523  14.797  1.3280 -1.0499  1.6347
16962TIP3   OH272376   2.412   1.508   1.827 -0.0170 -0.2423 -0.0828
16962TIP3    H172377   2.453   1.430   1.789 -0.1442 -0.0715 -0.5703
16962TIP3    H272378   2.321   1.503   1.798  0.4266  1.1648 -1.8381
16963TIP3   OH272379   2.139   0.262  13.355 -0.4989 -0.2247  0.0546
16963TIP3    H172380   2.055   0.273  13.401 -1.1003 -3.8899  0.1278
16963TIP3    H272381   2.168   0.174  13.379  2.2282  0.0408 -1.8597
16964TIP3   OH272382   6.629   2.644   4.234  0.2494  0.1769 -0.6404
16964TIP3    H172383   6.702   2.623   4.292 -1.3777  0.2425  1.5656
16964TIP3    H272384   6.605   2.734   4.257  0.4127  0.6973 -2.4122
16965TIP3   OH272385   1.769   6.041   0.230  0.1410  0.3652 -1.0645
16965TIP3    H172386   1.826   5.997   0.168 -0.5187  0.0372 -1.4550
16965TIP3    H272387   1.791   6.134   0.221  0.7973  0.2211 -1.0064
16966TIP3   OH272388   2.127   3.431  12.880  0.3070  0.3931  0.1473
16966TIP3    H172389   2.101   3.441  12.971  3.2950 -0.4081  1.2094
16966TIP3    H272390   2.220   3.454  12.879  0.7078 -0.9604 -2.4209
16967TIP3   OH272391   3.429   1.746   4.387 -0.0264 -0.2537  0.0924
16967TIP3    H172392   3.362   1.754   4.318 -0.2478 -0.0346  0.3315
16967TIP3    H272393   3.495   1.689   4.349 -0.8638 -1.3480  0.2487
16968TIP3   OH272394   0.123   6.223   1.945  0.2543  0.2764 -0.0216
16968TIP3    H172395   0.199   6.239   1.890  0.1913  0.8936  0.0660
16968TIP3    H272396   0.099   6.309   1.979  1.9768 -0.3492  3.1924
16969TIP3   OH272397   4.555   2.018   3.837  0.0946 -0.2261  0.1469
16969TIP3    H172398   4.466   2.034   3.808 -0.3169 -1.9026  0.3926
16969TIP3    H272399   4.546   1.991   3.928  0.8344 -0.5714  0.1232
16970TIP3   OH272400   4.886   4.523  13.010  0.0048  0.4495  0.9373
16970TIP3    H172401   4.856   4.454  13.069  0.9274  0.2209  1.1596
16970TIP3    H272402   4.933   4.584  13.067 -1.2303  1.5397  0.8259
16971TIP3   OH272403   0.829   0.944  13.666 -0.4824  0.3554  0.0981
16971TIP3    H172404   0.740   0.917  13.644 -0.6590  1.3550 -0.4930
16971TIP3    H272405   0.885   0.882  13.619 -0.8710  1.4769 -1.9839
16972TIP3   OH272406   2.865   4.816  15.364 -0.3273 -0.3551 -0.1514
16972TIP3    H172407   2.836   4.876  15.432  0.2192 -0.1224 -0.1218
16972TIP3    H272408   2.854   4.729  15.403 -2.7260 -0.3932 -0.7986
16973TIP3   OH272409   5.762   4.577  14.154  0.1141  0.4363 -0.0348
16973TIP3    H172410   5.811   4.630  14.217  0.3384 -0.3372  0.4590
16973TIP3    H272411   5.719   4.511  14.207  0.7526 -0.5742 -0.7311
16974TIP3   OH272412   3.372   4.531  15.944  0.1873  0.2657  1.0268
16974TIP3    H172413   3.407   4.582  15.871 -0.0908 -0.8112  0.1139
16974TIP3    H272414   3.324   4.595  15.996 -0.5918  0.8705 -0.3630
16975TIP3   OH272415   1.814   6.118  14.308  0.3709  0.0255  0.1014
16975TIP3    H172416   1.841   6.026  14.306 -1.7906 -0.6511 -1.2257
16975TIP3    H272417   1.805   6.141  14.215  3.2147  2.3991  0.2598
16976TIP3   OH272418   6.504   0.248  12.530 -0.3837 -0.3098  0.5936
16976TIP3    H172419   6.446   0.216  12.600 -0.6483 -2.6784 -0.6243
16976TIP3    H272420   6.592   0.231  12.562 -0.5059 -1.4891  0.3463
16977TIP3   OH272421   0.453   6.454  12.181  0.0290 -0.1579 -0.6481
16977TIP3    H172422   0.377   6.428  12.130 -1.1339  0.9950  0.4228
16977TIP3    H272423   0.508   6.502  12.120 -1.7858  2.0490 -0.6698
16978TIP3   OH272424   6.668   3.632  12.504 -0.3584 -0.2117  0.1417
16978TIP3    H172425   6.602   3.661  12.567 -0.7171 -1.1204  0.2040
16978TIP3    H272426   6.677   3.538  12.520 -0.4870 -0.4768 -1.1890
16979TIP3   OH272427   6.054   0.482  11.441 -0.4374  0.4242  0.8184
16979TIP3    H172428   6.134   0.433  11.421 -0.4349 -0.5666  3.0177
16979TIP3    H272429   6.081   0.545  11.508 -1.1974  1.1598  0.4557
16980TIP3   OH272430   2.925   3.367  13.402 -0.1712  0.4112 -0.3586
16980TIP3    H172431   2.974   3.393  13.324 -0.7257  1.7331 -0.2883
16980TIP3    H272432   2.981   3.390  13.476  0.3556 -0.8445 -0.3317
16981TIP3   OH272433   1.437   4.201   0.359  0.1632 -0.4635  0.3181
16981TIP3    H172434   1.480   4.262   0.299 -1.0530 -0.9995 -1.1614
16981TIP3    H272435   1.344   4.208   0.339 -0.3461 -0.3194  2.5143
16982TIP3   OH272436   2.943   1.586  12.612 -0.7354  0.0372  0.1566
16982TIP3    H172437   3.031   1.616  12.591 -0.3397 -1.2786 -0.1240
16982TIP3    H272438   2.955   1.503  12.657 -1.8023  0.3173  1.0238
16983TIP3   OH272439   4.621   5.074  12.360 -0.3632  0.1306 -0.0823
16983TIP3    H172440   4.564   5.094  12.434 -0.5242 -0.9299  0.0853
16983TIP3    H272441   4.631   5.158  12.315 -0.7585  0.6591  0.7883
16984TIP3   OH272442   2.215   1.346  13.806  0.2237 -0.3191  0.0343
16984TIP3    H172443   2.135   1.322  13.759  0.4911 -1.1820  0.0009
16984TIP3    H272444   2.275   1.273  13.789  0.2042 -0.8419  2.0260
16985TIP3   OH272445   3.060   1.110  15.898 -0.1249  0.1769  0.4015
16985TIP3    H172446   2.992   1.157  15.848  1.4586  1.2424 -0.8550
16985TIP3    H272447   3.107   1.059  15.832  0.4572 -0.3380  1.2070
16986TIP3   OH272448   3.916   2.891  16.984 -0.2742 -0.1008 -0.5093
16986TIP3    H172449   3.989   2.949  17.007  1.0566 -1.7838 -0.2265
16986TIP3    H272450   3.885   2.923  16.900 -0.9437  2.2292  0.5559
16987TIP3   OH272451   5.483   1.203  10.800 -0.1104 -0.3060 -0.7477
16987TIP3    H172452   5.448   1.281  10.843  0.6166 -1.0896  1.4006
16987TIP3    H272453   5.550   1.236  10.740  2.8542  0.6483  2.7609
16988TIP3   OH272454   5.219   2.589  11.776 -0.1258  0.6645  0.2468
16988TIP3    H172455   5.203   2.524  11.845  0.9626  0.0348 -0.0651
16988TIP3    H272456   5.226   2.672  11.822 -3.1698  0.8813  0.5089
16989TIP3   OH272457   2.866   1.182   2.276 -0.0855  0.5864  0.3234
16989TIP3    H172458   2.857   1.136   2.192  0.7400 -0.5074  0.8096
16989TIP3    H272459   2.934   1.248   2.261  0.7403 -0.2344  0.3674
16990TIP3   OH272460   1.043   2.706  11.969 -0.3786  0.4114  0.1209
16990TIP3    H172461   0.982   2.666  12.032  0.4077 -0.4664  0.3539
16990TIP3    H272462   1.035   2.800  11.985 -1.6139  0.3123  0.1920
16991TIP3   OH272463   3.568   2.225   2.475 -0.4474 -0.3060 -0.1769
16991TIP3    H172464   3.511   2.272   2.536 -0.8452 -2.0430  0.8663
16991TIP3    H272465   3.556   2.270   2.391 -0.9467  1.2870  0.7076
16992TIP3   OH272466   0.030   1.735  16.562  0.3611  0.3725 -0.0344
16992TIP3    H172467   0.035   1.828  16.540 -1.0813  0.5595  0.2890
16992TIP3    H272468   0.012   1.733  16.656  0.0856 -0.2134 -0.0903
16993TIP3   OH272469   6.619   4.830  11.942  0.0168  0.1790  0.3627
16993TIP3    H172470   6.698   4.784  11.969 -0.1602 -0.6287 -0.4653
16993TIP3    H272471   6.610   4.811  11.849 -0.8835  0.6745  0.3316
16994TIP3   OH272472   6.746   2.730   2.694 -0.2525 -0.1598 -0.1649
16994TIP3    H172473   6.680   2.753   2.629  0.1460  1.6901  0.0282
16994TIP3    H272474   6.805   2.805   2.696 -0.0601 -0.3067  2.0869
16995TIP3   OH272475   3.194   0.605   5.900  0.3902  0.6920 -0.0472
16995TIP3    H172476   3.145   0.592   5.980 -0.6723  1.3366 -0.5699
16995TIP3    H272477   3.268   0.661   5.925  0.0635  0.8887  0.4751
16996TIP3   OH272478   5.251   2.283  11.876  0.3150  0.0657  0.0403
16996TIP3    H172479   5.311   2.219  11.915  0.2156 -0.9703 -1.4140
16996TIP3    H272480   5.219   2.240  11.796 -2.0268  0.7611  0.5328
16997TIP3   OH272481   5.529   2.292   4.780 -0.0716  0.0659 -0.1834
16997TIP3    H172482   5.465   2.345   4.827  3.3554  1.9769  2.9107
16997TIP3    H272483   5.566   2.234   4.847  2.6449  0.3903 -1.2611
16998TIP3   OH272484   2.270   1.480  11.862 -0.1995  0.5654  0.1766
16998TIP3    H172485   2.241   1.389  11.868 -1.5199  0.9043 -0.5973
16998TIP3    H272486   2.217   1.526  11.927 -1.3835  1.1745 -1.1656
16999TIP3   OH272487   4.761   1.941  16.471 -0.1695  0.2869  0.4621
16999TIP3    H172488   4.857   1.938  16.469 -0.1578  0.3926  0.7863
16999TIP3    H272489   4.735   1.917  16.382  0.1176 -1.3079  0.7917
17000TIP3   OH272490   2.840   1.120  15.377 -0.4266 -0.3739  0.2202
17000TIP3    H172491   2.908   1.166  15.427 -0.7021 -0.1044  0.3501
17000TIP3    H272492   2.800   1.188  15.323  0.4505 -0.8058 -1.0393
17001TIP3   OH272493   6.501   5.603  16.250  0.6790  0.1645  0.3941
17001TIP3    H172494   6.541   5.687  16.226 -1.7437  1.2839 -0.0507
17001TIP3    H272495   6.560   5.567  16.317  2.6072  1.4458 -0.5088
17002TIP3   OH272496   4.358   4.698   0.397 -0.3289  0.4508  0.4599
17002TIP3    H172497   4.452   4.714   0.397 -0.2406  0.6526 -2.8753
17002TIP3    H272498   4.349   4.606   0.369 -1.0702  1.0299 -1.3707
17003TIP3   OH272499   3.801   4.407  15.448 -0.2425 -0.1699  0.3975
17003TIP3    H172500   3.840   4.494  15.445 -1.7788  0.5462  0.3359
17003TIP3    H272501   3.750   4.407  15.529  0.5954 -1.4065  0.9501
17004TIP3   OH272502   3.196   1.593   1.518 -0.4872  0.9454  0.0164
17004TIP3    H172503   3.283   1.557   1.535 -0.6178  0.2302 -0.7642
17004TIP3    H272504   3.167   1.627   1.602 -0.1350 -0.3319  0.6827
17005TIP3   OH272505   3.801   2.141  10.272  0.0685  0.5075  0.3173
17005TIP3    H172506   3.858   2.113  10.343 -2.3913  0.6502  2.4718
17005TIP3    H272507   3.823   2.084  10.199  1.9876 -0.3198  1.4827
17006TIP3   OH272508   6.654   3.976  14.019 -0.5823 -0.1291 -0.1132
17006TIP3    H172509   6.746   3.959  14.038 -0.4053  1.7233  0.8152
17006TIP3    H272510   6.611   3.976  14.105 -1.2129  0.3186 -0.4202
17007TIP3   OH272511   2.069   6.365  16.916  0.4289  0.0670 -0.3585
17007TIP3    H172512   2.120   6.373  16.835  0.2983 -0.0111 -0.4500
17007TIP3    H272513   2.059   6.271  16.929 -0.8581  0.0858 -1.0872
17008TIP3   OH272514   1.840   4.469  15.402  0.2979  0.0964  0.0672
17008TIP3    H172515   1.745   4.457  15.391  0.0430  2.5006 -1.0034
17008TIP3    H272516   1.878   4.391  15.362 -1.2049 -0.6783  0.0490
17009TIP3   OH272517   0.016   2.713  13.270 -0.2895  0.0364 -0.3040
17009TIP3    H172518  -0.034   2.793  13.251  0.4444  0.3999 -0.7310
17009TIP3    H272519   0.107   2.741  13.272 -0.1687 -0.1729  2.6922
17010TIP3   OH272520   1.229   3.545  11.401 -0.2023  0.1785 -0.6689
17010TIP3    H172521   1.148   3.565  11.446 -0.0340 -1.5924  0.5063
17010TIP3    H272522   1.230   3.605  11.326 -2.3457  0.5441 -0.4646
17011TIP3   OH272523   2.632   0.709  11.814  0.3896  0.4724 -0.2808
17011TIP3    H172524   2.682   0.706  11.896 -0.7992  1.5621  0.5225
17011TIP3    H272525   2.680   0.773  11.760  0.4337  0.7414  0.0763
17012TIP3   OH272526   2.084   1.251  13.091  0.4520  0.1791 -0.0284
17012TIP3    H172527   2.178   1.236  13.100  0.4224  0.8938  1.7176
17012TIP3    H272528   2.077   1.327  13.033  1.0343  1.2633  1.2949
17013TIP3   OH272529   4.239   2.761  14.527  0.2733  0.1497  0.3148
17013TIP3    H172530   4.308   2.761  14.594 -1.9472  0.1987  2.7564
17013TIP3    H272531   4.164   2.720  14.570 -1.9079  2.0440 -1.4400
17014TIP3   OH272532   4.592   6.077  13.058 -0.2162  0.2181  0.2400
17014TIP3    H172533   4.522   6.011  13.058 -0.2844  0.2649  1.4469
17014TIP3    H272534   4.655   6.044  12.994 -1.0024 -0.1944 -0.3414
17015TIP3   OH272535   1.732   6.636  12.212 -0.0893  0.9046  0.7004
17015TIP3    H172536   1.703   6.629  12.303 -1.1208  0.0128  0.3239
17015TIP3    H272537   1.799   6.568  12.203  0.9461  1.8481  1.1222
17016TIP3   OH272538   2.599   5.725  13.962 -0.3949 -0.8895  0.2858
17016TIP3    H172539   2.525   5.666  13.945 -0.7901 -0.6370  1.0718
17016TIP3    H272540   2.565   5.788  14.026  0.1825 -0.1147 -0.1602
17017TIP3   OH272541   3.140   0.376  15.186 -0.0932 -0.3460 -0.5977
17017TIP3    H172542   3.055   0.418  15.199  1.0082  1.7696  0.2440
17017TIP3    H272543   3.143   0.358  15.092 -1.0050  0.6175 -0.8347
17018TIP3   OH272544   4.197   4.267  13.543 -0.3963 -0.0857 -0.1439
17018TIP3    H172545   4.211   4.337  13.478 -0.4801  0.2778  0.2249
17018TIP3    H272546   4.171   4.191  13.491 -2.7681  0.8183 -0.3791
17019TIP3   OH272547   5.907   0.365   3.286 -0.4628 -0.1615 -0.4311
17019TIP3    H172548   5.875   0.288   3.239  0.2446 -0.2509 -0.7766
17019TIP3    H272549   5.940   0.423   3.217  1.5238 -0.7213  0.0063
17020TIP3   OH272550   4.245   4.471  11.904  0.0407 -0.1693  0.0104
17020TIP3    H172551   4.291   4.389  11.886 -0.7090 -0.4365 -0.7695
17020TIP3    H272552   4.314   4.534  11.923  0.7081 -0.6373 -0.8189
17021TIP3   OH272553   3.355   3.672  13.325  0.6989  0.3676 -0.6412
17021TIP3    H172554   3.294   3.642  13.392  0.2945 -0.2629 -1.2712
17021TIP3    H272555   3.308   3.658  13.242  2.2843 -1.6149 -1.2726
17022TIP3   OH272556   4.214   6.575   0.899 -0.2046  0.1276 -0.2205
17022TIP3    H172557   4.285   6.563   0.835 -0.6433 -1.8135 -0.3789
17022TIP3    H272558   4.161   6.645   0.861  0.6935  0.4622 -0.9296
17023TIP3   OH272559   5.785   5.197  15.899 -0.2056  0.2744 -0.2549
17023TIP3    H172560   5.876   5.178  15.875  0.2336  0.6572  0.9842
17023TIP3    H272561   5.792   5.262  15.970 -1.4897  1.1520 -0.8854
17024TIP3   OH272562   6.089   0.258   4.095 -0.1897  0.3477 -0.4996
17024TIP3    H172563   6.144   0.180   4.091 -1.4896 -0.5791 -1.3416
17024TIP3    H272564   6.013   0.231   4.147  0.6870  1.9963  1.8131
17025TIP3   OH272565   5.735   1.312  14.268  0.8288 -0.2743  0.0140
17025TIP3    H172566   5.659   1.356  14.230  0.3985  0.2401  1.3988
17025TIP3    H272567   5.782   1.381  14.315  2.6422 -0.4177 -1.5028
17026TIP3   OH272568   4.690   4.175  15.802 -0.0784  0.0162 -0.1849
17026TIP3    H172569   4.659   4.220  15.723 -1.3496  1.4654  1.0790
17026TIP3    H272570   4.632   4.206  15.872  2.0094  0.0588  1.6429
17027TIP3   OH272571   0.584   3.984  15.017  0.2341 -0.1348 -0.2502
17027TIP3    H172572   0.651   4.050  15.000  0.2306  0.3576  1.3948
17027TIP3    H272573   0.632   3.902  15.027  0.4184 -0.0742 -0.6219
17028TIP3   OH272574   3.582   0.292  15.468  0.4717 -0.0335 -0.2365
17028TIP3    H172575   3.664   0.324  15.432  0.1989 -0.4457 -1.2778
17028TIP3    H272576   3.515   0.332  15.413 -0.0126 -0.0364  0.3351
17029TIP3   OH272577   1.241   5.535  12.518 -0.8238  0.0608  0.2631
17029TIP3    H172578   1.204   5.571  12.599 -1.3247  1.2795 -0.4909
17029TIP3    H272579   1.334   5.525  12.537 -0.8864  0.6043  0.8919
17030TIP3   OH272580   4.409   5.282   3.149 -0.3801 -0.0148  0.6639
17030TIP3    H172581   4.421   5.280   3.054  1.8784 -1.2707  0.9066
17030TIP3    H272582   4.350   5.356   3.165 -0.0951  0.7635 -1.6325
17031TIP3   OH272583   5.549   1.556  16.950  0.4772  0.3047  0.5045
17031TIP3    H172584   5.578   1.473  16.913 -1.8160 -0.3883  0.1190
17031TIP3    H272585   5.577   1.552  17.042  1.9745 -0.0559  0.0679
17032TIP3   OH272586   4.714   2.788   3.606  0.6285  0.3465 -0.3116
17032TIP3    H172587   4.653   2.789   3.679  0.0028  0.9544 -0.8274
17032TIP3    H272588   4.786   2.733   3.636 -0.0049 -0.0999  0.4403
17033TIP3   OH272589   3.496   3.983   1.523  0.1455  0.3691  0.0064
17033TIP3    H172590   3.515   4.039   1.448 -0.4887 -0.6600 -0.9764
17033TIP3    H272591   3.580   3.944   1.546  0.1168 -0.4807 -1.1991
17034TIP3   OH272592   0.749   5.684  11.339 -0.1462 -0.0600  0.3226
17034TIP3    H172593   0.695   5.605  11.331 -0.3255 -0.1683  2.1531
17034TIP3    H272594   0.794   5.691  11.255 -2.5553 -0.2913 -1.0902
17035TIP3   OH272595   4.556   6.633  15.174 -0.0740  0.1185 -0.1622
17035TIP3    H172596   4.624   6.690  15.139  0.6212 -0.5691  0.0620
17035TIP3    H272597   4.496   6.693  15.219 -0.1640  0.8386 -1.2006
17036TIP3   OH272598   5.445   0.417   4.821  0.3862 -0.4832 -0.2909
17036TIP3    H172599   5.434   0.502   4.778 -0.2996  0.7122  2.0691
17036TIP3    H272600   5.369   0.366   4.793  0.4060 -0.0630 -1.1429
17037TIP3   OH272601   4.580   5.213  16.018 -0.4910  0.0672 -0.0690
17037TIP3    H172602   4.664   5.235  15.978 -1.8324  1.9163 -2.0633
17037TIP3    H272603   4.593   5.232  16.111  2.2604 -2.9568  0.3513
17038TIP3   OH272604   4.141   0.430  15.898  0.2029 -0.5108  0.4576
17038TIP3    H172605   4.072   0.495  15.914  0.9337  0.3354  0.2902
17038TIP3    H272606   4.215   0.461  15.951  0.4945 -1.3376  0.5429
17039TIP3   OH272607   6.286   5.465   0.637 -0.1373  0.4982  0.2975
17039TIP3    H172608   6.313   5.518   0.712  0.8014  0.2509  0.1561
17039TIP3    H272609   6.286   5.526   0.564  0.5386  0.4003  0.2097
17040TIP3   OH272610   4.415   3.783  16.802  0.0244  0.1655 -0.3785
17040TIP3    H172611   4.323   3.757  16.801 -0.5836  2.1049 -0.7422
17040TIP3    H272612   4.463   3.702  16.818 -1.7580 -0.8441  0.1793
17041TIP3   OH272613   6.154   6.813  17.087  0.4707  0.5135 -0.1672
17041TIP3    H172614   6.190   6.733  17.125  1.0465  1.2421  0.8663
17041TIP3    H272615   6.218   6.839  17.021 -0.5762 -0.8040 -1.8022
17042TIP3   OH272616   2.909   3.813   5.135  0.4660  0.1262 -0.7988
17042TIP3    H172617   2.826   3.837   5.093 -0.2682 -0.1894  0.4385
17042TIP3    H272618   2.894   3.725   5.169  1.2508  0.1463 -0.3801
17043TIP3   OH272619   2.569   4.741  13.710 -0.2001 -0.2284 -0.3152
17043TIP3    H172620   2.523   4.787  13.640 -0.2706 -1.7484 -1.3119
17043TIP3    H272621   2.655   4.721  13.672  0.1393 -0.1843  0.4132
17044TIP3   OH272622   2.789   2.945  11.544 -0.1325  0.3093 -0.2257
17044TIP3    H172623   2.693   2.950  11.537 -0.5187 -3.3587  0.1976
17044TIP3    H272624   2.810   2.989  11.626 -1.7360 -0.4878  0.6618
17045TIP3   OH272625   1.919   4.935   6.314 -0.2446 -0.6260  0.0689
17045TIP3    H172626   1.942   4.846   6.338  0.7363  0.0576  1.7952
17045TIP3    H272627   1.882   4.974   6.394 -0.4545  0.5835 -0.5792
17046TIP3   OH272628   3.576   5.345  12.644  0.8740 -0.2879 -0.2049
17046TIP3    H172629   3.513   5.353  12.716 -0.5495  1.2476 -1.5265
17046TIP3    H272630   3.634   5.421  12.654  0.7737 -0.1597 -0.5697
17047TIP3   OH272631   3.168   5.874  15.603 -0.2503  0.0933  0.4896
17047TIP3    H172632   3.100   5.905  15.663 -1.9873  2.4888 -2.4045
17047TIP3    H272633   3.128   5.800  15.558 -0.2353  0.3486  0.0528
17048TIP3   OH272634   0.345   4.661  11.892 -0.0506 -0.8753  0.3810
17048TIP3    H172635   0.325   4.668  11.799 -0.5298 -0.8136  0.4839
17048TIP3    H272636   0.440   4.654  11.896  0.0677  0.2743 -0.0542
17049TIP3   OH272637   4.193   1.943   5.312  0.2846  0.6532 -0.3518
17049TIP3    H172638   4.135   1.877   5.350 -0.5038  1.4263 -0.1841
17049TIP3    H272639   4.191   1.925   5.218 -4.3675  3.7024 -1.1398
17050TIP3   OH272640   4.145   5.064  12.768  0.3729  0.7545  0.4925
17050TIP3    H172641   4.196   5.078  12.688 -0.0211 -0.2011  0.0540
17050TIP3    H272642   4.056   5.047  12.737  0.2306  0.3164  1.1207
17051TIP3   OH272643   1.348   6.079   1.219 -0.1862 -0.5629 -0.1856
17051TIP3    H172644   1.374   6.011   1.281  0.4930  0.1013  0.2748
17051TIP3    H272645   1.417   6.080   1.153  1.4109  1.6250  1.3687
17052TIP3   OH272646   3.863   5.207  12.487 -0.7968 -0.2028 -0.6648
17052TIP3    H172647   3.944   5.176  12.447  0.7651 -0.1965  2.2108
17052TIP3    H272648   3.865   5.302  12.474  0.2099 -0.0807  0.2006
17053TIP3   OH272649   2.617   5.380  15.189 -0.3244  0.3711  0.6011
17053TIP3    H172650   2.671   5.457  15.170 -1.2366  0.6029 -1.2971
17053TIP3    H272651   2.660   5.308  15.144 -0.4372  0.1276  0.8815
17054TIP3   OH272652   2.840   6.150  15.576 -0.3269  0.3357  0.1954
17054TIP3    H172653   2.753   6.181  15.550 -0.3491 -2.0086 -3.2640
17054TIP3    H272654   2.827   6.059  15.602  0.9513  0.2433  0.6072
17055TIP3   OH272655   2.054   6.639   5.070  0.4412 -0.0278  0.0813
17055TIP3    H172656   2.061   6.548   5.099 -0.6474  0.3383  1.6126
17055TIP3    H272657   1.989   6.637   5.000  1.5028 -0.6103 -0.9320
17056TIP3   OH272658   2.018   5.084   0.825  0.1624 -0.4941  0.2353
17056TIP3    H172659   1.957   5.157   0.832  1.0510  0.6697 -2.7400
17056TIP3    H272660   1.965   5.007   0.847 -1.8835  0.6661 -0.3545
17057TIP3   OH272661   3.988   4.013   1.821  0.2255  0.0651 -0.5616
17057TIP3    H172662   3.997   3.918   1.814  2.6251  0.1867  0.1131
17057TIP3    H272663   3.991   4.031   1.915 -2.2374  0.7205 -0.5289
17058TIP3   OH272664   1.890   3.435   1.644  0.3924 -0.0635 -0.4220
17058TIP3    H172665   1.873   3.529   1.655 -0.8762 -0.0220 -2.3135
17058TIP3    H272666   1.962   3.432   1.581 -0.8827 -0.3452 -1.9031
17059TIP3   OH272667   1.154   6.521  15.420 -0.2763  0.0642  0.6343
17059TIP3    H172668   1.224   6.466  15.454  0.5344  0.6275 -0.0808
17059TIP3    H272669   1.101   6.462  15.366  1.0758  0.1180 -0.8362
17060TIP3   OH272670   5.421   1.658   2.635 -0.0309 -0.3259  0.2462
17060TIP3    H172671   5.457   1.621   2.716  0.6284  0.0938  0.1487
17060TIP3    H272672   5.405   1.582   2.579  2.2422 -0.4387 -0.3405
17061TIP3   OH272673   4.603   2.257   3.511 -0.1055 -0.5342  0.1949
17061TIP3    H172674   4.633   2.311   3.583 -1.3189 -0.0043  0.3290
17061TIP3    H272675   4.611   2.314   3.434 -0.1395 -0.6157  0.1313
17062TIP3   OH272676   0.899   0.125   1.128  0.5936  0.0859 -0.0549
17062TIP3    H172677   0.892   0.044   1.078  0.5660 -0.0523  0.1681
17062TIP3    H272678   0.911   0.096   1.219 -3.2413  0.2679  0.6647
17063TIP3   OH272679   3.162   3.456   6.204 -0.3221 -0.0847 -0.3791
17063TIP3    H172680   3.215   3.412   6.138 -1.1331  1.8375 -2.4052
17063TIP3    H272681   3.076   3.413   6.199  0.0327 -0.9481  0.5469
17064TIP3   OH272682   1.891   4.710  13.338 -0.1352 -0.2069 -0.1988
17064TIP3    H172683   1.940   4.773  13.285 -0.7524 -0.0215 -0.5606
17064TIP3    H272684   1.826   4.764  13.383 -1.4217 -0.7113 -1.3874
17065TIP3   OH272685   0.644   0.781   2.681  0.1512 -0.1456 -0.1548
17065TIP3    H172686   0.701   0.706   2.698 -0.1019 -0.3288 -0.1034
17065TIP3    H272687   0.556   0.744   2.679 -0.1725  0.4031  1.6847
17066TIP3   OH272688   6.784   1.949  14.764  0.6842  0.6507  0.8627
17066TIP3    H172689   6.756   1.956  14.855  0.1032 -1.0988  0.8566
17066TIP3    H272690   6.805   1.856  14.752  4.3086  1.3785  0.2002
17067TIP3   OH272691   6.832   1.343  12.764 -0.3180 -0.0524 -0.1428
17067TIP3    H172692   6.902   1.322  12.826 -0.4224  0.3165  0.1106
17067TIP3    H272693   6.857   1.300  12.683 -1.1548 -2.2161  0.6657
17068TIP3   OH272694   3.761   6.522   0.382 -0.5291  0.0166 -0.1458
17068TIP3    H172695   3.826   6.592   0.389 -1.3605  1.0701 -2.1319
17068TIP3    H272696   3.677   6.567   0.383 -1.2229 -1.2254  1.1623
17069TIP3   OH272697   4.641   5.994   0.554 -0.0307 -0.0960 -0.0905
17069TIP3    H172698   4.630   6.074   0.607 -1.2257  0.2408 -0.8028
17069TIP3    H272699   4.592   6.012   0.473  0.1066 -1.3604 -0.4778
17070TIP3   OH272700   3.495   6.011  16.955 -0.4217 -0.0017  0.0670
17070TIP3    H172701   3.484   6.085  17.015 -1.6003 -1.0527  1.1829
17070TIP3    H272702   3.500   5.934  17.011 -0.2286 -0.8926 -1.1234
17071TIP3   OH272703   2.855   6.225   1.920 -0.0330 -0.3543 -0.3751
17071TIP3    H172704   2.926   6.165   1.898  1.2290  0.1459  2.1112
17071TIP3    H272705   2.894   6.312   1.915 -0.1213 -0.1280  1.9879
17072TIP3   OH272706   2.782   2.789  12.161 -0.2008  0.4964  0.2551
17072TIP3    H172707   2.742   2.849  12.098 -1.5371  1.0988  1.5974
17072TIP3    H272708   2.828   2.725  12.108 -0.4361  1.5571 -1.2857
17073TIP3   OH272709   5.785   2.311   5.985  0.0278 -0.7915 -0.0941
17073TIP3    H172710   5.787   2.405   5.968  1.7896 -0.7397  0.2900
17073TIP3    H272711   5.723   2.302   6.057 -0.7157 -0.0278 -0.6107
17074TIP3   OH272712   0.274   0.188   1.342  0.0446 -0.1291  0.0356
17074TIP3    H172713   0.222   0.170   1.420 -0.8169  0.7636 -0.3259
17074TIP3    H272714   0.300   0.101   1.311  0.5364 -0.4965  1.3885
17075TIP3   OH272715   1.837   6.285   3.201  0.0826  0.4177 -0.1724
17075TIP3    H172716   1.900   6.312   3.269  1.4024  0.3489 -1.3256
17075TIP3    H272717   1.826   6.191   3.215  2.7986 -0.2766 -1.8915
17076TIP3   OH272718   5.995   4.427   5.148 -0.7097  0.4066 -0.0825
17076TIP3    H172719   6.032   4.509   5.116  0.1999  0.2577  0.5628
17076TIP3    H272720   6.069   4.367   5.154 -1.1639 -0.1118  0.5614
17077TIP3   OH272721   5.565   1.561   5.006 -0.6290  0.6210 -0.0341
17077TIP3    H172722   5.617   1.583   4.929  0.8893 -0.7953  0.5334
17077TIP3    H272723   5.481   1.531   4.971 -0.6472  1.7614 -1.0290
17078TIP3   OH272724   0.411   5.694  12.690 -0.1909 -0.2740  0.0942
17078TIP3    H172725   0.492   5.659  12.728  0.5498 -0.0604 -1.2099
17078TIP3    H272726   0.343   5.670  12.752  0.8080 -0.8814  0.9948
17079TIP3   OH272727   3.813   0.731   3.164 -0.4746  0.2288 -0.1048
17079TIP3    H172728   3.824   0.786   3.242 -1.4694 -1.0602  0.9959
17079TIP3    H272729   3.885   0.757   3.106 -0.9713  2.7758  0.2672
17080TIP3   OH272730   5.420   2.087  14.563 -0.4795 -0.8382 -0.3308
17080TIP3    H172731   5.410   2.178  14.534  0.3076 -0.1570  1.3657
17080TIP3    H272732   5.501   2.058  14.521 -0.4997 -0.5982 -0.5422
17081TIP3   OH272733   6.018   5.469  11.328  0.4451  0.2700 -0.4921
17081TIP3    H172734   6.069   5.395  11.360  0.5058  0.4005 -0.2893
17081TIP3    H272735   6.065   5.498  11.249  3.1460  3.0167  1.8606
17082TIP3   OH272736   1.894   5.676   5.097  0.6586  0.5185  0.1035
17082TIP3    H172737   1.839   5.620   5.150  0.0799  0.9125 -0.0723
17082TIP3    H272738   1.909   5.754   5.151 -0.7952  1.3864 -0.6702
17083TIP3   OH272739   5.849   6.199   6.057  0.3158  0.0486 -0.1973
17083TIP3    H172740   5.789   6.273   6.065 -0.2133 -0.3141 -0.7777
17083TIP3    H272741   5.845   6.174   5.964 -1.0105 -1.9490  0.3354
17084TIP3   OH272742   3.805   3.843   3.050 -0.3049 -0.0009  0.6612
17084TIP3    H172743   3.836   3.865   3.138 -0.2341 -1.1521  0.9513
17084TIP3    H272744   3.877   3.868   2.992 -0.3855  0.8427  0.9157
17085TIP3   OH272745   5.516   6.008  15.900  0.0875 -0.3969 -0.5912
17085TIP3    H172746   5.422   6.016  15.914  0.1003  0.7325 -1.0760
17085TIP3    H272747   5.552   5.991  15.987 -0.5525 -0.8270 -0.4023
17086TIP3   OH272748   0.447   1.260  13.541  0.1554 -0.2822  0.6145
17086TIP3    H172749   0.521   1.203  13.519 -0.1256 -0.2881 -0.3705
17086TIP3    H272750   0.486   1.330  13.593  1.3279  1.0002 -1.8259
17087TIP3   OH272751   5.427   1.912  16.185  0.1580  0.5500 -0.4989
17087TIP3    H172752   5.440   2.006  16.186  0.1104  0.5557  0.7339
17087TIP3    H272753   5.515   1.876  16.171  0.0326  0.7655 -2.1164
17088TIP3   OH272754   4.757   6.467   4.442  0.0150 -0.2923  0.4754
17088TIP3    H172755   4.831   6.514   4.404  0.3099 -0.8119  0.4003
17088TIP3    H272756   4.709   6.432   4.367 -1.1731  1.3028  0.4396
17089TIP3   OH272757   6.733   6.492  12.945  0.1401 -0.6152  0.2186
17089TIP3    H172758   6.673   6.506  13.018 -0.7438  0.4766 -0.6769
17089TIP3    H272759   6.808   6.549  12.964  0.8329 -1.8005  1.2172
17090TIP3   OH272760   4.746   6.722  15.844 -0.0929  0.4598 -0.2471
17090TIP3    H172761   4.783   6.688  15.762  0.3919 -0.7303  0.4321
17090TIP3    H272762   4.748   6.817  15.834  0.8550  0.3572 -1.2293
17091TIP3   OH272763   2.177   4.035   3.354  0.2870  0.2961 -0.2082
17091TIP3    H172764   2.101   4.063   3.303 -0.1916 -1.9595 -0.8226
17091TIP3    H272765   2.228   4.115   3.366 -1.3475  1.5552 -1.1926
17092TIP3   OH272766   6.854   2.008  16.520 -0.5341 -0.2154  0.3918
17092TIP3    H172767   6.770   2.017  16.476 -0.7534  0.0431  0.8502
17092TIP3    H272768   6.862   2.089  16.571 -0.2555 -0.4757  0.7643
17093TIP3   OH272769   6.201   2.559   0.022  0.0251 -0.1022  0.2243
17093TIP3    H172770   6.212   2.612   0.101 -0.2627 -3.3607  2.6435
17093TIP3    H272771   6.109   2.533   0.023  0.2801 -1.1003 -0.5853
17094TIP3   OH272772   0.956   2.810   5.107  0.3636 -0.0476  0.6108
17094TIP3    H172773   0.905   2.732   5.085  0.3042 -0.1158  0.9872
17094TIP3    H272774   1.011   2.783   5.180  0.3649  0.2578  0.7232
17095TIP3   OH272775   4.980   2.122   1.677 -0.0401  0.6639 -0.1660
17095TIP3    H172776   4.924   2.076   1.740  0.3773  3.3952  2.4197
17095TIP3    H272777   4.923   2.188   1.639  0.5754  1.2500 -0.0763
17096TIP3   OH272778   0.965   6.278  16.020  0.4021 -0.0730  0.3549
17096TIP3    H172779   0.955   6.333  16.098  1.9678  0.8259 -0.0210
17096TIP3    H272780   1.059   6.284  15.999  0.0029 -0.1665 -1.6768
17097TIP3   OH272781   5.759   2.600  15.395 -0.6634 -0.0815  0.1480
17097TIP3    H172782   5.724   2.608  15.484 -0.0192  0.1168  0.3875
17097TIP3    H272783   5.843   2.555  15.407  0.4338  1.8186 -0.1235
17098TIP3   OH272784   5.140   4.841   4.277  0.3131 -0.6161 -0.7465
17098TIP3    H172785   5.053   4.878   4.257 -0.6291 -1.5042  1.3883
17098TIP3    H272786   5.122   4.750   4.301  1.8656 -0.8660 -0.4199
17099TIP3   OH272787   0.476   6.624   3.646 -0.2093 -0.2846 -0.2581
17099TIP3    H172788   0.551   6.566   3.659  0.1774  0.0664 -0.8855
17099TIP3    H272789   0.504   6.708   3.683 -0.3322 -0.1800 -0.4037
17100TIP3   OH272790   5.175   5.481  11.964 -0.3246  0.4288 -0.1689
17100TIP3    H172791   5.205   5.524  11.884 -0.2019  0.3394 -0.1709
17100TIP3    H272792   5.252   5.478  12.020 -0.4264  0.5525 -0.0190
17101TIP3   OH272793   2.902   1.636  15.974  0.7643  0.4932 -0.6030
17101TIP3    H172794   2.847   1.672  16.043  0.8243 -0.4171 -0.0732
17101TIP3    H272795   2.974   1.699  15.965  0.8596  0.5183  0.2908
17102TIP3   OH272796   6.080   1.597   4.318 -0.5919 -0.2995  0.0413
17102TIP3    H172797   6.016   1.668   4.328  1.0603  1.4656 -1.1309
17102TIP3    H272798   6.115   1.584   4.406 -1.5271 -0.2853  0.4265
17103TIP3   OH272799   0.605   3.341   4.326 -0.1035  0.1736  0.2699
17103TIP3    H172800   0.608   3.277   4.255  0.1170 -0.3471  0.7376
17103TIP3    H272801   0.695   3.371   4.336  0.1473 -0.8307  1.2719
17104TIP3   OH272802   5.671   1.864   2.250  0.0949 -0.3292  0.0315
17104TIP3    H172803   5.616   1.939   2.226  0.5663 -0.0294 -0.1383
17104TIP3    H272804   5.651   1.849   2.343 -1.4524 -1.2563 -0.4285
17105TIP3   OH272805   3.609   2.024   3.690  0.3633  0.4940  0.1183
17105TIP3    H172806   3.567   2.004   3.607 -0.8355 -2.3932  1.2756
17105TIP3    H272807   3.697   2.053   3.667 -0.5208  1.5646 -2.1719
17106TIP3   OH272808   6.155   3.470  13.461  0.0692  0.2568 -0.1445
17106TIP3    H172809   6.124   3.449  13.549 -0.6165  0.1829 -0.3934
17106TIP3    H272810   6.075   3.493  13.413  0.0779 -2.0831 -1.4271
17107TIP3   OH272811   6.576   5.715   5.151  0.7237 -0.6006 -0.2276
17107TIP3    H172812   6.565   5.766   5.231  2.4642  2.3958 -1.7162
17107TIP3    H272813   6.640   5.647   5.174  2.0827  0.9192  0.7035
17108TIP3   OH272814   6.634   6.703  12.460  0.2792 -0.1862  0.0951
17108TIP3    H172815   6.708   6.677  12.516 -0.3928 -2.0812  0.1819
17108TIP3    H272816   6.595   6.620  12.432 -0.2389  0.7435 -2.1040
17109TIP3   OH272817   2.700   1.531  11.986 -0.0756  0.1159  0.0657
17109TIP3    H172818   2.631   1.465  11.977  1.3779 -1.4859  0.2794
17109TIP3    H272819   2.775   1.484  12.022  1.4412  1.6014 -0.9758
17110TIP3   OH272820   2.976   5.229  16.722 -0.3772 -0.1958 -0.0705
17110TIP3    H172821   2.941   5.283  16.652 -0.3327 -0.2559 -0.1388
17110TIP3    H272822   2.952   5.140  16.698  0.3570 -0.3022 -0.4365
17111TIP3   OH272823   1.241   6.173   4.984  0.1525  0.6558 -0.9235
17111TIP3    H172824   1.219   6.087   5.021  2.2299  0.2688 -0.4539
17111TIP3    H272825   1.260   6.228   5.060 -0.2814  1.2877 -1.2588
17112TIP3   OH272826   2.318   1.362  13.328  0.3193  0.2679  0.7152
17112TIP3    H172827   2.277   1.435  13.374  0.3006  0.1488  0.8887
17112TIP3    H272828   2.397   1.343  13.378 -1.0715 -1.6351  2.3172
17113TIP3   OH272829   4.092   3.565   5.073  0.5156 -0.3319  0.0571
17113TIP3    H172830   4.093   3.520   4.988 -0.0106 -2.7625  1.2593
17113TIP3    H272831   4.184   3.585   5.091  0.7219 -0.5880 -0.6772
17114TIP3   OH272832   4.197   6.283  12.783 -0.2096  0.5603  0.0649
17114TIP3    H172833   4.115   6.328  12.803 -1.7194 -2.2351  0.6871
17114TIP3    H272834   4.232   6.330  12.707 -3.8301  0.2731 -2.0411
17115TIP3   OH272835   0.525   4.623   0.829 -0.3421  0.3978  0.3908
17115TIP3    H172836   0.528   4.666   0.744 -2.2588  0.7011  0.4198
17115TIP3    H272837   0.489   4.689   0.888  0.5095  0.0367  1.3399
17116TIP3   OH272838   5.237   2.173   3.518 -0.0588 -0.1748 -0.0548
17116TIP3    H172839   5.177   2.243   3.541  0.2083 -0.1655  0.6418
17116TIP3    H272840   5.182   2.095   3.510 -0.3079  0.0418 -0.4997
17117TIP3   OH272841   4.319   0.742   1.758 -0.2162 -0.4770  0.4061
17117TIP3    H172842   4.272   0.802   1.700  1.9686  1.1616  0.1925
17117TIP3    H272843   4.251   0.688   1.797 -2.4312  2.6298  1.2068
17118TIP3   OH272844   2.372   4.539   1.725 -0.2699 -0.5779  0.7321
17118TIP3    H172845   2.344   4.622   1.688 -2.1599 -1.9380 -1.1099
17118TIP3    H272846   2.465   4.532   1.700 -0.1216  0.8866  0.8070
17119TIP3   OH272847   4.170   2.133  10.829 -0.4315  0.7324 -0.3001
17119TIP3    H172848   4.250   2.176  10.800  0.0858  1.1298  1.5459
17119TIP3    H272849   4.141   2.081  10.754  1.5355  0.6092 -1.0274
17120TIP3   OH272850   5.965   4.330   3.613 -0.1208  0.1732 -0.4862
17120TIP3    H172851   5.930   4.418   3.628 -1.3920 -0.2139 -1.1082
17120TIP3    H272852   5.888   4.274   3.607  0.6285 -0.8032 -1.2902
17121TIP3   OH272853   1.721   5.949   1.814  0.5809 -0.0972 -0.3930
17121TIP3    H172854   1.750   5.879   1.873 -1.2969  0.2537  1.0238
17121TIP3    H272855   1.664   5.905   1.751  1.1677 -0.1834 -0.8703
17122TIP3   OH272856   0.746   6.373  11.051 -0.4845 -0.3698  1.1322
17122TIP3    H172857   0.714   6.335  10.970 -0.7083  0.7272  0.6834
17122TIP3    H272858   0.838   6.394  11.035 -0.9958  1.6010  0.4498
17123TIP3   OH272859   5.697   2.891  10.924  0.0241 -0.1208  0.5716
17123TIP3    H172860   5.752   2.859  10.852 -0.5354  0.7853 -0.2972
17123TIP3    H272861   5.612   2.905  10.883 -0.8088 -1.2637  1.8342
17124TIP3   OH272862   2.019   2.448  12.959 -0.1172 -0.4521 -0.3900
17124TIP3    H172863   1.971   2.518  13.002 -2.2554 -1.6115 -0.7566
17124TIP3    H272864   2.023   2.377  13.023 -1.2343 -1.3089 -1.2155
17125TIP3   OH272865   3.978   1.615   4.474 -0.0992 -0.0310  0.3733
17125TIP3    H172866   3.984   1.603   4.379 -1.2695  2.8272 -0.1449
17125TIP3    H272867   3.891   1.583   4.497  0.6045 -1.7969  0.7385
17126TIP3   OH272868   3.766   1.704  16.982 -0.5217 -0.0799  0.1237
17126TIP3    H172869   3.711   1.655  16.921  0.5418 -0.5561 -0.4751
17126TIP3    H272870   3.854   1.697  16.946  0.0242  0.2332  1.3384
17127TIP3   OH272871   2.236   6.099  11.627  0.5240 -0.1747  0.4342
17127TIP3    H172872   2.143   6.105  11.604  0.7553 -0.0251 -0.4822
17127TIP3    H272873   2.280   6.152  11.561  1.6493 -3.3847 -1.6100
17128TIP3   OH272874   3.639   1.594  12.035  0.1305  0.1283  0.0887
17128TIP3    H172875   3.569   1.530  12.019 -1.6301  2.3006 -1.4500
17128TIP3    H272876   3.615   1.636  12.117  0.5325 -0.2134  0.3861
17129TIP3   OH272877   5.413   4.124   5.250  0.3317 -0.0241  0.1778
17129TIP3    H172878   5.335   4.175   5.229 -0.8342 -2.1467 -0.9784
17129TIP3    H272879   5.486   4.184   5.233 -0.9362  1.1335 -1.5337
17130TIP3   OH272880   1.914   2.280   0.808 -0.0566  0.0614  1.0702
17130TIP3    H172881   1.975   2.275   0.734  0.0190 -0.1888  1.1500
17130TIP3    H272882   1.881   2.370   0.805 -1.4981 -0.4663 -0.4092
17131TIP3   OH272883   0.039   4.191  17.088 -0.3304 -0.1391  0.4602
17131TIP3    H172884  -0.002   4.108  17.064  1.4422 -0.5583 -1.3645
17131TIP3    H272885   0.132   4.178  17.071  0.0989  1.9900  0.8857
17132TIP3   OH272886   3.057   2.944  14.984 -0.3286 -0.2105 -0.0212
17132TIP3    H172887   2.990   2.899  14.932 -0.0601 -0.2668 -0.3196
17132TIP3    H272888   3.123   2.970  14.920 -1.1676  1.9046 -0.0828
17133TIP3   OH272889   2.734   4.188  11.322 -0.3154 -0.0608  0.1637
17133TIP3    H172890   2.791   4.112  11.324 -0.9013 -0.4904  0.9096
17133TIP3    H272891   2.667   4.166  11.256  1.2625  1.1299 -1.9764
17134TIP3   OH272892   1.416   5.967  15.230  0.0745  0.0964 -0.5008
17134TIP3    H172893   1.339   5.932  15.274 -0.7829 -1.0162 -2.7057
17134TIP3    H272894   1.388   6.052  15.197  0.2456  0.3017 -0.1166
17135TIP3   OH272895   6.474   5.591   5.471 -0.2034 -0.1225  0.4383
17135TIP3    H172896   6.385   5.603   5.438 -0.0491 -0.1926 -0.0053
17135TIP3    H272897   6.513   5.678   5.467 -0.4435  0.0314  1.2140
17136TIP3   OH272898   0.579   0.218   1.981  0.3222  0.2296  0.1931
17136TIP3    H172899   0.612   0.243   1.895  2.2494  0.8226  1.0765
17136TIP3    H272900   0.488   0.190   1.964 -1.0503  4.7864 -1.3478
17137TIP3   OH272901   4.999   6.020  15.263  0.3418 -0.2770 -0.1883
17137TIP3    H172902   4.977   5.964  15.338  0.8796 -1.4386 -0.8882
17137TIP3    H272903   5.077   5.980  15.225  0.8054  1.0167 -0.6461
17138TIP3   OH272904   1.059   5.392  11.171 -0.8523 -0.1113 -0.3759
17138TIP3    H172905   0.978   5.438  11.146 -1.9497 -0.9645  1.4379
17138TIP3    H272906   1.099   5.367  11.087 -1.2020  2.4045 -1.3722
17139TIP3   OH272907   4.411   0.366   4.970 -0.0772 -0.1181  0.0484
17139TIP3    H172908   4.457   0.442   4.933  2.4474 -0.8203  1.4822
17139TIP3    H272909   4.338   0.351   4.910  1.2978  1.4009 -2.1922
17140TIP3   OH272910   0.603   3.231  13.536  0.3483 -0.1172  0.1840
17140TIP3    H172911   0.508   3.223  13.543  0.3266 -2.4236 -1.6042
17140TIP3    H272912   0.634   3.233  13.626 -1.3608  0.6674  0.7953
17141TIP3   OH272913   6.022   5.443  10.648  0.4002 -0.7461 -0.7124
17141TIP3    H172914   6.052   5.352  10.649  1.1332 -0.5139 -0.6195
17141TIP3    H272915   6.100   5.493  10.671  0.2635 -0.0263 -1.7793
17142TIP3   OH272916   1.129   5.886  15.013 -0.1798 -0.0772 -0.0886
17142TIP3    H172917   1.223   5.874  15.024 -0.0923  1.2642  0.8747
17142TIP3    H272918   1.093   5.797  15.010  0.8776 -0.6206  1.9400
17143TIP3   OH272919   5.946   0.161  15.955 -0.2943 -0.7311  0.5274
17143TIP3    H172920   6.014   0.180  16.019  0.1580  0.8233 -0.3641
17143TIP3    H272921   5.879   0.115  16.004  0.4273 -0.3601  1.9101
17144TIP3   OH272922   4.859   3.178   5.628  0.3696 -0.3659 -0.2407
17144TIP3    H172923   4.827   3.093   5.596  1.5923 -0.1145 -2.2525
17144TIP3    H272924   4.951   3.180   5.604  0.5056  1.3237  0.3057
17145TIP3   OH272925   1.962   4.201  12.246 -0.1663 -0.3404 -0.3112
17145TIP3    H172926   1.927   4.128  12.194 -0.0074 -0.8817  0.3278
17145TIP3    H272927   1.954   4.277  12.189 -1.5340 -0.6143 -0.5294
17146TIP3   OH272928   3.785   5.853  13.985 -0.2220  0.3361  0.0296
17146TIP3    H172929   3.809   5.879  13.895 -1.1510 -0.8221 -0.5745
17146TIP3    H272930   3.796   5.933  14.036  0.4943  0.9799 -1.0779
17147TIP3   OH272931   2.093   6.296  12.887 -0.0676 -0.3313 -0.1888
17147TIP3    H172932   2.056   6.239  12.955  0.2807  0.9746  1.1347
17147TIP3    H272933   2.184   6.268  12.881 -0.3239 -1.0665 -0.7996
17148TIP3   OH272934   4.439   5.114   6.167 -0.0384  0.6445  0.5469
17148TIP3    H172935   4.401   5.107   6.255 -2.1772  0.7836 -0.3082
17148TIP3    H272936   4.364   5.102   6.108  1.2170  1.3497 -1.2516
17149TIP3   OH272937   1.869   6.679   4.876  0.0436  0.6685  0.1490
17149TIP3    H172938   1.806   6.628   4.824  2.3308 -1.9132 -0.3474
17149TIP3    H272939   1.827   6.763   4.890 -2.8946 -0.4303 -1.3320
17150TIP3   OH272940   6.756   0.815   1.824 -1.4738  0.3937  0.0448
17150TIP3    H172941   6.839   0.779   1.856 -1.1531  1.4688  0.4808
17150TIP3    H272942   6.751   0.787   1.733  0.3198  1.8718 -0.5648
17151TIP3   OH272943   0.529   6.750  14.558  0.2716 -0.7769 -0.5559
17151TIP3    H172944   0.507   6.668  14.602 -0.7079 -1.5912 -2.3999
17151TIP3    H272945   0.444   6.786  14.532  0.6963  0.8027  0.1643
17152TIP3   OH272946   5.894   3.072  11.004 -0.0993 -0.3174 -0.5194
17152TIP3    H172947   5.850   3.155  11.023 -0.4870 -0.1755 -1.8930
17152TIP3    H272948   5.825   3.016  10.969  0.1547 -1.2528  0.4221
17153TIP3   OH272949   2.206   0.662   1.707  0.2448  0.0259 -0.1064
17153TIP3    H172950   2.254   0.721   1.766 -0.8965 -0.4615  1.3946
17153TIP3    H272951   2.190   0.714   1.629 -1.3332  2.0244  1.4331
17154TIP3   OH272952   5.837   6.565   0.395  0.9659 -0.5760  0.2416
17154TIP3    H172953   5.906   6.552   0.329  1.7427  0.6218  0.7742
17154TIP3    H272954   5.781   6.632   0.358  1.4944  0.2177  0.8368
17155TIP3   OH272955   2.997   6.321  15.099  0.2755 -0.2220  0.1691
17155TIP3    H172956   3.041   6.248  15.056 -0.0027 -1.4157  1.7764
17155TIP3    H272957   3.001   6.298  15.192 -0.5057  1.4536  0.6411
17156TIP3   OH272958   2.408   4.410   1.202  0.0015  0.2279  0.3498
17156TIP3    H172959   2.455   4.493   1.193  1.8149 -0.8911 -1.1953
17156TIP3    H272960   2.476   4.345   1.220 -1.5071 -0.7987  3.1010
17157TIP3   OH272961   3.571   4.363   4.518  0.0793  0.5162  0.6173
17157TIP3    H172962   3.512   4.370   4.593 -0.6600 -0.8485  0.1847
17157TIP3    H272963   3.633   4.294   4.542  0.4308  0.7348  0.3500
17158TIP3   OH272964   3.243   6.287   5.902 -0.6051 -0.2019 -0.3016
17158TIP3    H172965   3.181   6.300   5.830 -0.6156 -0.2197 -0.2957
17158TIP3    H272966   3.268   6.195   5.896 -2.7159 -0.9810  1.3985
17159TIP3   OH272967   5.682   5.270   4.035  0.1773 -0.4704  0.3577
17159TIP3    H172968   5.765   5.261   3.988 -0.4220  0.4551 -0.9516
17159TIP3    H272969   5.633   5.334   3.984 -1.9036 -2.0006  0.2935
17160TIP3   OH272970   6.193   4.162   3.610 -0.4123  0.0747  0.3221
17160TIP3    H172971   6.255   4.233   3.591 -0.1552  0.0825  1.1511
17160TIP3    H272972   6.108   4.206   3.611 -0.2826  0.3273  0.5689
17161TIP3   OH272973   5.005   5.356   3.869 -0.2846  0.4017 -0.4685
17161TIP3    H172974   4.975   5.273   3.832 -2.8132  0.7391  0.6200
17161TIP3    H272975   4.976   5.422   3.806 -1.4343  0.6847  0.3147
17162TIP3   OH272976   4.453   6.583  16.869  0.2388  0.0518  0.4351
17162TIP3    H172977   4.404   6.513  16.827 -0.0099 -1.2279  2.6895
17162TIP3    H272978   4.416   6.589  16.957 -0.8522  4.1738 -0.1183
17163TIP3   OH272979   1.022   0.775   4.090  1.0339 -0.0265  0.4995
17163TIP3    H172980   0.947   0.815   4.134  1.4170  1.9397 -0.4917
17163TIP3    H272981   0.989   0.691   4.058 -0.3217  0.1690  1.2778
17164TIP3   OH272982   5.154   0.888  13.166 -0.1106 -0.4429  0.1634
17164TIP3    H172983   5.229   0.885  13.106  0.8646 -2.7621  1.3480
17164TIP3    H272984   5.094   0.820  13.134 -0.4681 -0.3861  0.6957
17165TIP3   OH272985   4.820   5.071  16.134  0.4161  0.0845 -0.1824
17165TIP3    H172986   4.815   4.976  16.127 -0.9762  0.1557 -0.4248
17165TIP3    H272987   4.808   5.102  16.044 -1.2123  0.5347  0.1679
17166TIP3   OH272988   6.287   0.336   2.002  0.1019  0.1264  0.2953
17166TIP3    H172989   6.270   0.293   1.918 -1.7574  1.3384 -0.0029
17166TIP3    H272990   6.208   0.388   2.019  1.6523  2.2869  1.3222
17167TIP3   OH272991   1.578   2.341  15.463  0.6636 -0.9453  0.6314
17167TIP3    H172992   1.509   2.286  15.426  0.3415  0.3255 -0.7378
17167TIP3    H272993   1.535   2.425  15.480  1.7635 -0.2601  0.1315
17168TIP3   OH272994   6.160   6.313   3.390 -0.2194 -0.1052  0.0120
17168TIP3    H172995   6.097   6.356   3.332  0.4431  0.1951 -0.5040
17168TIP3    H272996   6.147   6.219   3.375  0.0744 -0.0282 -0.7773
17169TIP3   OH272997   2.046   2.468   2.290 -0.2720  0.1127 -0.4263
17169TIP3    H172998   2.099   2.433   2.361 -0.5239 -0.5263 -0.5436
17169TIP3    H272999   1.962   2.421   2.297 -0.7775  1.0161 -0.3128
17170TIP3   OH273000   1.387   3.635  15.684  0.2685  0.0474 -0.0235
17170TIP3    H173001   1.446   3.638  15.610  0.7476  0.7917  0.3768
17170TIP3    H273002   1.337   3.717  15.679  0.7784  0.4331  0.8374
17171TIP3   OH273003   3.571   5.641  14.400  0.1207  0.7228  0.2300
17171TIP3    H173004   3.650   5.691  14.417 -0.2731  1.6485 -0.5742
17171TIP3    H273005   3.500   5.693  14.437 -0.5222  1.8171 -2.3261
17172TIP3   OH273006   0.966   1.280  14.786 -0.0415 -0.3303  0.1024
17172TIP3    H173007   1.054   1.255  14.757  0.4383 -3.9399  3.7658
17172TIP3    H273008   0.909   1.209  14.754 -1.0736  0.3308  0.4203
17173TIP3   OH273009   5.954   5.886  13.312 -0.1674 -0.1058 -0.2941
17173TIP3    H173010   5.912   5.878  13.227 -0.9956  0.8893 -0.0003
17173TIP3    H273011   6.013   5.811  13.317 -0.6816 -0.6045 -1.4126
17174TIP3   OH273012   0.668   1.122  13.502  0.0118 -0.2850  0.0681
17174TIP3    H173013   0.649   1.035  13.466 -0.5533  0.2090 -0.8605
17174TIP3    H273014   0.738   1.106  13.566  1.0229 -1.1981 -1.2170
17175TIP3   OH273015   3.291   4.367  16.299 -0.0535  0.4480  0.1434
17175TIP3    H173016   3.346   4.444  16.283  0.3259  0.0925 -0.3006
17175TIP3    H273017   3.325   4.329  16.380  1.0401 -0.3405 -0.6491
17176TIP3   OH273018   3.286   4.307  11.686 -0.7024  0.1642  0.0109
17176TIP3    H173019   3.361   4.357  11.653 -1.2137  0.5285 -0.6254
17176TIP3    H273020   3.226   4.373  11.721 -0.6398 -0.1432  0.7197
17177TIP3   OH273021   2.869   3.839  13.846 -0.1339 -0.0308  0.2537
17177TIP3    H173022   2.947   3.827  13.900  0.0689  1.2558  0.2870
17177TIP3    H273023   2.799   3.857  13.908 -0.5465 -1.4806  0.2427
17178TIP3   OH273024   0.901   1.718  12.180  0.1900  0.1082 -0.6374
17178TIP3    H173025   0.933   1.801  12.147 -0.1372  0.4775 -0.0471
17178TIP3    H273026   0.964   1.693  12.248  0.1008  0.0471 -0.5764
17179TIP3   OH273027   3.341   1.180  11.630 -0.4418  0.6138  0.4432
17179TIP3    H173028   3.337   1.093  11.590 -0.3019 -0.2625  2.1923
17179TIP3    H273029   3.342   1.241  11.557  0.8618 -0.9107 -0.8782
17180TIP3   OH273030   3.652   1.739  11.796  0.2556  0.1696 -0.6003
17180TIP3    H173031   3.666   1.710  11.886  2.6301 -1.8278 -1.5081
17180TIP3    H273032   3.588   1.678  11.761  1.1774 -0.6299 -0.9357
17181TIP3   OH273033   3.397   4.280   7.341  0.4969  0.4270  0.1012
17181TIP3    H173034   3.379   4.345   7.272 -0.3263  0.2896  0.1808
17181TIP3    H273035   3.353   4.201   7.311  0.0659  0.3894  0.8293
17182TIP3   OH273036   0.375   6.232   3.603 -0.0399  0.1207 -0.6452
17182TIP3    H173037   0.331   6.190   3.529 -0.6767 -0.9467  0.3050
17182TIP3    H273038   0.469   6.222   3.584 -0.1996  0.1305 -1.4517
17183TIP3   OH273039   6.370   1.929  11.962  1.2609  0.0676  0.2160
17183TIP3    H173040   6.278   1.926  11.935  1.2901  1.7704 -0.2210
17183TIP3    H273041   6.366   1.937  12.057  0.8454  2.1138  0.0694
17184TIP3   OH273042   3.556   2.823   5.565  0.5020  0.4511 -0.6048
17184TIP3    H173043   3.537   2.913   5.591 -0.0957 -0.0087  0.6278
17184TIP3    H273044   3.470   2.783   5.552  0.7706  0.1632 -1.5811
17185TIP3   OH273045   4.031   6.452   2.139 -0.4289  0.0743  0.2685
17185TIP3    H173046   3.945   6.424   2.171 -0.4077  0.1572  0.3954
17185TIP3    H273047   4.023   6.450   2.043 -0.7141  0.5215  0.2810
17186TIP3   OH273048   5.284   3.580   4.596  0.1590 -0.3921 -0.1316
17186TIP3    H173049   5.303   3.596   4.503 -0.2770  0.1025 -0.1357
17186TIP3    H273050   5.273   3.667   4.634 -0.3471 -0.6130  0.2397
17187TIP3   OH273051   1.305   5.048   1.220 -0.6001  0.1390 -0.2109
17187TIP3    H173052   1.369   5.000   1.167 -0.1858  0.4162  0.0305
17187TIP3    H273053   1.339   5.137   1.224 -1.6515  0.6097 -1.1233
17188TIP3   OH273054   6.488   2.316  13.770  0.9276 -0.0189 -0.5013
17188TIP3    H173055   6.393   2.308  13.771  1.0727 -3.0653 -0.8282
17188TIP3    H273056   6.511   2.337  13.861 -0.0650  2.1774 -0.7017
17189TIP3   OH273057   6.747   6.106   5.208 -0.7592 -0.5031  0.3075
17189TIP3    H173058   6.808   6.033   5.205 -0.3469 -0.3796  3.0650
17189TIP3    H273059   6.681   6.086   5.142  0.4930 -2.2795 -0.4590
17190TIP3   OH273060   0.267   4.345  14.880 -0.9426  0.5426 -0.3311
17190TIP3    H173061   0.344   4.289  14.873 -0.3746  0.9478  1.8399
17190TIP3    H273062   0.302   4.433  14.891 -1.5863  0.5574  2.2692
17191TIP3   OH273063   1.281   1.082   0.380 -0.3331  0.0418  0.0046
17191TIP3    H173064   1.220   1.022   0.337  1.5802 -1.3780 -0.8880
17191TIP3    H273065   1.241   1.100   0.465 -1.2018 -2.1838  0.1448
17192TIP3   OH273066   0.727   2.244  11.015 -0.6661 -0.2453  0.5878
17192TIP3    H173067   0.769   2.327  11.037  0.1205 -0.7076  0.8542
17192TIP3    H273068   0.679   2.262  10.934  0.3411  0.1993  0.0685
17193TIP3   OH273069   1.045   4.149   2.866 -0.2347 -0.6322  0.0219
17193TIP3    H173070   1.019   4.181   2.779 -1.1744 -1.0461  0.1391
17193TIP3    H273071   0.964   4.116   2.905  0.3552 -1.3792  0.6593
17194TIP3   OH273072   1.070   2.681   0.748 -0.0253  0.3422 -0.0257
17194TIP3    H173073   1.014   2.657   0.674 -0.0340 -1.7602  0.6017
17194TIP3    H273074   1.009   2.716   0.813 -0.3035  0.1459 -0.1806
17195TIP3   OH273075   2.289   6.321   0.575 -0.3488  0.1876 -0.3026
17195TIP3    H173076   2.313   6.330   0.483 -3.8809  0.0798 -1.3757
17195TIP3    H273077   2.312   6.406   0.614 -0.3931  0.8727 -1.7174
17196TIP3   OH273078   4.598   2.560  16.463 -0.7166  0.0960 -0.1349
17196TIP3    H173079   4.603   2.591  16.553 -1.3917 -0.4434  0.0882
17196TIP3    H273080   4.681   2.588  16.424 -1.0582  1.7015  0.2149
17197TIP3   OH273081   5.058   6.681  15.731 -0.1032 -0.1104  0.3590
17197TIP3    H173082   5.148   6.668  15.700  0.2086  3.0303 -0.3569
17197TIP3    H273083   5.068   6.732  15.812 -1.2341 -1.5113  1.4514
17198TIP3   OH273084   5.877   3.304  11.600  1.0134  0.2158 -0.8514
17198TIP3    H173085   5.915   3.391  11.596  1.5428 -0.0350 -1.4615
17198TIP3    H273086   5.897   3.265  11.515 -1.9434  0.6139 -1.8616
17199TIP3   OH273087   1.093   4.443   2.756 -0.0092  0.0064  0.6026
17199TIP3    H173088   1.146   4.484   2.824 -0.8144  0.8307  0.7496
17199TIP3    H273089   1.128   4.479   2.674  2.4128 -2.5939  0.3170
17200TIP3   OH273090   0.710   3.128   4.832  0.5494 -0.0455 -0.4756
17200TIP3    H173091   0.753   3.208   4.802  1.4756 -0.2145  0.3251
17200TIP3    H273092   0.617   3.143   4.818  0.6876  1.2742 -0.1263
17201TIP3   OH273093   1.298   4.422  13.052 -0.4230  0.1457 -0.3428
17201TIP3    H173094   1.282   4.471  12.971  0.5921  0.2954 -0.4633
17201TIP3    H273095   1.377   4.462  13.089 -0.2574 -0.6306  0.1581
17202TIP3   OH273096   4.601   3.832   2.343  0.3226  0.4570 -0.4333
17202TIP3    H173097   4.687   3.874   2.335 -0.1645  1.3184 -1.4826
17202TIP3    H273098   4.570   3.855   2.430  1.7512 -1.0738  0.5292
17203TIP3   OH273099   2.801   0.348   0.418  0.6125 -0.6315  0.1190
17203TIP3    H173100   2.876   0.318   0.470  1.4615  1.2654  0.0622
17203TIP3    H273101   2.787   0.438   0.445  2.4737  1.2879 -4.2663
17204TIP3   OH273102   6.118   1.308   3.816 -1.1984  0.4996  0.0235
17204TIP3    H173103   6.132   1.247   3.888 -1.6072  1.3929  0.8723
17204TIP3    H273104   6.086   1.388   3.857 -2.5280  0.6633 -1.2435
17205TIP3   OH273105   0.722   6.126  11.496 -0.8486 -0.3170 -0.7913
17205TIP3    H173106   0.817   6.122  11.484 -0.6325  1.3217  0.1350
17205TIP3    H273107   0.690   6.043  11.460  0.7335 -0.1166 -2.8103
17206TIP3   OH273108   0.621   2.071   4.956  0.0927 -0.0076  0.1135
17206TIP3    H173109   0.561   1.997   4.952  0.1258 -0.2431  2.6860
17206TIP3    H273110   0.641   2.082   5.049  3.2574  0.7030 -0.5263
17207TIP3   OH273111   6.134   4.350  16.763  0.1949 -0.0918  0.2070
17207TIP3    H173112   6.176   4.382  16.843 -0.6811  0.3999  0.4780
17207TIP3    H273113   6.076   4.421  16.736 -1.3232 -1.1618  0.4778
17208TIP3   OH273114   2.942   4.760  12.507 -0.2628  0.0954 -0.3125
17208TIP3    H173115   2.852   4.768  12.538 -0.2241  2.9175 -0.6501
17208TIP3    H273116   2.995   4.766  12.587 -0.3251  1.8004 -0.3640
17209TIP3   OH273117   1.990   6.362   5.071  0.4463 -0.0761  0.5531
17209TIP3    H173118   1.898   6.351   5.095  0.4581 -0.0455  0.6136
17209TIP3    H273119   2.020   6.275   5.046 -0.7636  0.5047 -3.6746
17210TIP3   OH273120   4.264   4.881   3.936 -0.1807  0.1516 -0.1394
17210TIP3    H173121   4.242   4.840   4.020 -0.8112  1.3302  0.2873
17210TIP3    H273122   4.360   4.879   3.934 -0.1715 -0.2711  0.4096
17211TIP3   OH273123   3.383   2.386   1.173  0.0427 -0.5625  0.1928
17211TIP3    H173124   3.473   2.396   1.205  0.6714 -1.1019 -1.2965
17211TIP3    H273125   3.360   2.472   1.140 -0.1384 -0.3246  0.9307
17212TIP3   OH273126   2.564   0.623  13.864 -0.1568  0.2257 -0.0004
17212TIP3    H173127   2.535   0.557  13.927  1.8191  0.7152  1.5152
17212TIP3    H273128   2.567   0.704  13.914  0.5047  0.8411 -0.9975
17213TIP3   OH273129   3.697   1.428  10.958  0.2592 -0.0705 -0.1039
17213TIP3    H173130   3.775   1.470  10.922  0.3429 -0.1704 -0.0366
17213TIP3    H273131   3.663   1.493  11.021 -0.3530  0.4591 -0.9548
17214TIP3   OH273132   3.377   1.640   3.568  0.1233 -0.3182 -0.5222
17214TIP3    H173133   3.340   1.554   3.548  0.2283 -0.2845 -0.8717
17214TIP3    H273134   3.385   1.683   3.483 -0.2633  0.1751 -0.3208
17215TIP3   OH273135   4.251   0.283   0.233 -0.4183 -0.1004  0.1272
17215TIP3    H173136   4.341   0.315   0.234 -0.3960 -0.1485 -0.4044
17215TIP3    H273137   4.217   0.307   0.147 -0.0256 -2.5330 -0.7943
17216TIP3   OH273138   0.539   1.568  11.574 -0.1124 -0.1333  0.0498
17216TIP3    H173139   0.582   1.602  11.652 -0.4151 -0.7844  0.5017
17216TIP3    H273140   0.479   1.639  11.548 -0.5965 -0.2194  0.8760
17217TIP3   OH273141   5.616   0.811   0.327 -1.2169  0.9034 -0.3417
17217TIP3    H173142   5.597   0.891   0.377  0.3014  0.9700  0.1885
17217TIP3    H273143   5.673   0.841   0.256  0.7985  0.1200  0.8341
17218TIP3   OH273144   6.749   4.546   1.715  0.0233  0.7801  0.3414
17218TIP3    H173145   6.714   4.469   1.669  0.9518 -0.6176  1.8563
17218TIP3    H273146   6.675   4.606   1.721 -1.0423 -0.4592  0.0801
17219TIP3   OH273147   6.149   3.798  13.379 -0.3522  0.1707 -0.1127
17219TIP3    H173148   6.195   3.875  13.347  0.7019  0.4918  2.0390
17219TIP3    H273149   6.189   3.779  13.464  1.1971 -4.2240 -1.5252
17220TIP3   OH273150   6.069   6.085   6.343 -0.0823 -0.1898 -0.5983
17220TIP3    H173151   6.086   6.020   6.275  1.1627  0.3086 -0.7964
17220TIP3    H273152   6.156   6.105   6.378 -0.6695 -0.2452  0.9636
17221TIP3   OH273153   3.146   1.027  15.651 -0.1008 -0.3517  0.6266
17221TIP3    H173154   3.190   0.943  15.657 -0.0900 -0.6359 -2.2256
17221TIP3    H273155   3.117   1.033  15.560 -0.1014  2.7097  0.7188
17222TIP3   OH273156   3.971   0.358  10.485  0.4749  0.9892  0.5456
17222TIP3    H173157   4.051   0.321  10.448  1.3114  1.4802  1.7925
17222TIP3    H273158   3.977   0.452  10.466 -0.4109  0.8787 -0.3924
17223TIP3   OH273159   2.349   1.680   4.744  0.2354  0.1579 -0.0123
17223TIP3    H173160   2.268   1.681   4.794  0.0586 -0.0583 -0.2978
17223TIP3    H273161   2.407   1.741   4.792 -0.1888  0.5413  0.0201
17224TIP3   OH273162   2.564   5.306  11.473 -0.3200  0.4719  0.2306
17224TIP3    H173163   2.619   5.311  11.395 -1.9843  0.2734 -1.0123
17224TIP3    H273164   2.489   5.253  11.446 -1.7293  1.7425  1.4800
17225TIP3   OH273165   0.167   3.967   5.041 -0.4716  0.1050 -0.0981
17225TIP3    H173166   0.121   3.915   4.975 -0.4286  1.2575 -1.0587
17225TIP3    H273167   0.209   3.902   5.097 -1.8184 -0.9281 -0.2424
17226TIP3   OH273168   1.469   1.530   6.711  0.1967 -0.0662 -0.0712
17226TIP3    H173169   1.465   1.512   6.617  0.6097 -0.0498 -0.0924
17226TIP3    H273170   1.562   1.537   6.731  0.1184 -0.1945  0.3647
17227TIP3   OH273171   5.182   0.422   3.474  0.3857 -0.2042  0.1122
17227TIP3    H173172   5.106   0.466   3.436 -0.3098 -1.4411  0.0054
17227TIP3    H273173   5.234   0.394   3.399  0.0418 -0.8816  0.1173
17228TIP3   OH273174   1.885   0.621   5.376  0.4008  0.1948  0.0248
17228TIP3    H173175   1.845   0.616   5.289 -0.0767 -1.3075  0.2982
17228TIP3    H273176   1.841   0.695   5.419 -1.1420 -0.5696 -0.1676
17229TIP3   OH273177   1.952   0.018   2.357  1.3233  0.3201 -0.2976
17229TIP3    H173178   2.020   0.085   2.344  1.6906  0.0547  0.2251
17229TIP3    H273179   1.929   0.025   2.449 -0.2246  1.2118 -0.7253
17230TIP3   OH273180   1.171   3.387   2.734 -0.2334  0.1815 -0.2918
17230TIP3    H173181   1.161   3.292   2.735 -2.0876  0.3425  0.2452
17230TIP3    H273182   1.082   3.421   2.741  0.1528  1.9828 -2.5707
17231TIP3   OH273183   5.981   5.087  15.356  0.2428  0.4821 -0.4629
17231TIP3    H173184   5.932   5.154  15.309 -1.8720  0.5463  1.6521
17231TIP3    H273185   6.072   5.115  15.349 -0.4637  3.0887 -0.4701
17232TIP3   OH273186   5.013   0.429  16.357 -0.5297  0.2246 -0.4195
17232TIP3    H173187   4.924   0.393  16.353 -0.2660 -0.3580 -1.3984
17232TIP3    H273188   5.030   0.441  16.450 -1.8095  0.7827 -0.2407
17233TIP3   OH273189   1.402   6.572   0.572  0.2734 -0.2346 -0.0948
17233TIP3    H173190   1.442   6.531   0.496 -0.8459 -0.1463 -0.7563
17233TIP3    H273191   1.405   6.505   0.641  0.5430 -0.6035 -0.4650
17234TIP3   OH273192   1.072   6.211   4.597  0.0367  0.1287  0.1154
17234TIP3    H173193   1.041   6.131   4.554  0.4435 -1.0303  1.8607
17234TIP3    H273194   1.002   6.275   4.584 -0.8259 -0.8808 -0.3075
17235TIP3   OH273195   3.591   5.807  10.580 -0.8962  0.0924  0.0840
17235TIP3    H173196   3.533   5.883  10.592 -0.1104  0.9146 -1.0994
17235TIP3    H273197   3.664   5.823  10.640 -0.0658  0.9989 -1.1146
17236TIP3   OH273198   5.815   5.767  11.800 -0.5567  0.4504 -0.0452
17236TIP3    H173199   5.729   5.790  11.834 -0.4704  0.4176  0.1952
17236TIP3    H273200   5.864   5.849  11.803 -0.5009  0.4126  0.0515
17237TIP3   OH273201   3.736   4.151   5.509 -0.1128 -0.6541  0.0548
17237TIP3    H173202   3.712   4.184   5.596 -0.4209  1.3277 -0.7295
17237TIP3    H273203   3.824   4.186   5.494 -0.5948  0.1651 -0.9599
17238TIP3   OH273204   3.412   4.671  16.431  0.3226 -0.0115  0.3029
17238TIP3    H173205   3.383   4.681  16.522  2.5555  1.5051  0.9126
17238TIP3    H273206   3.349   4.723  16.380  0.0401  0.5214  1.1708
17239TIP3   OH273207   5.068   4.963   2.694  0.1915  0.1510  0.4334
17239TIP3    H173208   5.101   5.008   2.616  1.4214 -0.0583  0.8076
17239TIP3    H273209   5.059   5.032   2.759  0.8023  0.0734  0.6074
17240TIP3   OH273210   4.460   3.576   0.234  0.2591 -0.8335  0.1255
17240TIP3    H173211   4.520   3.602   0.164  1.3402  0.1335  1.3441
17240TIP3    H273212   4.375   3.569   0.191  0.9566 -0.7036 -1.3606
17241TIP3   OH273213   5.653   2.082  12.849 -0.2033  0.1094 -0.3559
17241TIP3    H173214   5.630   2.134  12.772 -0.2269  0.1508 -0.3213
17241TIP3    H273215   5.749   2.081  12.850 -0.1903 -1.1259 -1.2081
17242TIP3   OH273216   1.336   6.224  15.219  0.0728  0.2848 -0.5296
17242TIP3    H173217   1.276   6.282  15.172 -0.5868  0.6289  0.7037
17242TIP3    H273218   1.423   6.254  15.193 -0.2633  1.7012 -0.0999
17243TIP3   OH273219   5.359   2.144  16.918  0.0848  0.1083  0.1187
17243TIP3    H173220   5.366   2.213  16.984 -3.8625  1.5469 -0.6780
17243TIP3    H273221   5.325   2.068  16.965 -3.1454  1.2613 -0.0891
17244TIP3   OH273222   6.174   6.503  11.719 -0.5532 -0.3971 -0.2862
17244TIP3    H173223   6.160   6.438  11.650  1.9325  0.3759 -1.6413
17244TIP3    H273224   6.165   6.587  11.674  0.9503  0.1223  0.3306
17245TIP3   OH273225   5.609   6.358  12.809 -0.8338  0.1695  0.0308
17245TIP3    H173226   5.574   6.270  12.797 -0.5994  0.3276 -2.1372
17245TIP3    H273227   5.542   6.403  12.861 -1.6476 -0.8690 -0.0718
17246TIP3   OH273228   1.108   0.947  16.708 -0.0162  0.1101  0.6543
17246TIP3    H173229   1.194   0.957  16.668 -0.0316 -2.4414 -0.2062
17246TIP3    H273230   1.118   0.982  16.797  1.0849  2.3598 -0.2810
17247TIP3   OH273231   6.442   1.253   4.848 -0.4511 -0.2647 -0.6346
17247TIP3    H173232   6.483   1.179   4.803  1.0757  1.5930 -2.5253
17247TIP3    H273233   6.365   1.274   4.794 -1.1729 -0.7527  0.1823
17248TIP3   OH273234   4.396   2.088  15.702 -0.3942 -0.2308 -0.0286
17248TIP3    H173235   4.456   2.140  15.755 -0.3392 -1.1089  0.8106
17248TIP3    H273236   4.309   2.121  15.726 -0.3662 -0.5878  0.5876
17249TIP3   OH273237   3.654   3.577  11.603 -0.0148 -0.2430 -0.2467
17249TIP3    H173238   3.661   3.670  11.623 -0.8999  0.0299 -1.1192
17249TIP3    H273239   3.689   3.533  11.681  0.1599  0.8044  0.2883
17250TIP3   OH273240   0.301   0.469  12.966  0.1989  0.1336  0.2108
17250TIP3    H173241   0.395   0.488  12.968  0.0758  1.6558 -2.6576
17250TIP3    H273242   0.262   0.547  12.925 -2.5481  0.1753  2.5923
17251TIP3   OH273243   6.020   2.419  15.300  0.4830 -0.5162 -0.2042
17251TIP3    H173244   5.953   2.351  15.298 -0.3445  0.2598 -0.0236
17251TIP3    H273245   6.025   2.445  15.392  1.1459 -0.6724 -0.1935
17252TIP3   OH273246   0.152   0.022  14.652 -0.2800 -0.1617 -0.4975
17252TIP3    H173247   0.210   0.044  14.580  0.8309 -2.2327 -0.3233
17252TIP3    H273248   0.162   0.093  14.715  2.6296 -0.7277 -0.1784
17253TIP3   OH273249   6.815   5.025  11.951  0.0790 -0.1091  0.0693
17253TIP3    H173250   6.759   4.991  11.882  0.2389  0.9944 -0.6380
17253TIP3    H273251   6.755   5.065  12.014  0.0309  0.9181 -0.6011
17254TIP3   OH273252   1.591   3.566  12.821  0.6698  0.0059  0.2870
17254TIP3    H173253   1.659   3.500  12.835  1.4814  0.5973 -0.7284
17254TIP3    H273254   1.509   3.518  12.831  1.2090 -1.6116 -2.1553
17255TIP3   OH273255   4.054   6.409  13.563 -0.1656  0.2427  0.6852
17255TIP3    H173256   4.121   6.344  13.586 -0.8297 -0.5450  0.4377
17255TIP3    H273257   4.072   6.432  13.472  0.8404  1.3789  1.1351
17256TIP3   OH273258   1.017   4.106   1.807  0.3988 -0.4036 -0.2668
17256TIP3    H173259   1.068   4.030   1.777 -0.5614 -0.9728 -0.5171
17256TIP3    H273260   0.963   4.130   1.732  0.4786  0.3547 -0.0900
17257TIP3   OH273261   3.508   6.234  13.363 -0.0637 -0.2089 -0.3251
17257TIP3    H173262   3.584   6.176  13.354 -0.4509 -0.9070  0.7017
17257TIP3    H273263   3.456   6.218  13.284 -0.3734 -1.6085  0.1248
17258TIP3   OH273264   2.935   0.668   6.057 -0.4677  0.9473 -0.0056
17258TIP3    H173265   2.844   0.643   6.071 -0.9750  0.9442 -2.7385
17258TIP3    H273266   2.977   0.653   6.141 -2.7417 -0.1391  1.0312
17259TIP3   OH273267   2.279   2.198   5.520  0.0199  0.5042  0.1545
17259TIP3    H173268   2.291   2.283   5.478  3.2892 -0.8470 -2.0808
17259TIP3    H273269   2.364   2.179   5.560  0.6337 -2.9594 -2.2846
17260TIP3   OH273270   3.090   0.463  14.853 -0.3442 -0.1700 -0.1772
17260TIP3    H173271   3.166   0.511  14.821  0.0490  0.1315  1.1433
17260TIP3    H273272   3.106   0.372  14.829 -0.0084  0.0325 -0.7190
17261TIP3   OH273273   4.637   5.803  14.126  0.0767 -0.4936 -0.3880
17261TIP3    H173274   4.698   5.851  14.069 -0.6804  1.0161  0.0064
17261TIP3    H273275   4.602   5.733  14.070  0.8175 -0.2582 -1.1655
17262TIP3   OH273276   4.093   0.338   4.098 -0.0817 -0.1943  0.1275
17262TIP3    H173277   4.148   0.329   4.020 -0.1669 -2.5608  0.2594
17262TIP3    H273278   4.029   0.267   4.091 -1.6912  1.0788  1.1334
17263TIP3   OH273279   1.835   4.667  14.473  0.1958  0.4006  0.9142
17263TIP3    H173280   1.887   4.591  14.447 -0.6025  0.2815 -0.3738
17263TIP3    H273281   1.822   4.656  14.567  5.2279  2.0770  2.1316
17264TIP3   OH273282   3.659   6.658   4.591  0.3306  0.4460  0.1527
17264TIP3    H173283   3.716   6.697   4.658  0.0864  0.5188  0.3204
17264TIP3    H273284   3.653   6.726   4.523 -0.1618  0.7370  0.4837
17265TIP3   OH273285   3.091   3.508  12.239  0.0538  0.4438  0.3676
17265TIP3    H173286   3.010   3.556  12.223 -0.3267 -0.0952  0.7027
17265TIP3    H273287   3.112   3.526  12.331  0.3739  0.6612  0.2571
17266TIP3   OH273288   1.786   6.195  14.566  0.0832  0.4093 -0.1217
17266TIP3    H173289   1.724   6.268  14.563 -1.6319 -0.9543  0.4593
17266TIP3    H273290   1.818   6.188  14.476 -0.7836  0.9984 -0.4952
17267TIP3   OH273291   1.765   5.767  15.368 -0.0518  0.1242  0.6311
17267TIP3    H173292   1.757   5.777  15.463 -0.5471 -0.4146  0.6531
17267TIP3    H273293   1.725   5.682  15.349 -0.2531  0.3697 -0.0962
17268TIP3   OH273294   2.405   6.571   0.624 -0.5903  0.4218 -0.1905
17268TIP3    H173295   2.490   6.544   0.657 -0.6193 -2.8834 -2.4109
17268TIP3    H273296   2.425   6.630   0.552 -0.3484  1.8708  1.0083
17269TIP3   OH273297   1.086   1.034   2.547 -0.9791  0.3112  0.3925
17269TIP3    H173298   1.050   0.954   2.583 -0.1785  0.5474  1.7903
17269TIP3    H273299   1.023   1.061   2.480 -0.7238 -2.0440 -0.8932
17270TIP3   OH273300   3.947   1.113  10.263  0.5684 -0.5471  0.0562
17270TIP3    H173301   3.918   1.200  10.234  1.6309 -0.6376 -1.3970
17270TIP3    H273302   3.869   1.072  10.299  0.0575  1.0238  0.7971
17271TIP3   OH273303   3.129   2.201  16.422  0.6968  0.4987 -0.0542
17271TIP3    H173304   3.046   2.225  16.380  0.5004  0.5435  0.3519
17271TIP3    H273305   3.103   2.154  16.501  0.9655  2.6105  1.3913
17272TIP3   OH273306   2.078   4.239  17.079 -0.2980 -0.4757  0.0497
17272TIP3    H173307   2.123   4.159  17.050 -1.4250 -0.7034 -1.1459
17272TIP3    H273308   2.099   4.304  17.012  0.9990  0.4170  1.2512
17273TIP3   OH273309   5.676   1.351   5.141 -0.5570  0.2882  0.5512
17273TIP3    H173310   5.664   1.428   5.086 -4.2274 -0.3582  0.1710
17273TIP3    H273311   5.720   1.287   5.085 -1.5502  0.6531 -0.6982
17274TIP3   OH273312   0.349   6.136   0.615 -0.5272  0.0929  0.0658
17274TIP3    H173313   0.380   6.085   0.540  0.5940 -0.6101  0.9707
17274TIP3    H273314   0.287   6.199   0.578 -0.3855 -0.5779 -1.3666
17275TIP3   OH273315   1.966   6.282  13.444 -0.5590  0.2207  0.5199
17275TIP3    H173316   2.026   6.241  13.506 -1.9555  0.4266  2.0893
17275TIP3    H273317   1.920   6.208  13.403  0.3482  0.0850 -0.2921
17276TIP3   OH273318   4.518   0.158  15.859 -0.6742  0.1705 -0.4914
17276TIP3    H173319   4.610   0.148  15.883 -0.8250  1.0773  0.5683
17276TIP3    H273320   4.503   0.253  15.858 -2.1395  0.0520  1.7727
17277TIP3   OH273321   4.502   1.879  11.615  0.0514 -0.3720  0.1809
17277TIP3    H173322   4.468   1.944  11.676  0.6215  0.1622 -0.0528
17277TIP3    H273323   4.457   1.897  11.532 -0.5099 -0.9104  0.3659
17278TIP3   OH273324   2.451   2.035   0.202  0.3900  0.2601  0.1732
17278TIP3    H173325   2.490   1.948   0.195  0.7913  0.5720 -2.1315
17278TIP3    H273326   2.359   2.019   0.223  0.8072 -0.6380  1.4064
17279TIP3   OH273327   5.425   0.649  15.789 -0.5173  0.4614  0.2689
17279TIP3    H173328   5.478   0.728  15.796  0.2551  0.0125 -0.4242
17279TIP3    H273329   5.431   0.624  15.697  0.6078 -1.3335  0.7773
17280TIP3   OH273330   2.753   0.264   1.999  0.6608  0.1240  0.2327
17280TIP3    H173331   2.806   0.343   2.011  1.9283 -0.7871  0.9766
17280TIP3    H273332   2.817   0.193   1.995 -0.4944 -0.9882  0.7453
17281TIP3   OH273333   4.339   1.432   3.612 -0.1394  0.1617  0.2573
17281TIP3    H173334   4.353   1.411   3.704 -1.4158  0.6328  0.5785
17281TIP3    H273335   4.348   1.348   3.566 -0.8215 -0.3168  0.9745
17282TIP3   OH273336   1.932   6.855  11.591 -0.0866 -0.4451 -0.2074
17282TIP3    H173337   2.016   6.853  11.636  0.4110 -1.7567 -1.1244
17282TIP3    H273338   1.908   6.763  11.580 -1.6417 -0.0948  0.0193
17283TIP3   OH273339   4.339   6.734  12.309  0.1200  0.5470 -0.1144
17283TIP3    H173340   4.408   6.786  12.267  1.0236  0.5375  1.2828
17283TIP3    H273341   4.292   6.693  12.237  1.6314  0.5056 -1.1117
17284TIP3   OH273342   1.465   1.797  11.440 -0.1973  0.0602 -0.1590
17284TIP3    H173343   1.448   1.848  11.360  0.0132 -0.4009 -0.5004
17284TIP3    H273344   1.538   1.842  11.482 -0.8467  0.8089  0.2253
17285TIP3   OH273345   2.506   1.253  12.213  0.3881  0.1028 -0.2363
17285TIP3    H173346   2.591   1.268  12.255 -1.1357  0.1833  3.0664
17285TIP3    H273347   2.455   1.332  12.232 -1.6484 -1.4684  1.2262
17286TIP3   OH273348   1.830   5.225  16.366  0.3387  0.5406 -0.0737
17286TIP3    H173349   1.903   5.285  16.379  0.4603 -0.0988  2.6338
17286TIP3    H273350   1.847   5.152  16.425 -1.0355 -1.0390 -1.5135
17287TIP3   OH273351   1.256   0.731   1.315 -0.3491 -0.0496  0.3101
17287TIP3    H173352   1.192   0.660   1.310  1.0990 -1.4818  1.1925
17287TIP3    H273353   1.218   0.793   1.377 -1.6147 -0.0485 -0.4336
17288TIP3   OH273354   1.755   0.329   1.657  0.7449 -0.0481 -0.1787
17288TIP3    H173355   1.724   0.410   1.696 -1.4283 -0.4360 -0.9640
17288TIP3    H273356   1.789   0.355   1.571  1.5004  0.2080  0.1856
17289TIP3   OH273357   1.676   5.792   3.604  0.2457 -0.2798  0.1361
17289TIP3    H173358   1.580   5.785   3.605  0.2604 -1.5609  3.5425
17289TIP3    H273359   1.693   5.869   3.549 -2.5343 -1.2903 -2.4287
17290TIP3   OH273360   5.943   4.252  11.492 -0.3615  0.3201  0.5082
17290TIP3    H173361   5.855   4.264  11.525 -0.2571  1.3021  0.4551
17290TIP3    H273362   5.988   4.335  11.511 -0.0167  0.5643 -1.1869
17291TIP3   OH273363   0.513   6.645   6.380  0.7213 -0.4258  0.5171
17291TIP3    H173364   0.492   6.710   6.313  0.8881 -0.6237  0.2699
17291TIP3    H273365   0.437   6.645   6.438  1.7825  1.8458  2.0324
17292TIP3   OH273366   2.853   0.406   4.059  0.0198 -0.4411 -0.1501
17292TIP3    H173367   2.774   0.452   4.032  0.3175  0.1085 -0.0939
17292TIP3    H273368   2.923   0.444   4.006  0.4769  0.0880  0.8149
17293TIP3   OH273369   4.297   2.629   2.784 -0.5206  0.2466  0.3311
17293TIP3    H173370   4.335   2.634   2.696 -3.8524  3.5829 -1.2102
17293TIP3    H273371   4.237   2.554   2.780 -0.6609  0.3865 -0.2919
17294TIP3   OH273372   0.782   3.400   3.068 -0.0975 -0.1296 -0.5093
17294TIP3    H173373   0.779   3.329   3.004  0.3870  0.6662 -1.4370
17294TIP3    H273374   0.745   3.475   3.022  3.0000  1.2464 -0.9425
17295TIP3   OH273375   4.682   2.404  10.710  0.6839  0.2688 -0.1380
17295TIP3    H173376   4.630   2.379  10.633 -0.0907  0.1451  0.4088
17295TIP3    H273377   4.739   2.474  10.679  0.5545  0.0603 -0.8818
17296TIP3   OH273378   3.077   4.014   6.359 -0.2942  0.2337 -0.3562
17296TIP3    H173379   3.124   4.096   6.340 -0.8531  0.1509 -2.2862
17296TIP3    H273380   3.143   3.957   6.399 -0.1326  1.9143  2.0053
17297TIP3   OH273381   5.304   2.815  14.012  0.0142 -0.0702  0.0315
17297TIP3    H173382   5.376   2.779  14.064  0.7312  0.8729 -0.2655
17297TIP3    H273383   5.316   2.910  14.018 -1.8320  0.1452  0.8272
17298TIP3   OH273384   4.514   0.201   5.365  0.2505  0.1735 -0.0114
17298TIP3    H173385   4.428   0.180   5.399  0.8983 -1.4580  0.7357
17298TIP3    H273386   4.503   0.205   5.270 -0.6129 -0.1915  0.0722
17299TIP3   OH273387   5.114   1.003   4.959  0.1496 -0.7414 -0.0202
17299TIP3    H173388   5.070   0.989   4.875 -2.4288  0.4936  1.0039
17299TIP3    H273389   5.077   0.937   5.017 -0.4199  0.3368  0.8800
17300TIP3   OH273390   2.817   3.384   0.537  0.4952  0.3850  0.0426
17300TIP3    H173391   2.832   3.289   0.536  0.3268  0.3476  0.6245
17300TIP3    H273392   2.731   3.395   0.496 -0.9856 -0.0247  2.7713
17301TIP3   OH273393   1.210   1.349   1.494 -0.1998 -0.0394  0.4221
17301TIP3    H173394   1.138   1.325   1.437 -0.2528 -0.1994  0.5571
17301TIP3    H273395   1.175   1.420   1.549 -0.3340 -0.2912  0.6620
17302TIP3   OH273396   6.433   0.437   2.803  0.6321  0.5215 -0.1215
17302TIP3    H173397   6.457   0.437   2.711  0.5382  0.4850 -0.1464
17302TIP3    H273398   6.430   0.529   2.828 -1.7899  0.6952 -0.8061
17303TIP3   OH273399   3.401   2.053   4.477 -0.2482  0.2112 -0.6545
17303TIP3    H173400   3.365   1.973   4.438 -0.1527 -1.3674  2.2588
17303TIP3    H273401   3.492   2.032   4.496 -0.1639  1.0826 -0.0254
17304TIP3   OH273402   1.149   0.495   0.431  0.4703 -0.4212 -0.0186
17304TIP3    H173403   1.074   0.531   0.478 -1.7150 -0.1008 -3.3559
17304TIP3    H273404   1.225   0.522   0.482 -1.5979 -0.0848  3.1409
17305TIP3   OH273405   2.459   3.335   1.808  0.5570 -0.2132 -0.2244
17305TIP3    H173406   2.467   3.304   1.898 -0.9500  0.8375  0.3045
17305TIP3    H273407   2.476   3.429   1.814 -1.0689  0.1455 -0.7517
17306TIP3   OH273408   5.145   3.478  12.467 -0.2311 -0.5247  0.0972
17306TIP3    H173409   5.221   3.450  12.518  0.2436 -1.4604 -1.0648
17306TIP3    H273410   5.182   3.536  12.400 -0.7816  0.3168  0.5066
17307TIP3   OH273411   0.051   6.202   5.784 -1.0985 -0.4980  0.1162
17307TIP3    H173412   0.094   6.267   5.728 -1.7785 -0.3379 -0.2253
17307TIP3    H273413   0.123   6.163   5.834 -0.6802  0.5161  0.3244
17308TIP3   OH273414   6.335   0.831   5.291  0.2528 -0.0364 -0.2760
17308TIP3    H173415   6.312   0.912   5.245 -0.4416 -0.7398 -1.2310
17308TIP3    H273416   6.255   0.806   5.337  0.5500 -0.0324  0.2437
17309TIP3   OH273417   6.768   1.344   3.344 -0.0187  0.1043  0.3891
17309TIP3    H173418   6.708   1.334   3.418  2.1730 -1.6065  2.0729
17309TIP3    H273419   6.809   1.429   3.358  0.5635 -0.3181  1.3250
17310TIP3   OH273420   5.005   3.813  15.969 -0.2857 -0.1472  0.1351
17310TIP3    H173421   5.039   3.833  16.057 -0.1917 -1.5183  0.4327
17310TIP3    H273422   4.923   3.767  15.985 -0.9234  0.7214 -0.5387
17311TIP3   OH273423   5.001   4.285  12.606 -0.3372  0.1751  0.4270
17311TIP3    H173424   5.036   4.262  12.520 -2.0929  1.1697 -0.6201
17311TIP3    H273425   5.052   4.361  12.635  1.0499 -0.8859  0.8496
17312TIP3   OH273426   1.760   5.856  14.926  0.2930  0.4703 -0.4032
17312TIP3    H173427   1.796   5.826  15.010 -0.3613  0.4166 -0.1311
17312TIP3    H273428   1.793   5.793  14.862 -2.1508 -1.7905  0.3380
17313TIP3   OH273429   0.827   2.037  14.380  0.0870 -0.1269  0.2325
17313TIP3    H173430   0.863   1.948  14.379 -0.8241 -0.5104  0.6158
17313TIP3    H273431   0.751   2.033  14.322  1.0815  0.8869 -1.2470
17314TIP3   OH273432   3.380   4.664  12.381  0.3424 -0.1011  0.4663
17314TIP3    H173433   3.367   4.754  12.353  2.0667  0.1436  0.3434
17314TIP3    H273434   3.393   4.670  12.476  0.0873 -0.2642  0.5121
17315TIP3   OH273435   1.721   5.043   2.380  0.2894 -0.1852 -0.3109
17315TIP3    H173436   1.670   5.078   2.307 -0.5635  1.6505  1.0803
17315TIP3    H273437   1.802   5.094   2.380 -1.2474  2.5857  2.1479
17316TIP3   OH273438   3.920   4.847  13.087 -0.8409  0.3117 -0.1490
17316TIP3    H173439   4.002   4.807  13.115  0.0605  2.0414 -0.1961
17316TIP3    H273440   3.859   4.773  13.078  0.7204 -1.0270 -0.2268
17317TIP3   OH273441   2.728   5.004   0.768  0.1571  0.4499  0.4621
17317TIP3    H173442   2.639   4.984   0.739  0.3895  0.2510 -0.1168
17317TIP3    H273443   2.724   4.997   0.864  0.3954 -3.2238  0.3636
17318TIP3   OH273444   6.852   1.530  12.254 -0.0349  0.4217  0.0429
17318TIP3    H173445   6.787   1.526  12.325 -1.0684 -0.4070 -0.9086
17318TIP3    H273446   6.802   1.558  12.177  0.5719 -0.8298 -0.8495
17319TIP3   OH273447   1.710   5.511   6.190  0.3080 -0.3296  0.2256
17319TIP3    H173448   1.678   5.444   6.251 -0.1492 -0.0196  0.3313
17319TIP3    H273449   1.798   5.533   6.222  0.2989 -0.5865  0.4301
17320TIP3   OH273450   0.710   5.755   5.143 -0.0756 -0.4381  0.0526
17320TIP3    H173451   0.673   5.745   5.056  1.3132 -0.6341 -0.5408
17320TIP3    H273452   0.774   5.684   5.150  0.7355  0.3397  0.7404
17321TIP3   OH273453   6.004   3.683  14.508 -0.3348  0.4521  0.4946
17321TIP3    H173454   5.963   3.764  14.476 -0.4605 -0.2305 -1.1819
17321TIP3    H273455   5.931   3.625  14.528 -0.2387  0.6630  1.5131
17322TIP3   OH273456   5.207   0.045  16.471  0.1579  0.0214  0.3536
17322TIP3    H173457   5.111   0.053  16.469  0.1626  0.0053 -1.1786
17322TIP3    H273458   5.228   0.035  16.564 -1.1990  1.6022  0.8935
17323TIP3   OH273459   3.084   0.962  12.569 -0.2131  0.6776  0.1106
17323TIP3    H173460   3.077   1.053  12.541  0.7720  0.1779 -2.0177
17323TIP3    H273461   3.001   0.923  12.540  0.3193  0.4249 -1.1534
17324TIP3   OH273462   4.623   0.958  13.251 -0.1047  0.4017  0.2593
17324TIP3    H173463   4.696   1.003  13.209  1.3242 -0.0709  2.1024
17324TIP3    H273464   4.603   1.011  13.328 -0.2217 -0.6425  0.9722
17325TIP3   OH273465   5.958   5.106  13.170 -0.5046 -0.3108 -0.1660
17325TIP3    H173466   5.889   5.074  13.112 -0.9626 -0.5889  0.5297
17325TIP3    H273467   5.925   5.191  13.201 -0.2242 -0.1270 -0.3593
17326TIP3   OH273468   4.342   2.511   4.069  0.2663  0.4334  0.6612
17326TIP3    H173469   4.328   2.463   3.987 -1.8194  1.7456  0.1965
17326TIP3    H273470   4.429   2.550   4.058 -0.0198  0.6935 -1.0077
17327TIP3   OH273471   1.605   5.790   5.039 -0.5148 -0.1478  0.2923
17327TIP3    H173472   1.603   5.874   5.086 -1.0709 -1.2404  2.3137
17327TIP3    H273473   1.698   5.771   5.028 -0.3550  1.2244 -1.2175
17328TIP3   OH273474   4.002   0.631  14.284  0.1589  0.3571  0.9807
17328TIP3    H173475   3.926   0.687  14.271 -0.3510 -0.8747 -2.1998
17328TIP3    H273476   4.073   0.674  14.235  1.0062  0.3958  2.1686
17329TIP3   OH273477   5.390   0.412  11.368  0.1225 -0.2018  0.0118
17329TIP3    H173478   5.307   0.445  11.334  0.0208  1.5591  1.7981
17329TIP3    H273479   5.378   0.317  11.372 -1.7193 -0.0089 -0.0176
17330TIP3   OH273480   0.474   3.383  16.378 -0.0760 -0.0295  0.4073
17330TIP3    H173481   0.473   3.451  16.311  1.1754 -0.4875 -0.1071
17330TIP3    H273482   0.514   3.424  16.454 -1.6447  0.5389  0.9584
17331TIP3   OH273483   4.095   6.567  16.982  0.2333  0.0988 -0.3675
17331TIP3    H173484   4.135   6.560  17.069  0.2538  1.9067 -0.1827
17331TIP3    H273485   4.001   6.559  16.999  0.3469 -1.8205 -0.4993
17332TIP3   OH273486   1.640   1.703   0.748 -0.5795 -0.1391 -0.1209
17332TIP3    H173487   1.714   1.651   0.780 -0.1858  0.8912  0.7154
17332TIP3    H273488   1.681   1.776   0.701 -0.8039  2.4322  3.2956
17333TIP3   OH273489   1.175   1.157   4.887  0.6271 -0.3888 -0.2853
17333TIP3    H173490   1.100   1.214   4.897 -0.3828 -1.7627  0.2368
17333TIP3    H273491   1.243   1.197   4.941  0.1027  0.5467 -0.2960
17334TIP3   OH273492   2.261   0.233   0.481 -0.3181  0.3668  0.1972
17334TIP3    H173493   2.232   0.252   0.570 -0.9098 -1.4004  0.4048
17334TIP3    H273494   2.357   0.230   0.487 -0.3648  0.0195  0.8224
17335TIP3   OH273495   6.070   3.096  15.403  0.3256  0.4787 -0.1932
17335TIP3    H173496   6.016   3.160  15.450 -1.1061 -1.0364  0.3230
17335TIP3    H273497   6.014   3.066  15.331  1.7820  1.3511 -1.7674
17336TIP3   OH273498   1.952   2.016  16.706 -0.1535 -0.2245  0.0311
17336TIP3    H173499   2.033   2.025  16.757  0.2419  2.1451 -0.9131
17336TIP3    H273500   1.976   1.959  16.633  0.8113  0.7952 -0.4760
17337TIP3   OH273501   0.889   1.949   0.554  0.0897 -0.1726 -0.1363
17337TIP3    H173502   0.819   2.005   0.587  0.1438  0.0665 -0.4228
17337TIP3    H273503   0.944   1.931   0.630 -0.6177 -0.8585  0.2205
17338TIP3   OH273504   5.783   6.071  14.991  0.7754  0.2132  0.4000
17338TIP3    H173505   5.758   6.164  14.984 -0.3776 -0.0808  0.3707
17338TIP3    H273506   5.779   6.039  14.900  1.3275  0.1620  0.3894
17339TIP3   OH273507   2.387   4.088   0.277 -0.6582  0.4750 -0.4021
17339TIP3    H173508   2.367   4.042   0.196  0.5727 -1.2174  0.1974
17339TIP3    H273509   2.312   4.071   0.334 -0.5876 -0.1012 -0.4775
17340TIP3   OH273510   0.416   2.007  16.876 -0.0948 -0.0381  0.4598
17340TIP3    H173511   0.384   1.950  16.946  0.8778  1.0516  1.8429
17340TIP3    H273512   0.337   2.036  16.831 -0.8994  0.5385  2.1566
17341TIP3   OH273513   0.486   5.984  13.420  0.0886  0.6944  0.0886
17341TIP3    H173514   0.435   6.023  13.349 -1.8717  0.6354  1.3802
17341TIP3    H273515   0.498   5.893  13.394 -0.7901  0.6227 -0.0906
17342TIP3   OH273516   5.060   3.971   5.085  0.6349 -0.0792  0.3110
17342TIP3    H173517   5.038   3.993   5.176  0.6100  0.0710  0.2697
17342TIP3    H273518   5.039   4.051   5.036  0.1736 -0.3283  0.0977
17343TIP3   OH273519   6.066   2.989   2.318  0.3836  0.5177  0.4000
17343TIP3    H173520   6.085   3.083   2.325  1.5815  0.7815 -3.6953
17343TIP3    H273521   6.005   2.983   2.244 -0.2486 -1.9388  1.0346
17344TIP3   OH273522   6.496   1.745   0.219 -0.1093 -0.2353 -0.0389
17344TIP3    H173523   6.485   1.779   0.130 -2.2060 -0.7479 -0.0032
17344TIP3    H273524   6.451   1.661   0.220 -1.1091  0.2580  1.7891
17345TIP3   OH273525   3.899   2.739   6.237  0.0075  0.0038 -0.1761
17345TIP3    H173526   3.951   2.715   6.314  1.0661  1.0878 -0.5289
17345TIP3    H273527   3.914   2.833   6.226  0.5021 -0.2836 -2.1742
17346TIP3   OH273528   1.848   2.588  15.542 -0.2460  0.2711 -0.2324
17346TIP3    H173529   1.856   2.571  15.449 -0.2797 -1.7688  0.0895
17346TIP3    H273530   1.786   2.660  15.549  0.0199  0.6710 -1.7844
17347TIP3   OH273531   2.250   3.290  15.980 -0.0074  0.0857  0.4156
17347TIP3    H173532   2.189   3.300  16.053  0.9539  0.7798  1.1405
17347TIP3    H273533   2.299   3.372  15.978  1.1601 -0.5976  0.0871
17348TIP3   OH273534   5.952   0.687  11.942 -0.5007 -0.0034  0.0283
17348TIP3    H173535   5.920   0.694  11.852  0.4317 -0.0194 -0.3108
17348TIP3    H273536   5.881   0.644  11.989 -0.6938 -0.6946 -0.8670
17349TIP3   OH273537   1.378   5.933  14.544 -0.2410 -0.2385  0.4492
17349TIP3    H173538   1.438   5.955  14.473 -1.0350  1.0950  0.1561
17349TIP3    H273539   1.432   5.935  14.623  0.1803  0.6571  0.1550
17350TIP3   OH273540   1.026   2.635  14.820  0.3475 -0.5421 -0.3354
17350TIP3    H173541   0.998   2.675  14.902  1.2524 -3.1740  1.4121
17350TIP3    H273542   0.945   2.604  14.779 -0.0414 -0.0062  0.0233
17351TIP3   OH273543   5.365   3.820  13.764  0.3922 -0.2668  0.4223
17351TIP3    H173544   5.331   3.748  13.817  1.6343  0.4903  2.3589
17351TIP3    H273545   5.290   3.878  13.751  0.1020 -0.3383  1.6373
17352TIP3   OH273546   3.700   4.375  12.910 -0.4530 -0.0926 -0.3749
17352TIP3    H173547   3.718   4.392  12.817 -2.1545  0.4488 -0.6424
17352TIP3    H273548   3.766   4.310  12.936  1.5093  1.4123 -1.3379
17353TIP3   OH273549   1.506   3.295   2.132 -0.2280  0.3975  0.9545
17353TIP3    H173550   1.494   3.337   2.217 -0.6690  2.2915  0.0025
17353TIP3    H273551   1.418   3.292   2.094  0.0880  0.4554  0.1862
17354TIP3   OH273552   0.782   6.745  16.613  0.4324 -0.3659 -0.0989
17354TIP3    H173553   0.796   6.730  16.519 -1.1421 -2.0125 -0.1210
17354TIP3    H273554   0.839   6.681  16.656  2.1778  1.2661  0.1834
17355TIP3   OH273555   1.931   1.475  11.987 -0.1859  0.7758 -0.0114
17355TIP3    H173556   1.923   1.459  11.893 -1.0311 -0.7427  0.2909
17355TIP3    H273557   1.892   1.398  12.028  1.6819  0.6062  1.5959
17356TIP3   OH273558   4.424   4.680   2.026 -0.4834 -0.2703  0.1999
17356TIP3    H173559   4.349   4.668   2.084  0.8576 -0.0382  2.0663
17356TIP3    H273560   4.477   4.747   2.069  0.8330 -0.4642 -1.0336
17357TIP3   OH273561   6.689   5.857  16.318  0.5069  0.1822  0.4006
17357TIP3    H173562   6.673   5.835  16.409  0.5333 -1.9385 -0.0508
17357TIP3    H273563   6.646   5.942  16.305 -0.0079  0.2301  2.2052
17358TIP3   OH273564   4.429   4.177  11.872  0.1907 -0.3781  0.3758
17358TIP3    H173565   4.337   4.161  11.852  0.5059 -0.8557 -0.7391
17358TIP3    H273566   4.476   4.159  11.791  1.5204 -2.2896  1.4877
17359TIP3   OH273567   2.372   3.520   1.261  0.5756 -0.1601  0.1553
17359TIP3    H173568   2.410   3.496   1.346  0.2768 -2.2270 -0.2334
17359TIP3    H273569   2.442   3.501   1.198  0.9705  1.8223 -0.0613
17360TIP3   OH273570   1.073   5.699   3.222 -0.0193  0.1994  0.1487
17360TIP3    H173571   1.133   5.772   3.204 -0.3489  1.1816  2.6712
17360TIP3    H273572   1.014   5.698   3.147 -0.3342  2.9044  0.2587
17361TIP3   OH273573   2.600   6.654  17.025 -0.5733  1.1650  0.1809
17361TIP3    H173574   2.693   6.662  17.004 -1.0093  1.1534 -1.9663
17361TIP3    H273575   2.594   6.681  17.117  1.4247  1.9751  0.1257
17362TIP3   OH273576   2.552   2.746   2.858  0.1740  0.4921 -0.1182
17362TIP3    H173577   2.561   2.674   2.796  0.8900  0.8002 -0.3826
17362TIP3    H273578   2.560   2.705   2.944  1.5657  0.3614 -0.2823
17363TIP3   OH273579   2.444   6.279   4.838 -0.2422 -0.0833 -0.0086
17363TIP3    H173580   2.487   6.365   4.835 -0.5466  0.0663 -0.1274
17363TIP3    H273581   2.368   6.288   4.780  0.0692 -0.6287 -0.4983
17364TIP3   OH273582   5.060   0.219  11.327  0.2303 -0.0147 -0.0246
17364TIP3    H173583   5.118   0.202  11.253  0.5964  1.4903 -0.1321
17364TIP3    H273584   4.978   0.248  11.287 -0.5832 -1.9595  0.1303
17365TIP3   OH273585   5.231   3.805  15.465  0.2201 -0.1595 -0.7891
17365TIP3    H173586   5.210   3.713  15.478  0.0823  0.1689  1.6164
17365TIP3    H273587   5.162   3.837  15.405 -1.6713 -0.8998  0.8806
17366TIP3   OH273588   5.740   4.667   2.708 -0.5256  0.6290 -0.0213
17366TIP3    H173589   5.672   4.727   2.677 -1.5561 -0.2356  0.5021
17366TIP3    H273590   5.697   4.581   2.710  0.9810 -0.1785 -0.9579
17367TIP3   OH273591   4.973   3.890   5.948 -0.0429 -0.2758 -0.4110
17367TIP3    H173592   4.969   3.847   6.033 -1.4569 -3.6158 -1.9815
17367TIP3    H273593   5.063   3.874   5.917 -0.2017 -1.1323 -0.4652
17368TIP3   OH273594   6.535   3.157   3.521 -0.6422 -1.0787  0.3976
17368TIP3    H173595   6.571   3.108   3.595  0.6519 -3.3181 -1.5663
17368TIP3    H273596   6.474   3.219   3.561 -0.9785 -3.0285  3.2190
17369TIP3   OH273597   6.727   1.368  17.006  0.0566  0.1313 -0.0247
17369TIP3    H173598   6.727   1.448  17.059 -0.2551 -0.0263  0.2164
17369TIP3    H273599   6.672   1.389  16.931  1.7296  0.8791 -1.1101
17370TIP3   OH273600   5.778   1.705  14.757  0.1704 -0.3495 -0.0095
17370TIP3    H173601   5.753   1.755  14.835  1.3045 -0.7825  0.6492
17370TIP3    H273602   5.706   1.643  14.745 -0.5848  0.5012 -0.0263
17371TIP3   OH273603   6.499   4.715  16.568 -0.1625 -0.2088 -0.1019
17371TIP3    H173604   6.476   4.652  16.636  0.4377 -0.0318  0.2727
17371TIP3    H273605   6.554   4.665  16.507 -0.0182 -0.1528 -0.0175
17372TIP3   OH273606   5.418   0.741  11.265  0.0968 -0.2582 -0.0281
17372TIP3    H173607   5.433   0.696  11.182  0.5228  2.2783 -1.4298
17372TIP3    H273608   5.325   0.727  11.283  0.3367 -2.1382 -0.0694
17373TIP3   OH273609   2.075   5.611  11.465 -0.6273 -1.0197  0.0906
17373TIP3    H173610   2.133   5.568  11.529 -0.2054  0.0903  0.4719
17373TIP3    H273611   2.114   5.697  11.452 -0.0294 -1.5947 -2.5679
17374TIP3   OH273612   1.089   1.021   4.078 -0.5203  0.3064 -0.5923
17374TIP3    H173613   1.065   0.928   4.082  2.5087 -0.5569  0.2186
17374TIP3    H273614   1.005   1.067   4.086 -2.1057 -2.3124 -0.5804
17375TIP3   OH273615   6.266   3.135   4.276  0.3298 -0.9259  0.1535
17375TIP3    H173616   6.219   3.212   4.246  1.0926  0.1026  1.4705
17375TIP3    H273617   6.291   3.089   4.196 -0.3092  0.0856 -0.6459
17376TIP3   OH273618   5.213   0.640  13.795 -0.1915 -0.0049  0.1221
17376TIP3    H173619   5.149   0.614  13.861  0.6216  1.3655  1.5190
17376TIP3    H273620   5.294   0.597  13.822  0.2872  1.0243  0.3583
17377TIP3   OH273621   6.637   2.053   1.089  0.5105 -0.7247 -0.2712
17377TIP3    H173622   6.615   2.079   1.000 -0.6753 -0.7423 -0.0077
17377TIP3    H273623   6.676   2.131   1.128 -1.0855  0.0612 -0.1297
17378TIP3   OH273624   4.471   0.753  11.751 -0.1255 -0.2823  0.4451
17378TIP3    H173625   4.532   0.789  11.686 -2.0226 -0.5050 -1.5914
17378TIP3    H273626   4.396   0.813  11.750 -0.7358 -0.9790  1.5232
17379TIP3   OH273627   1.054   3.501   1.506  0.5307  0.6482  0.2781
17379TIP3    H173628   1.042   3.536   1.418  2.4965  0.4733 -0.1133
17379TIP3    H273629   0.967   3.470   1.532 -0.3266  1.7768 -1.1107
17380TIP3   OH273630   6.692   3.346  14.348  0.5251  0.0739  0.2408
17380TIP3    H173631   6.675   3.262  14.304 -0.1604  0.2535  0.1588
17380TIP3    H273632   6.759   3.325  14.413  1.4870 -0.2292 -0.7989
17381TIP3   OH273633   4.660   6.754  16.521 -0.5820  0.6359  0.3714
17381TIP3    H173634   4.705   6.838  16.531  0.1101  0.2581  0.4591
17381TIP3    H273635   4.657   6.740  16.427  2.0581 -0.6791  0.3883
17382TIP3   OH273636   4.773   0.123   5.091 -0.0993 -0.5432  0.4692
17382TIP3    H173637   4.827   0.197   5.117 -0.2210  0.4903 -1.9253
17382TIP3    H273638   4.683   0.155   5.097 -0.1863 -0.6898  0.0139
17383TIP3   OH273639   2.976   5.989   3.657 -0.0292 -0.0972  0.4071
17383TIP3    H173640   3.049   5.966   3.600 -0.2040 -0.8917  0.4905
17383TIP3    H273641   3.017   6.002   3.743 -0.0538 -1.2122  0.6070
17384TIP3   OH273642   0.362   6.523  14.632 -0.3642 -0.1579  0.3491
17384TIP3    H173643   0.301   6.540  14.703 -1.5943  0.7085 -0.8465
17384TIP3    H273644   0.312   6.467  14.571 -0.2416  1.1094 -0.9591
17385TIP3   OH273645   5.503   6.726   1.785 -0.0529 -0.0512 -0.4778
17385TIP3    H173646   5.408   6.729   1.785 -0.0429  1.0027 -1.2050
17385TIP3    H273647   5.530   6.817   1.771  1.1044  0.1332  2.3011
17386TIP3   OH273648   0.046   2.811  14.475 -0.3285  0.9537  0.1305
17386TIP3    H173649   0.017   2.849  14.558  0.1614  1.2460  0.1714
17386TIP3    H273650  -0.035   2.781  14.433 -0.4126 -1.0757  1.6286
17387TIP3   OH273651   3.195   0.530   0.321 -0.1568 -0.1999 -0.1963
17387TIP3    H173652   3.168   0.441   0.300  0.8001 -0.3146 -1.0213
17387TIP3    H273653   3.287   0.521   0.346 -0.1075  0.5354 -0.0972
17388TIP3   OH273654   3.774   2.403  16.234  0.3212  0.1413 -0.6427
17388TIP3    H173655   3.679   2.398  16.250 -0.0143 -0.3575 -2.5326
17388TIP3    H273656   3.809   2.445  16.313 -1.1448 -1.8378  1.1707
17389TIP3   OH273657   4.215   2.727  16.726  0.2400 -0.1963 -0.2041
17389TIP3    H173658   4.122   2.711  16.741  0.1539  1.5273  1.5108
17389TIP3    H273659   4.229   2.702  16.635 -2.1663  0.5792 -0.8694
17390TIP3   OH273660   1.901   6.787   5.578 -0.2519  0.7249 -0.2780
17390TIP3    H173661   1.905   6.882   5.585  1.5113  0.6818 -0.3457
17390TIP3    H273662   1.927   6.755   5.665  0.4183  0.3206 -0.6130
17391TIP3   OH273663   5.204   4.190  11.975  0.4023 -0.3280 -0.3827
17391TIP3    H173664   5.262   4.190  11.898 -0.8200 -3.1983 -1.4128
17391TIP3    H273665   5.236   4.264  12.028  2.9069  0.2024 -2.4056
17392TIP3   OH273666   5.479   0.516   1.173  0.3302 -0.1909  0.3000
17392TIP3    H173667   5.485   0.494   1.080  2.4925 -1.4486  0.6612
17392TIP3    H273668   5.443   0.437   1.214  1.4076 -0.4830  0.7432
17393TIP3   OH273669   0.801   4.761   1.488  0.1432 -0.5717  0.0748
17393TIP3    H173670   0.854   4.685   1.463  0.2428 -0.4732 -0.0097
17393TIP3    H273671   0.756   4.786   1.408  2.0636  1.0525 -0.5602
17394TIP3   OH273672   6.062   4.531  14.779  0.3624  0.2070 -0.0673
17394TIP3    H173673   6.020   4.448  14.801  0.7869 -0.1307 -0.5069
17394TIP3    H273674   6.093   4.565  14.863 -0.4386  0.2729  0.2054
17395TIP3   OH273675   6.550   5.347   5.286 -0.2991 -0.4452 -0.1771
17395TIP3    H173676   6.581   5.305   5.206 -2.3193  0.0246 -1.2884
17395TIP3    H273677   6.609   5.421   5.299  1.6057 -1.9676  0.2492
17396TIP3   OH273678   2.519   5.268   1.273  0.5922 -0.5984 -0.0717
17396TIP3    H173679   2.447   5.206   1.270  1.2152 -1.2899 -1.9361
17396TIP3    H273680   2.590   5.221   1.316  0.7009 -0.7746 -0.4439
17397TIP3   OH273681   4.563   5.642   0.385  0.5843  0.3264  0.8555
17397TIP3    H173682   4.649   5.601   0.372 -0.0207 -0.8612  0.3923
17397TIP3    H273683   4.532   5.607   0.469  0.5384  0.7294  1.0081
17398TIP3   OH273684   0.629   2.263  13.427 -0.7353  0.5627 -0.2128
17398TIP3    H173685   0.636   2.301  13.514 -1.7393  2.6531 -0.9856
17398TIP3    H273686   0.628   2.338  13.368 -1.8375 -0.7032 -1.8950
17399TIP3   OH273687   2.053   2.729  16.081  1.1174  0.3040 -0.3652
17399TIP3    H173688   2.079   2.820  16.095  1.5668  0.4978 -2.2395
17399TIP3    H273689   1.990   2.732  16.010 -0.3125 -0.6934  0.7990
17400TIP3   OH273690   3.762   0.435   1.323  0.0526 -0.1503 -0.5403
17400TIP3    H173691   3.755   0.340   1.315 -1.0201 -0.1214 -0.1290
17400TIP3    H273692   3.740   0.468   1.236  0.3689 -0.2692 -0.6680
17401TIP3   OH273693   4.433   5.406  15.858 -0.3694 -0.3094  0.3557
17401TIP3    H173694   4.456   5.347  15.930  0.1980  1.7493  1.9490
17401TIP3    H273695   4.357   5.454  15.891  0.8235  1.7338  0.2681
17402TIP3   OH273696   5.970   4.622   3.646  0.0146  0.1279 -0.3481
17402TIP3    H173697   5.976   4.663   3.560 -0.0674 -1.8354 -1.3600
17402TIP3    H273698   5.880   4.639   3.674 -0.1708  0.1991 -0.9705
17403TIP3   OH273699   4.629   2.610   2.974  0.1370 -0.3039 -0.2491
17403TIP3    H173700   4.566   2.681   2.973  1.0579  0.5417 -0.7650
17403TIP3    H273701   4.714   2.653   2.987  0.4404 -1.5755  2.7778
17404TIP3   OH273702   2.794   2.207   4.652  0.2024  0.1397 -0.0473
17404TIP3    H173703   2.789   2.287   4.599 -0.1838  0.2887  0.2069
17404TIP3    H273704   2.704   2.195   4.684  0.5929  0.5193  1.2457
17405TIP3   OH273705   3.904   0.403  11.495 -0.6372 -0.3129 -0.2313
17405TIP3    H173706   3.841   0.360  11.552 -2.0032  2.5419  0.5913
17405TIP3    H273707   3.989   0.380  11.531 -1.4386  0.7785  2.5659
17406TIP3   OH273708   5.113   2.034  13.289  0.0216  0.2823  0.0404
17406TIP3    H173709   5.087   1.942  13.281 -0.5926  0.5029 -0.5578
17406TIP3    H273710   5.192   2.031  13.343  0.3280 -0.6522 -0.4296
17407TIP3   OH273711   3.806   2.837  16.428 -0.4880  0.2719  0.0552
17407TIP3    H173712   3.889   2.857  16.471  0.0846 -2.1944  0.2164
17407TIP3    H273713   3.819   2.864  16.337  0.0525  0.9778  0.3348
17408TIP3   OH273714   3.187   3.901  12.501  0.6791  0.2459  0.2838
17408TIP3    H173715   3.137   3.895  12.419  0.5029 -0.9976  0.4646
17408TIP3    H273716   3.150   3.978  12.545 -2.0541 -1.3069  0.9902
17409TIP3   OH273717   0.600   6.195   5.920  0.0752 -0.1262  0.0934
17409TIP3    H173718   0.510   6.210   5.947  0.3814 -0.9860  1.7123
17409TIP3    H273719   0.633   6.281   5.895 -1.1714  0.1918 -0.4975
17410TIP3   OH273720   2.519   5.220  15.988  0.1037  0.6649 -0.1296
17410TIP3    H173721   2.498   5.219  16.082  0.4491 -0.6783 -0.0366
17410TIP3    H273722   2.438   5.248  15.946 -1.1865 -1.9650  0.3831
17411TIP3   OH273723   2.966   5.928  16.300 -0.8638  0.4374 -0.3460
17411TIP3    H173724   2.975   5.972  16.215 -1.3020  0.9635 -0.1290
17411TIP3    H273725   2.872   5.933  16.319 -1.3354 -2.5885 -1.3518
17412TIP3   OH273726   2.086   1.978   0.898  0.4252 -0.0133 -0.1314
17412TIP3    H173727   2.084   2.070   0.925 -0.5639  0.5978 -2.0898
17412TIP3    H273728   2.065   1.930   0.978  0.2921  1.4973  0.7926
17413TIP3   OH273729   3.820   0.871  14.750 -0.6831 -0.0297 -0.1571
17413TIP3    H173730   3.849   0.955  14.715 -0.7585  0.7217  1.4842
17413TIP3    H273731   3.810   0.815  14.673 -1.4248  1.6970 -1.3707
17414TIP3   OH273732   5.835   5.845  13.061  0.0638  0.1153  0.2504
17414TIP3    H173733   5.748   5.817  13.088 -0.8138  1.6456 -0.8998
17414TIP3    H273734   5.886   5.764  13.060 -1.7854 -1.1100 -0.7157
17415TIP3   OH273735   5.072   0.085   0.260  0.1256 -0.5465  0.3316
17415TIP3    H173736   5.130   0.052   0.329  0.0571  1.7803  1.6205
17415TIP3    H273737   4.984   0.069   0.292  0.0948  0.0895  0.5911
17416TIP3   OH273738   2.244   6.801   0.159  0.1627  0.0099 -0.2774
17416TIP3    H173739   2.286   6.871   0.109 -0.6359  1.7358  1.3469
17416TIP3    H273740   2.152   6.828   0.167 -0.8638 -2.5797 -1.8527
17417TIP3   OH273741   0.889   6.238   0.459  0.2109 -0.0947 -0.1605
17417TIP3    H173742   0.932   6.261   0.541  1.1036  1.5517 -1.0398
17417TIP3    H273743   0.940   6.164   0.425 -0.2274 -0.8502  0.8001
17418TIP3   OH273744   5.627   3.753  12.722 -0.0975 -0.1793  0.1907
17418TIP3    H173745   5.541   3.769  12.763  1.0987  1.3579  2.3260
17418TIP3    H273746   5.658   3.672  12.762  0.4910  0.6089  1.3830
17419TIP3   OH273747   0.357   0.545  11.493 -0.5530 -0.0543  0.5787
17419TIP3    H173748   0.327   0.631  11.523 -1.8102  0.0127 -0.7538
17419TIP3    H273749   0.309   0.530  11.411  1.2016 -1.1189 -0.3016
17420TIP3   OH273750   3.446   0.043   1.657 -0.0227  0.2688  0.4279
17420TIP3    H173751   3.388   0.103   1.610 -1.3556 -1.5197 -0.3271
17420TIP3    H273752   3.528   0.044   1.606 -0.9085 -0.4501 -1.0876
17421TIP3   OH273753   3.226   6.122  14.194 -0.3873  0.3099 -0.1043
17421TIP3    H173754   3.148   6.071  14.220  0.3411 -0.5237  0.5045
17421TIP3    H273755   3.259   6.078  14.116 -0.1409  0.2490  0.0329
17422TIP3   OH273756   0.098   4.086  13.776  0.1825 -0.1605 -0.2961
17422TIP3    H173757   0.155   4.103  13.851 -0.2916  1.4361 -0.2526
17422TIP3    H273758   0.147   4.120  13.701 -0.2469  0.2654 -0.3936
17423TIP3   OH273759   2.763   4.038   6.250 -0.0480 -0.3284  0.0498
17423TIP3    H173760   2.676   4.047   6.288  0.5368 -0.9914  1.6232
17423TIP3    H273761   2.813   4.110   6.288  0.5016 -0.8953  0.4114
17424TIP3   OH273762   1.547   0.137  17.115 -0.3182  0.0621 -0.2851
17424TIP3    H173763   1.555   0.064  17.053 -1.7218  0.0707 -0.5147
17424TIP3    H273764   1.559   0.215  17.063  0.8435  0.0130 -0.1029
17425TIP3   OH273765   6.031   6.084  15.144 -0.2294  0.0746  0.5421
17425TIP3    H173766   5.983   6.049  15.068 -1.3092 -1.4809  1.8788
17425TIP3    H273767   6.120   6.100  15.111 -0.6067 -0.7802 -0.9890
17426TIP3   OH273768   0.297   2.538  12.485 -0.1389 -0.5534  0.3824
17426TIP3    H173769   0.316   2.586  12.405  0.5537  0.8980  1.3802
17426TIP3    H273770   0.367   2.472  12.490  1.0762  0.7079  0.8229
17427TIP3   OH273771   4.772   5.441   6.441 -0.6484 -0.3836  0.1073
17427TIP3    H173772   4.677   5.443   6.452 -0.6520 -0.4517  0.0928
17427TIP3    H273773   4.790   5.357   6.399 -0.7747  0.5047 -1.8171
17428TIP3   OH273774   4.068   6.268  12.449  0.1479 -0.0331  0.3472
17428TIP3    H173775   3.975   6.289  12.441  0.2926  0.8124  0.7869
17428TIP3    H273776   4.078   6.236  12.538  0.5109  1.2163  0.7798
17429TIP3   OH273777   3.028   5.236   0.452 -0.4603 -0.1240  0.1147
17429TIP3    H173778   3.032   5.214   0.359  0.0922 -0.0343  0.1164
17429TIP3    H273779   3.104   5.292   0.467 -0.6990  0.0898  0.5633
17430TIP3   OH273780   6.479   6.396  15.471  0.5416  0.1875  0.3108
17430TIP3    H173781   6.391   6.369  15.499  0.9878 -0.7703  0.8595
17430TIP3    H273782   6.497   6.475  15.522  0.8387 -0.8278  1.8237
17431TIP3   OH273783   4.603   0.846  12.994  0.5189  0.2996 -0.1483
17431TIP3    H173784   4.617   0.897  13.073  0.5270  1.2535 -0.7501
17431TIP3    H273785   4.639   0.900  12.923  0.8142 -0.6782 -0.7673
17432TIP3   OH273786   4.535   4.832  14.491 -0.7551 -0.3219 -0.4862
17432TIP3    H173787   4.475   4.889  14.443  0.5639  1.0027 -0.6527
17432TIP3    H273788   4.490   4.814  14.574 -2.4802 -1.5436 -1.6257
17433TIP3   OH273789   6.159   2.396   2.761 -0.0002 -0.2113 -0.1614
17433TIP3    H173790   6.180   2.369   2.671  0.8204 -0.3671  0.0725
17433TIP3    H273791   6.166   2.491   2.760  1.9576 -0.3157  0.1968
17434TIP3   OH273792   3.287   4.535  13.850  0.1458  0.5987  0.5575
17434TIP3    H173793   3.275   4.533  13.945 -0.4224  1.1320  0.5039
17434TIP3    H273794   3.227   4.603  13.820  1.0183  1.1006 -0.0932
17435TIP3   OH273795   4.188   2.731  13.872 -0.2556 -0.5929  0.2480
17435TIP3    H173796   4.149   2.652  13.836 -0.2473 -0.6510  0.3669
17435TIP3    H273797   4.143   2.744  13.955 -2.7329  1.3957 -1.2338
17436TIP3   OH273798   1.059   6.786  14.401 -0.0792 -1.1073 -0.1354
17436TIP3    H173799   1.131   6.767  14.342  0.2022 -0.1905 -0.1048
17436TIP3    H273800   1.092   6.857  14.457  0.0274 -2.5728  1.7750
17437TIP3   OH273801   5.913   0.013   1.979  0.4017 -0.0288 -0.5550
17437TIP3    H173802   5.818   0.002   1.980  0.2883  0.7405  1.0541
17437TIP3    H273803   5.947  -0.074   1.960 -0.6207 -0.5108 -0.2544
17438TIP3   OH273804   2.644   1.038   3.218 -0.1736  0.8574 -0.0525
17438TIP3    H173805   2.710   1.022   3.151 -1.9982 -0.2708 -1.6794
17438TIP3    H273806   2.582   0.966   3.209 -1.3701  1.5924  1.7359
17439TIP3   OH273807   6.273   1.789  14.829  0.1184  0.5029 -0.8402
17439TIP3    H173808   6.234   1.731  14.894 -1.2122 -0.6761 -2.5792
17439TIP3    H273809   6.294   1.732  14.755  0.4104  1.9678 -1.9436
17440TIP3   OH273810   1.771   5.796   2.921  0.0856 -0.1629  0.0214
17440TIP3    H173811   1.787   5.801   2.827  0.1996 -1.0717 -0.0129
17440TIP3    H273812   1.770   5.702   2.941  1.7366  0.0201  1.2054
17441TIP3   OH273813   1.616   5.124  12.342  0.9382 -0.2591 -0.6018
17441TIP3    H173814   1.607   5.196  12.404  2.0473  0.2455 -0.9929
17441TIP3    H273815   1.703   5.088  12.359  0.4994 -1.3527 -0.5868
17442TIP3   OH273816   6.174   5.009  16.795  0.3461  0.1877  0.0027
17442TIP3    H173817   6.182   4.913  16.799 -0.7019 -0.0884 -2.4617
17442TIP3    H273818   6.219   5.033  16.714  1.9476  2.0322  1.3654
17443TIP3   OH273819   2.080   5.785  11.806  0.2009  0.8074 -0.0245
17443TIP3    H173820   2.061   5.802  11.714  0.4524  0.1726 -0.1960
17443TIP3    H273821   2.042   5.860  11.852 -2.3810 -0.1617 -0.3852
17444TIP3   OH273822   0.660   0.952   1.695  0.2575  0.1494 -0.3451
17444TIP3    H173823   0.609   1.020   1.650 -0.8896 -0.4399  0.0252
17444TIP3    H273824   0.732   0.933   1.636 -0.1874  0.7066 -1.0877
17445TIP3   OH273825   1.902   3.224  11.743  0.2454  0.0079 -0.4899
17445TIP3    H173826   1.915   3.305  11.693 -0.3523  0.0689 -0.5567
17445TIP3    H273827   1.986   3.179  11.737  0.7824  0.9118  0.0860
17446TIP3   OH273828   2.145   4.665  16.353  0.1859  0.6632  0.1838
17446TIP3    H173829   2.230   4.708  16.368  0.6822  0.2285 -1.2047
17446TIP3    H273830   2.083   4.737  16.346  0.7309  1.0877 -0.4305
17447TIP3   OH273831   2.325   5.645   2.682 -0.2159  0.8468  0.0013
17447TIP3    H173832   2.379   5.638   2.604  0.5220  3.6148  0.1571
17447TIP3    H273833   2.377   5.603   2.751  0.6473  1.2941 -0.3562
17448TIP3   OH273834   4.061   6.171  12.000 -0.0527  1.0893  0.3550
17448TIP3    H173835   4.111   6.162  12.081 -0.0742  0.4581  0.3021
17448TIP3    H273836   4.020   6.085  11.988  1.6093  0.4855 -1.4070
17449TIP3   OH273837   1.317   3.810   5.207 -0.7726 -0.1014 -0.0030
17449TIP3    H173838   1.280   3.725   5.185 -0.9434  0.1384 -0.6479
17449TIP3    H273839   1.343   3.847   5.123  1.3676 -0.4588  0.4359
17450TIP3   OH273840   0.239   1.276  13.962 -0.2745 -0.1222 -0.1666
17450TIP3    H173841   0.282   1.249  14.043 -0.1601 -3.1359 -1.1065
17450TIP3    H273842   0.147   1.286  13.986 -0.7240 -3.4338 -0.0039
17451TIP3   OH273843   0.915   1.738   1.661 -0.7409  0.1971  0.3703
17451TIP3    H173844   0.946   1.694   1.582  0.5171 -0.4168  1.1714
17451TIP3    H273845   0.994   1.771   1.703 -1.4942  1.6368  0.7474
17452TIP3   OH273846   0.412   6.243  11.508 -0.2085 -0.6088 -0.5402
17452TIP3    H173847   0.318   6.236  11.523 -0.1051 -1.1866 -0.1072
17452TIP3    H273848   0.423   6.229  11.414 -0.3969 -2.4678 -0.3228
17453TIP3   OH273849   3.053   1.202  17.029 -0.4279  0.2811  0.1069
17453TIP3    H173850   3.024   1.147  16.957 -1.2095  0.8929 -0.0569
17453TIP3    H273851   3.111   1.146  17.080 -0.0046 -0.2120 -0.8935
17454TIP3   OH273852   0.585   5.688  10.523  0.1906 -0.6036 -0.1178
17454TIP3    H173853   0.555   5.737  10.600 -1.4898  0.3768 -1.3179
17454TIP3    H273854   0.681   5.691  10.529  0.1646  1.9174  0.4842
17455TIP3   OH273855   5.730   2.826  10.065  0.0206 -0.4344 -0.4504
17455TIP3    H173856   5.802   2.802  10.123  1.5278  2.4084 -0.9766
17455TIP3    H273857   5.667   2.871  10.122 -1.0072 -2.1902 -0.1442
17456TIP3   OH273858   5.134   5.347  14.232 -0.1122  0.1214 -0.4001
17456TIP3    H173859   5.198   5.402  14.187 -0.0923  1.5564  1.2878
17456TIP3    H273860   5.135   5.264  14.183  2.3722  0.4053 -0.9463
17457TIP3   OH273861   4.645   0.072   1.133  0.0563  0.3296 -0.4064
17457TIP3    H173862   4.640   0.031   1.047 -1.2321  0.9901 -0.6742
17457TIP3    H273863   4.693   0.009   1.187 -2.0794 -1.7524 -0.7192
17458TIP3   OH273864   0.740   5.950  13.930 -0.7078 -0.1736 -0.0059
17458TIP3    H173865   0.719   5.943  13.837 -0.5015  0.5712 -0.1152
17458TIP3    H273866   0.788   6.033  13.937 -0.5471 -0.3279  0.7295
17459TIP3   OH273867   0.812   5.472   1.041 -0.7547  0.8222  0.0194
17459TIP3    H173868   0.753   5.445   0.971 -1.0258  0.8638  0.2274
17459TIP3    H273869   0.898   5.438   1.016 -1.4618 -2.3871  1.3954
17460TIP3   OH273870   0.207   5.824   3.040 -0.1343  0.1345  0.1280
17460TIP3    H173871   0.181   5.884   2.970 -0.7643 -1.7527 -1.3315
17460TIP3    H273872   0.296   5.798   3.017 -0.6594 -1.1845 -0.5352
17461TIP3   OH273873   1.056   4.676  14.185 -0.4283 -0.3104 -0.7515
17461TIP3    H173874   1.059   4.581  14.173 -2.0241 -0.5463  0.3169
17461TIP3    H273875   0.963   4.698  14.179 -0.4013  0.7807  1.6271
17462TIP3   OH273876   2.786   3.943  15.052 -0.2773  0.5472  0.4460
17462TIP3    H173877   2.822   3.854  15.058 -2.4721 -0.3704  1.0929
17462TIP3    H273878   2.829   3.991  15.123 -0.1067 -0.4096  1.0106
17463TIP3   OH273879   6.474   0.606   4.112  0.3566 -0.7085 -0.2372
17463TIP3    H173880   6.398   0.592   4.056 -0.0093  0.4329 -0.0471
17463TIP3    H273881   6.540   0.646   4.055  0.1441  0.0370  0.0314
17464TIP3   OH273882   0.154   4.107  16.255  0.3104  0.2755 -0.2302
17464TIP3    H173883   0.195   4.114  16.341  2.6396 -0.0483 -1.2431
17464TIP3    H273884   0.177   4.190  16.212  0.0058  0.0189 -0.8927
17465TIP3   OH273885   5.005   2.426  10.946  0.4374 -0.0932  0.1373
17465TIP3    H173886   5.065   2.431  11.020 -0.9837 -1.1668  1.4370
17465TIP3    H273887   5.018   2.508  10.898  1.9155  0.2955  1.1443
17466TIP3   OH273888   1.131   5.276   2.587 -0.0045  0.4106  0.1155
17466TIP3    H173889   1.156   5.362   2.552 -0.8921  2.2235  3.5021
17466TIP3    H273890   1.198   5.256   2.651 -0.8248 -0.4987  0.7063
17467TIP3   OH273891   0.954   2.664   2.814  0.1176 -0.0321  0.9369
17467TIP3    H173892   1.034   2.646   2.862  0.9627  1.8799  0.3356
17467TIP3    H273893   0.886   2.616   2.861  1.5986 -1.7682  1.4039
17468TIP3   OH273894   4.796   1.250   0.183  0.2021  0.5379  0.6541
17468TIP3    H173895   4.801   1.240   0.088  0.2915  1.9771  0.4903
17468TIP3    H273896   4.705   1.228   0.204 -0.2549  1.6904  0.0129
17469TIP3   OH273897   4.336   3.113  13.125  0.0092  0.2144 -0.3455
17469TIP3    H173898   4.296   3.199  13.113  0.4965  0.5840  0.5825
17469TIP3    H273899   4.270   3.062  13.172 -0.0769  0.2386 -0.4391
17470TIP3   OH273900   2.120   5.187  12.472 -0.2026  0.0430  0.4527
17470TIP3    H173901   2.202   5.224  12.442  0.6954  0.1548  2.8182
17470TIP3    H273902   2.146   5.120  12.536 -1.9433  0.6237  1.8412
17471TIP3   OH273903   3.193   0.575   5.256 -0.7853 -0.4303  0.2732
17471TIP3    H173904   3.275   0.622   5.267 -0.6113 -0.4831 -0.6823
17471TIP3    H273905   3.209   0.489   5.294 -0.4509 -0.3874  0.2286
17472TIP3   OH273906   4.920   5.333  11.694 -0.2834  0.2108 -0.7460
17472TIP3    H173907   4.841   5.308  11.647  1.3029 -3.7419 -1.6610
17472TIP3    H273908   4.935   5.262  11.756  2.0780  1.3102  0.0644
17473TIP3   OH273909   3.676   3.939   6.029  0.3133  0.5307  0.1054
17473TIP3    H173910   3.771   3.934   6.021  0.4209  0.7307  1.1016
17473TIP3    H273911   3.653   3.871   6.092 -0.1852  0.6345  0.0460
17474TIP3   OH273912   2.487   0.756  12.720 -0.4894 -0.0334  0.3723
17474TIP3    H173913   2.451   0.693  12.658  1.5615 -1.0505  0.1482
17474TIP3    H273914   2.418   0.767  12.785 -1.4976 -1.3032 -0.4269
17475TIP3   OH273915   1.321   6.547  11.674 -0.1757 -0.7630  0.3057
17475TIP3    H173916   1.407   6.510  11.695 -0.2328 -0.7949  0.4915
17475TIP3    H273917   1.325   6.636  11.709  0.0365 -0.5201 -0.3278
17476TIP3   OH273918   2.846   3.656  12.211 -0.4820 -0.2330  0.1795
17476TIP3    H173919   2.831   3.613  12.127 -0.1428 -1.6884  0.8438
17476TIP3    H273920   2.765   3.704  12.228 -0.3929  0.4671 -1.1704
17477TIP3   OH273921   2.781   4.525  10.969 -0.0699  0.3079  0.0070
17477TIP3    H173922   2.811   4.438  10.996  0.1962  0.2664 -0.4076
17477TIP3    H273923   2.770   4.573  11.051  0.9244  0.2547  0.1889
17478TIP3   OH273924   0.226   2.753   4.174 -0.0593 -0.2867  0.1316
17478TIP3    H173925   0.304   2.778   4.124 -0.2462  1.2940  0.5569
17478TIP3    H273926   0.167   2.714   4.110  1.1829 -1.8166 -0.1382
17479TIP3   OH273927   1.828   2.489  11.893  0.8391 -0.2335 -0.2499
17479TIP3    H173928   1.888   2.420  11.923 -0.0684 -0.4384  1.1923
17479TIP3    H273929   1.794   2.456  11.810  0.2640 -1.6606  0.5153
17480TIP3   OH273930   3.219   3.346  13.772  0.0691 -0.2616  0.1047
17480TIP3    H173931   3.152   3.292  13.814  0.5774  0.7003  2.2916
17480TIP3    H273932   3.216   3.430  13.819  1.4772  0.4907 -1.0512
17481TIP3   OH273933   3.394   6.747  15.374 -0.3008  0.2910 -0.4995
17481TIP3    H173934   3.447   6.778  15.300 -1.1101  2.5301 -0.2242
17481TIP3    H273935   3.434   6.787  15.451 -0.5067 -0.6097  0.0888
17482TIP3   OH273936   5.699   4.766  12.002 -1.0446  0.3742 -0.6390
17482TIP3    H173937   5.652   4.841  12.039 -0.5506  0.6761 -0.6162
17482TIP3    H273938   5.653   4.746  11.921  0.8831  2.9612 -2.5427
17483TIP3   OH273939   0.801   1.579  16.491 -0.5607 -0.1806  0.1352
17483TIP3    H173940   0.854   1.511  16.532 -0.8053 -1.6126 -1.7985
17483TIP3    H273941   0.837   1.588  16.403 -1.5735  1.0417 -0.1840
17484TIP3   OH273942   5.648   1.609  15.550  0.3918 -0.2576 -0.2090
17484TIP3    H173943   5.597   1.556  15.612 -1.5656  1.3743 -0.3268
17484TIP3    H273944   5.696   1.670  15.606 -0.4573  0.4345 -0.2146
17485TIP3   OH273945   3.101   4.274  15.049 -0.2599  0.6617 -0.4187
17485TIP3    H173946   3.168   4.301  14.986  0.7040 -0.1002  0.2596
17485TIP3    H273947   3.095   4.346  15.111 -0.1565  0.7793 -0.5462
17486TIP3   OH273948   0.923   0.149  13.446  0.0877 -0.4247  0.2358
17486TIP3    H173949   0.937   0.176  13.356  0.6426 -2.1231 -0.2281
17486TIP3    H273950   0.857   0.079  13.441  0.7728 -1.1642  1.0113
17487TIP3   OH273951   5.931   6.688  14.154  0.1682  0.4381 -0.1972
17487TIP3    H173952   5.898   6.722  14.237 -1.7506 -0.6502 -0.4500
17487TIP3    H273953   5.957   6.598  14.173  0.5036  0.4462 -0.5989
17488TIP3   OH273954   2.738   1.336   4.067  0.3687  0.1864 -0.3252
17488TIP3    H173955   2.788   1.280   4.007 -0.1216 -2.4792  1.5314
17488TIP3    H273956   2.804   1.383   4.117  0.9147 -0.4011 -0.4773
17489TIP3   OH273957   1.180   6.330   3.984  0.2163 -0.3706 -0.3344
17489TIP3    H173958   1.104   6.338   4.042  1.7546 -0.7387  1.8424
17489TIP3    H273959   1.147   6.356   3.898 -2.0324  0.7789  0.7848
17490TIP3   OH273960   1.771   2.200  14.664  0.4753  0.2613  0.0801
17490TIP3    H173961   1.796   2.165  14.578 -0.2186  0.8024 -0.3484
17490TIP3    H273962   1.851   2.240  14.697  0.7868 -0.0798 -0.2445
17491TIP3   OH273963   2.981   6.070   4.269  0.2880  0.6505 -0.5796
17491TIP3    H173964   2.976   6.024   4.353  0.9838  0.7174 -0.4899
17491TIP3    H273965   2.943   6.156   4.286  0.5350  0.7059 -0.2973
17492TIP3   OH273966   0.750   0.666   1.354  0.1441  0.0562  0.4880
17492TIP3    H173967   0.825   0.719   1.380  0.9485 -1.4504  1.4217
17492TIP3    H273968   0.679   0.728   1.344  1.0314  1.3082  1.5948
17493TIP3   OH273969   4.529   1.219   0.279  0.0068  0.4495 -0.5989
17493TIP3    H173970   4.484   1.302   0.295 -0.5726  0.1341 -0.5760
17493TIP3    H273971   4.504   1.164   0.353  1.4133  0.6657  0.0777
17494TIP3   OH273972   3.743   1.994  15.596  0.4989 -0.0653  0.4660
17494TIP3    H173973   3.745   1.912  15.645  0.5045 -1.7054 -2.0856
17494TIP3    H273974   3.749   2.062  15.663  0.9760 -2.1241  2.6599
17495TIP3   OH273975   5.155   5.498   1.366  0.4845 -0.1506 -0.3751
17495TIP3    H173976   5.101   5.520   1.290  0.9232  1.2405 -0.3132
17495TIP3    H273977   5.232   5.554   1.358  0.2427  0.5201  1.4170
17496TIP3   OH273978   6.780   1.219  16.604  0.1414  0.1697 -0.6799
17496TIP3    H173979   6.808   1.133  16.574 -0.2833 -0.7912  1.4837
17496TIP3    H273980   6.862   1.267  16.619  0.3719  0.7288 -3.2416
17497TIP3   OH273981   1.433   4.705  16.184  0.4210 -0.4742 -0.4130
17497TIP3    H173982   1.398   4.772  16.244  0.5212 -0.1136 -0.7583
17497TIP3    H273983   1.366   4.636  16.185 -0.0810  0.0002 -0.7018
17498TIP3   OH273984   3.804   0.575  13.037  0.6495 -0.0037 -0.1131
17498TIP3    H173985   3.832   0.518  12.966  1.4133  0.7874 -0.4605
17498TIP3    H273986   3.810   0.663  13.001  1.1155  0.4126  0.9489
17499TIP3   OH273987   3.130   6.551  14.344  0.2599  0.1490  0.2138
17499TIP3    H173988   3.225   6.554  14.330  0.5258 -0.6621  1.5682
17499TIP3    H273989   3.110   6.634  14.387  0.3773  0.2613  0.0543
17500TIP3   OH273990   6.417   2.664   4.070  0.3454  0.0860  0.3123
17500TIP3    H173991   6.501   2.637   4.107  0.4699  0.7295  0.4952
17500TIP3    H273992   6.352   2.610   4.115  0.6950 -0.7633 -0.1750
17501TIP3   OH273993   1.446   6.711   2.032  0.1414 -0.0201 -0.4441
17501TIP3    H173994   1.483   6.765   2.102  0.5132 -1.7575  0.7715
17501TIP3    H273995   1.481   6.749   1.952  0.2348  1.6342  0.3384
17502TIP3   OH273996   2.144   3.798   1.650 -0.1104  0.6343 -0.1125
17502TIP3    H173997   2.205   3.725   1.639 -1.1106 -0.4240  1.0102
17502TIP3    H273998   2.067   3.774   1.599  0.2264  1.7880 -1.2189
17503TIP3   OH273999   6.220   5.043   4.186  0.2508 -0.2707  1.1240
17503TIP3    H174000   6.209   5.066   4.278 -0.5871 -0.4925  1.0867
17503TIP3    H274001   6.281   5.109   4.152  0.8859 -0.4276  1.9232
17504TIP3   OH274002   5.148   0.823  14.905  0.1902  0.3203 -0.4183
17504TIP3    H174003   5.056   0.841  14.888  0.1098  0.1195 -0.1962
17504TIP3    H274004   5.188   0.816  14.818 -0.1751 -0.4750 -0.5322
17505TIP3   OH274005   4.527   5.616   1.123  0.3651  0.3099 -0.4238
17505TIP3    H174006   4.513   5.534   1.076  2.7603 -0.7447  0.5775
17505TIP3    H274007   4.581   5.669   1.063 -2.5255  1.9900 -1.8016
17506TIP3   OH274008   6.835   1.117   2.745  0.2949  0.0099  1.1984
17506TIP3    H174009   6.899   1.187   2.753  1.1530 -0.8782  2.4564
17506TIP3    H274010   6.882   1.047   2.700 -1.3898  1.1531 -2.7438
17507TIP3   OH274011   3.951   4.372  12.340  0.0022 -0.0493 -0.5161
17507TIP3    H174012   3.955   4.325  12.256  0.2826 -0.1820 -0.4300
17507TIP3    H274013   3.859   4.399  12.348  0.3303  1.5979 -1.7473
17508TIP3   OH274014   0.980   4.907  15.870 -0.1365 -0.1274  0.1750
17508TIP3    H174015   0.907   4.969  15.876 -0.4092 -0.4834  0.6060
17508TIP3    H274016   1.056   4.957  15.898 -0.6529 -0.4749  2.4526
17509TIP3   OH274017   1.653   1.647   6.330 -0.4963  0.3568 -0.0821
17509TIP3    H174018   1.659   1.695   6.413 -0.8713  0.4501 -0.1099
17509TIP3    H274019   1.663   1.555   6.355  0.4132  0.4517 -0.0477
17510TIP3   OH274020   2.726   4.328   0.046  0.2001  0.2240  0.2059
17510TIP3    H174021   2.808   4.375   0.062  1.1877 -1.2047 -0.4283
17510TIP3    H274022   2.717   4.330  -0.049 -0.2363 -0.0799  0.2429
17511TIP3   OH274023   3.058   2.226  11.466  0.1380 -0.7738  0.9741
17511TIP3    H174024   2.986   2.163  11.476  0.3436 -1.3273 -0.7966
17511TIP3    H274025   3.026   2.288  11.401  1.9473 -2.1194 -1.3260
17512TIP3   OH274026   5.835   5.519   5.348  0.0902  0.0713 -0.3070
17512TIP3    H174027   5.767   5.587   5.344 -1.2211 -1.2108 -0.4259
17512TIP3    H274028   5.888   5.534   5.269 -0.4248  0.6981 -0.5451
17513TIP3   OH274029   3.339   1.562  14.493 -0.0428 -0.1312 -0.2438
17513TIP3    H174030   3.262   1.510  14.515 -0.8712  1.5248  1.0142
17513TIP3    H274031   3.316   1.607  14.412 -0.4790  0.4850  0.2175
17514TIP3   OH274032   1.553   4.833   2.169  0.7852  0.5656  0.2811
17514TIP3    H174033   1.539   4.768   2.101  0.5565  0.8642  0.0393
17514TIP3    H274034   1.610   4.790   2.233  0.3350  0.0062  0.3080
17515TIP3   OH274035   1.263   3.534   2.522  0.8837 -0.2399 -0.1296
17515TIP3    H174036   1.214   3.483   2.587 -0.8076  0.6411 -0.6323
17515TIP3    H274037   1.230   3.504   2.437  0.1145  1.3446 -0.4449
17516TIP3   OH274038   2.865   4.519  11.982 -0.0882  0.1181  0.0886
17516TIP3    H174039   2.901   4.565  12.058 -0.4076 -1.2550  1.1068
17516TIP3    H274040   2.824   4.588  11.929 -0.9400  0.9798  1.7891
17517TIP3   OH274041   0.698   1.002   3.890  0.5620 -0.6084  0.1695
17517TIP3    H174042   0.661   0.986   3.977  2.1321 -1.1018  0.7946
17517TIP3    H274043   0.776   0.946   3.887  0.6941 -0.3737 -1.4530
17518TIP3   OH274044   4.165   3.127   0.403  0.2585  0.1984 -0.0629
17518TIP3    H174045   4.080   3.099   0.367 -0.3218  0.5415  0.9897
17518TIP3    H274046   4.161   3.102   0.495  0.4163  2.1497  0.5196
17519TIP3   OH274047   4.100   1.908  17.010 -0.3972 -0.2032  0.0523
17519TIP3    H174048   4.085   1.979  17.073 -1.0424 -0.6899  0.4622
17519TIP3    H274049   4.059   1.831  17.051 -0.4818 -0.6119 -0.7873
17520TIP3   OH274050   4.721   0.091   1.719  0.3620  0.3479  0.2298
17520TIP3    H174051   4.792   0.152   1.696 -0.4451  1.0214 -0.5291
17520TIP3    H274052   4.653   0.109   1.655 -1.0630  0.6607  1.7835
17521TIP3   OH274053   6.617   2.107   1.489 -0.0663  0.5225 -0.2750
17521TIP3    H174054   6.622   2.061   1.573  0.6347 -0.5703 -0.8829
17521TIP3    H274055   6.562   2.183   1.506 -0.1637  0.1681  1.1038
17522TIP3   OH274056   1.520   4.651  16.443 -0.0031 -0.1915 -0.1025
17522TIP3    H174057   1.521   4.649  16.348 -2.8514  0.6849 -0.2608
17522TIP3    H274058   1.485   4.738  16.465 -1.5446 -1.1673  1.6150
17523TIP3   OH274059   5.860   0.954  12.849  0.0366 -0.3002 -0.5881
17523TIP3    H174060   5.877   1.039  12.807 -1.3835 -0.2263 -1.0642
17523TIP3    H274061   5.776   0.926  12.813  0.0465 -1.4858  0.2609
17524TIP3   OH274062   1.351   0.567   0.835 -0.1053 -0.0619 -0.8600
17524TIP3    H174063   1.278   0.505   0.831  1.0464 -1.4329 -1.5462
17524TIP3    H274064   1.332   0.622   0.911 -1.6828 -0.5850 -0.8456
17525TIP3   OH274065   0.251   1.329  15.282  0.1983 -0.5028  0.0760
17525TIP3    H174066   0.279   1.296  15.196  1.9480  0.6011  0.1809
17525TIP3    H274067   0.207   1.412  15.262  1.0507  0.0074  0.2500
17526TIP3   OH274068   3.527   3.317   0.034 -0.4382 -0.1677  0.1735
17526TIP3    H174069   3.483   3.248  -0.014  2.2270 -1.7604 -0.1624
17526TIP3    H274070   3.620   3.293   0.033  0.4275  2.6168  1.3874
17527TIP3   OH274071   1.488   2.091   3.803 -0.3890 -0.2188  0.1066
17527TIP3    H174072   1.445   2.014   3.840 -0.4704 -0.2189  0.0126
17527TIP3    H274073   1.553   2.117   3.869  1.1756 -1.6728 -0.8081
17528TIP3   OH274074   5.007   0.383  12.321 -0.0775 -0.2299  0.2476
17528TIP3    H174075   4.947   0.309  12.332 -1.4246  0.0263 -3.8036
17528TIP3    H274076   4.955   0.460  12.343  0.3691 -0.2303  1.4128
17529TIP3   OH274077   3.462   6.098   1.080  0.6359 -0.5212 -0.6285
17529TIP3    H174078   3.477   6.180   1.033  0.2720 -0.0139  0.1181
17529TIP3    H274079   3.529   6.097   1.148  0.0200 -0.3451 -0.0040
17530TIP3   OH274080   0.572   2.004  15.314 -0.2143  0.3065  0.0803
17530TIP3    H174081   0.593   1.956  15.395 -0.4828  0.7991  0.4484
17530TIP3    H274082   0.658   2.031  15.281  0.0231 -1.1818 -0.6290
17531TIP3   OH274083   4.466   6.554  13.742  0.3416 -0.0961 -0.9849
17531TIP3    H174084   4.501   6.590  13.823 -0.0127 -0.0851 -0.8329
17531TIP3    H274085   4.480   6.623  13.677  0.3586  0.0115 -0.8666
17532TIP3   OH274086   5.335   2.650  13.142  0.5018  0.6130 -0.8862
17532TIP3    H174087   5.299   2.732  13.176 -0.2248  0.0194 -0.1937
17532TIP3    H274088   5.259   2.603  13.107  0.4797 -0.8219  0.9478
17533TIP3   OH274089   6.826   1.898  12.450 -0.0192  0.4193 -0.3310
17533TIP3    H174090   6.831   1.882  12.544 -0.5269  1.8707 -0.0232
17533TIP3    H274091   6.757   1.964  12.441  0.5412  0.8596 -1.6437
17534TIP3   OH274092   4.881   0.608  11.273 -0.3776 -0.3194 -0.3418
17534TIP3    H174093   4.872   0.554  11.195 -0.9239 -0.7290 -0.0041
17534TIP3    H274094   4.821   0.682  11.258  1.3059  0.9125 -1.3728
17535TIP3   OH274095   5.929   3.203  12.124  0.0651  0.8088 -0.2678
17535TIP3    H174096   5.924   3.294  12.153 -1.4864  0.7716 -0.3126
17535TIP3    H274097   5.960   3.209  12.034  0.5140  1.2522 -0.0884
17536TIP3   OH274098   6.292   0.802   2.113  0.3740 -0.2133 -0.3265
17536TIP3    H174099   6.374   0.796   2.065  0.1221  0.6686 -0.8786
17536TIP3    H274100   6.225   0.816   2.046  0.0120  0.9478  0.2526
17537TIP3   OH274101   2.548   0.914   0.658  0.7409 -0.2884  0.2230
17537TIP3    H174102   2.492   0.899   0.734  0.8436 -0.3928  0.2780
17537TIP3    H274103   2.596   0.994   0.679  0.6712 -0.2429  0.2100
17538TIP3   OH274104   0.004   3.629  16.390 -0.1612  0.1969 -0.1148
17538TIP3    H174105   0.021   3.539  16.419 -1.7383 -0.4844 -1.1288
17538TIP3    H274106  -0.017   3.620  16.297 -2.5496  1.2699  0.2293
17539TIP3   OH274107   0.216   3.656  13.244  0.5225  0.0453  0.6313
17539TIP3    H174108   0.201   3.572  13.202  1.3235 -0.4777  1.3808
17539TIP3    H274109   0.163   3.653  13.324 -0.9385  1.0096 -0.2367
17540TIP3   OH274110   4.208   4.283   2.961  0.1098  0.3663  0.2723
17540TIP3    H174111   4.247   4.369   2.973  0.8268  0.2299 -0.9376
17540TIP3    H274112   4.114   4.299   2.964  0.2123  1.3746 -0.9832
17541TIP3   OH274113   4.648   2.514   5.566  0.3580 -0.2001  0.0032
17541TIP3    H174114   4.570   2.497   5.513  1.0592  1.2251 -1.5675
17541TIP3    H274115   4.715   2.538   5.502  1.0962  2.1318  1.5377
17542TIP3   OH274116   5.212   4.609  10.500  0.3222 -0.6008 -0.3361
17542TIP3    H174117   5.246   4.640  10.583 -2.2223  2.0033 -0.1137
17542TIP3    H274118   5.274   4.641  10.434 -0.0996  1.6254  0.2554
17543TIP3   OH274119   4.579   4.493  13.009 -0.1322  0.7303  0.4969
17543TIP3    H174120   4.631   4.423  12.970 -1.3126 -1.6326  2.8889
17543TIP3    H274121   4.515   4.516  12.942 -0.3067 -1.1635 -0.0248
17544TIP3   OH274122   5.260   3.210  14.490 -0.0092 -0.7145  0.4016
17544TIP3    H174123   5.200   3.274  14.451 -0.1682 -0.3382  1.2291
17544TIP3    H274124   5.347   3.240  14.464 -0.0566  0.0908  1.1001
17545TIP3   OH274125   6.412   2.166   0.762 -0.1201 -0.1306 -0.0731
17545TIP3    H174126   6.348   2.143   0.694  0.7974  1.6733 -1.6570
17545TIP3    H274127   6.359   2.198   0.835 -1.0839  0.0105 -0.8091
17546TIP3   OH274128   4.933   0.557   4.131  0.4823  0.3879  0.1486
17546TIP3    H174129   5.023   0.570   4.100  0.1450  0.4095 -0.8619
17546TIP3    H274130   4.909   0.471   4.096  0.4431 -0.0698  1.2625
17547TIP3   OH274131   4.288   0.186  12.435  0.7216  0.0642  0.2302
17547TIP3    H174132   4.256   0.098  12.413 -1.6704  1.3103 -1.7259
17547TIP3    H274133   4.213   0.230  12.474  1.6370  1.5330  0.4201
17548TIP3   OH274134   0.414   0.623  16.551 -0.1470  0.0856  0.0427
17548TIP3    H174135   0.472   0.583  16.486 -1.4772 -2.1211  0.1226
17548TIP3    H274136   0.363   0.687  16.502  0.8551  0.5084 -0.4690
17549TIP3   OH274137   1.456   6.179   3.358  0.2274 -0.2047 -0.0372
17549TIP3    H174138   1.498   6.209   3.277  0.4318  0.3140  0.2530
17549TIP3    H274139   1.418   6.095   3.335 -1.8007  0.9851 -1.3877
17550TIP3   OH274140   5.439   4.201   4.309  0.0519  0.0763 -0.3586
17550TIP3    H174141   5.525   4.179   4.271  0.3355  2.1764 -1.0196
17550TIP3    H274142   5.390   4.239   4.236 -0.9066  0.3000  0.3947
17551TIP3   OH274143   4.225   2.369  11.469  0.2815  0.4605  0.0483
17551TIP3    H174144   4.135   2.395  11.448  0.0745  0.1676  0.5696
17551TIP3    H274145   4.255   2.436  11.531  0.7248  1.0455 -0.7696
17552TIP3   OH274146   4.329   6.024   1.320 -0.1701  0.0886 -0.1302
17552TIP3    H174147   4.328   5.964   1.246 -1.9639  0.4117 -0.4125
17552TIP3    H274148   4.327   5.968   1.397 -1.2652 -0.2524 -0.3874
17553TIP3   OH274149   3.228   0.718  15.348 -0.0072 -0.1968 -0.2440
17553TIP3    H174150   3.322   0.701  15.341  0.1689  0.3920  0.5205
17553TIP3    H274151   3.208   0.706  15.441 -0.7752 -0.7042 -0.4619
17554TIP3   OH274152   5.126   5.213  11.946 -0.0951  0.2430 -0.2697
17554TIP3    H174153   5.069   5.217  12.023  1.0557  1.0217  0.5577
17554TIP3    H274154   5.138   5.304  11.921  0.4977  0.0580 -0.6641
17555TIP3   OH274155   3.352   6.745   1.089  0.0912  0.2455  0.5879
17555TIP3    H174156   3.397   6.778   1.011 -0.0521  2.6827  1.4606
17555TIP3    H274157   3.401   6.666   1.113  0.6456 -0.0885 -1.4456
17556TIP3   OH274158   1.340   3.735  17.054  0.1377 -0.0945 -0.1085
17556TIP3    H174159   1.274   3.780  17.107  0.7931 -0.1657  0.7960
17556TIP3    H274160   1.293   3.707  16.975 -0.6931  0.6166  0.1233
17557TIP3   OH274161   4.467   3.997  13.556  0.0717  0.1366  0.0165
17557TIP3    H174162   4.535   4.064  13.570 -0.4247  0.9569 -1.3341
17557TIP3    H274163   4.516   3.919  13.530  0.6254  0.1024  1.1020
17558TIP3   OH274164   5.720   2.857  11.197  0.3251  0.0746 -0.1766
17558TIP3    H174165   5.698   2.882  11.107 -0.0433  0.6256  0.0550
17558TIP3    H274166   5.802   2.810  11.190  1.9550  2.7380 -0.5169
17559TIP3   OH274167   5.441   6.439  13.392  0.3848  0.0884  0.3207
17559TIP3    H174168   5.512   6.437  13.456  1.2774 -1.3988 -0.6435
17559TIP3    H274169   5.395   6.356  13.404 -0.0354  0.2192 -0.3168
17560TIP3   OH274170   0.607   4.415   1.727  0.2619  0.6575 -0.9409
17560TIP3    H174171   0.600   4.502   1.688 -0.9644  1.0959  0.1482
17560TIP3    H274172   0.680   4.422   1.789  1.2883  0.3712 -2.0752
17561TIP3   OH274173   1.007   1.204  15.070 -0.1247  0.3609 -0.2901
17561TIP3    H174174   1.013   1.240  14.981 -0.0711  1.2370  0.0569
17561TIP3    H274175   1.032   1.112  15.060  2.0465  0.9410 -0.8535
17562TIP3   OH274176   2.040   5.614  15.478  0.5433 -0.7748 -0.1892
17562TIP3    H174177   2.009   5.534  15.436  1.2792 -1.8636  1.2531
17562TIP3    H274178   2.053   5.590  15.570 -0.3554  1.3284  0.5625
17563TIP3   OH274179   1.463   2.415  15.961 -0.4384 -0.0059  0.4867
17563TIP3    H174180   1.543   2.390  16.007 -1.0085  0.7204  1.9434
17563TIP3    H274181   1.435   2.336  15.915  0.6848 -0.4831  0.6063
17564TIP3   OH274182   5.312   5.839   5.678  0.0143 -0.8699  1.3705
17564TIP3    H174183   5.338   5.895   5.751  0.0194  0.9288  0.0644
17564TIP3    H274184   5.291   5.755   5.718 -0.1933  0.1203  3.4612
17565TIP3   OH274185   2.048   5.825  15.757 -0.4889 -0.2346 -0.0339
17565TIP3    H174186   2.035   5.739  15.798  0.4788 -1.0563 -1.3758
17565TIP3    H274187   2.142   5.828  15.737 -0.4692  1.2275  0.1524
17566TIP3   OH274188   4.188   0.653  14.029 -0.1111 -0.0458 -0.0928
17566TIP3    H174189   4.226   0.718  14.088  2.0684 -1.1878 -0.1391
17566TIP3    H274190   4.236   0.665  13.946 -2.2308  0.6813 -1.2966
17567TIP3   OH274191   0.497   1.219  13.115 -0.8073 -0.1470 -0.7546
17567TIP3    H174192   0.573   1.254  13.162 -1.4540  1.2073 -0.6633
17567TIP3    H274193   0.455   1.160  13.177  0.1119 -0.8562 -0.7809
17568TIP3   OH274194   4.649   4.800   3.819  0.0033 -0.0751 -0.3796
17568TIP3    H174195   4.698   4.822   3.740  0.6089 -2.2210 -0.6444
17568TIP3    H274196   4.578   4.864   3.821 -0.5770 -0.5034 -3.1681
17569TIP3   OH274197   2.297   5.292   1.824 -0.0391  0.5233 -0.2791
17569TIP3    H174198   2.388   5.320   1.829  0.6474 -1.6555  0.7268
17569TIP3    H274199   2.288   5.256   1.736  0.1006  0.6484 -0.3461
17570TIP3   OH274200   4.508   3.878   5.215  0.1223 -0.1999 -0.0021
17570TIP3    H174201   4.522   3.888   5.121  0.0799 -1.0958 -0.1085
17570TIP3    H274202   4.417   3.850   5.224  0.1942 -0.3503  0.2871
17571TIP3   OH274203   3.009   4.339   2.000 -0.3274 -0.1679  0.4763
17571TIP3    H174204   3.079   4.402   1.984 -1.0619  0.2773 -1.2166
17571TIP3    H274205   3.051   4.254   1.988  0.2849  0.0435  1.0869
17572TIP3   OH274206   6.663   2.148   3.828 -0.7657  0.3884  0.7800
17572TIP3    H174207   6.606   2.082   3.867  0.5637 -1.5571 -0.3863
17572TIP3    H274208   6.630   2.159   3.739  0.4342 -0.5676  0.1747
17573TIP3   OH274209   6.855   0.172  15.673 -0.1255  0.3349  0.2534
17573TIP3    H174210   6.836   0.175  15.579 -1.1142  0.4605  0.4459
17573TIP3    H274211   6.803   0.100  15.706 -0.0489  0.5117  0.7672
17574TIP3   OH274212   0.199   2.732  11.079  0.2901  0.0693  0.0292
17574TIP3    H174213   0.232   2.651  11.040  2.7991  1.1831 -0.4153
17574TIP3    H274214   0.200   2.795  11.007 -0.7258  0.7456  0.5825
17575TIP3   OH274215   5.826   0.260  12.189 -0.3037  0.0824  0.0196
17575TIP3    H174216   5.860   0.185  12.238 -0.8774 -0.2943 -0.1461
17575TIP3    H274217   5.828   0.333  12.251  0.2003 -0.0826  0.2001
17576TIP3   OH274218   6.027   2.483   4.624  0.1945 -0.0801  0.3746
17576TIP3    H174219   5.957   2.536   4.662 -0.2951 -0.3848 -0.0975
17576TIP3    H274220   6.091   2.475   4.695  0.7622  1.9799  0.1598
17577TIP3   OH274221   6.778   4.932  16.889  1.0047  0.0814  0.1272
17577TIP3    H174222   6.847   4.894  16.835 -0.5375 -2.9978  0.0810
17577TIP3    H274223   6.813   4.927  16.978  1.1879 -0.7185  0.0226
17578TIP3   OH274224   5.291   3.508   0.798  0.2141 -0.1160  0.7563
17578TIP3    H174225   5.325   3.594   0.823 -0.3531 -0.0456  1.2981
17578TIP3    H274226   5.370   3.454   0.786  0.5446 -0.1145  2.5836
17579TIP3   OH274227   1.040   3.913  12.330 -0.1666 -0.2295  0.4637
17579TIP3    H174228   1.021   3.921  12.237  0.5541 -0.8389  0.2521
17579TIP3    H274229   1.006   3.993  12.369  0.5794  0.5768 -0.4966
17580TIP3   OH274230   6.574   3.472   4.939 -0.5056  0.4158  0.2649
17580TIP3    H174231   6.577   3.510   4.851  1.1037 -2.6893 -1.1984
17580TIP3    H274232   6.659   3.493   4.977 -0.2496 -0.2384  0.0795
17581TIP3   OH274233   3.813   2.923  16.078  0.1705  0.0203 -0.3773
17581TIP3    H174234   3.757   3.000  16.087  1.1130  0.8067 -1.0017
17581TIP3    H274235   3.902   2.956  16.093  0.6042 -0.9250 -0.7755
17582TIP3   OH274236   4.537   5.029   3.702  0.2461 -0.3992 -0.9252
17582TIP3    H174237   4.527   5.117   3.737 -0.4177 -1.0850  0.7217
17582TIP3    H274238   4.547   5.041   3.607 -0.3505  1.3949 -0.7896
17583TIP3   OH274239   4.501   1.169   2.620  0.0424 -0.6929 -0.0262
17583TIP3    H174240   4.523   1.255   2.584 -0.9060 -0.9867 -1.3862
17583TIP3    H274241   4.580   1.116   2.605  0.6369 -0.0894  0.8370
17584TIP3   OH274242   3.819   1.764  13.437 -0.1458  0.3386 -0.4512
17584TIP3    H174243   3.752   1.700  13.462 -1.0428  1.4556  0.0714
17584TIP3    H274244   3.864   1.784  13.519 -0.8270  1.4312 -0.3177
17585TIP3   OH274245   1.717   2.783   5.192  0.4204  0.0941 -0.0596
17585TIP3    H174246   1.629   2.820   5.196  0.9979  1.7103 -1.0139
17585TIP3    H274247   1.719   2.734   5.111  0.2952 -0.2288  0.1331
17586TIP3   OH274248   6.487   2.450   5.288 -0.2235  0.1484 -0.5614
17586TIP3    H174249   6.397   2.481   5.277 -0.3918 -0.2300 -0.2607
17586TIP3    H274250   6.481   2.355   5.284  0.5128  0.1493 -3.0604
17587TIP3   OH274251   2.990   4.189  13.398 -0.0931 -0.0438  0.1667
17587TIP3    H174252   2.968   4.114  13.342  1.4833 -1.4275  1.3174
17587TIP3    H274253   2.939   4.174  13.478  1.2233 -0.6433  0.9199
17588TIP3   OH274254   2.353   2.356  11.392  0.0106 -0.3235  0.6486
17588TIP3    H174255   2.335   2.369  11.486 -0.2217  2.6315  0.2959
17588TIP3    H274256   2.268   2.370  11.350  0.6055  1.0600 -0.1464
17589TIP3   OH274257   4.808   3.429  15.568 -0.9989  0.0933  0.2323
17589TIP3    H174258   4.852   3.462  15.490 -2.3818  0.7620 -0.2903
17589TIP3    H274259   4.857   3.350  15.591  0.5837  0.8994 -0.1983
17590TIP3   OH274260   2.135   1.274   2.186 -0.6943  0.3323  0.0699
17590TIP3    H174261   2.145   1.359   2.228  0.1352  0.3556 -0.1522
17590TIP3    H274262   2.174   1.212   2.248 -0.8996  0.1695  0.0367
17591TIP3   OH274263   4.907   4.400   5.875  0.8698  0.5606 -0.1979
17591TIP3    H174264   4.883   4.369   5.962  1.7293  2.4447  0.7733
17591TIP3    H274265   4.969   4.471   5.892  2.7076 -0.4037 -2.4108
17592TIP3   OH274266   4.069   2.956  10.378 -0.5733 -0.3973  0.0988
17592TIP3    H174267   3.991   2.955  10.322 -0.4107  0.3699 -0.1549
17592TIP3    H274268   4.114   2.874  10.358 -0.7310 -0.3232 -0.6008
17593TIP3   OH274269   1.963   4.903  14.049 -0.4848 -0.1173  0.4234
17593TIP3    H174270   2.012   4.825  14.072 -0.1129  0.0750  0.2845
17593TIP3    H274271   1.998   4.972  14.106  0.6158  0.4222 -0.8692
17594TIP3   OH274272   1.132   1.554  14.583  0.1852  0.5650 -0.7522
17594TIP3    H174273   1.083   1.493  14.528  0.9426  0.6862 -1.5901
17594TIP3    H274274   1.076   1.631  14.590 -1.2411 -0.5516  1.1562
17595TIP3   OH274275   2.574   4.405   3.455  0.0638 -0.1235  0.3136
17595TIP3    H174276   2.521   4.447   3.388 -0.7780 -1.7513 -0.0907
17595TIP3    H274277   2.662   4.402   3.417 -0.1601  0.0163 -0.2277
17596TIP3   OH274278   1.894   1.611  13.973  0.0229 -0.1158  0.0385
17596TIP3    H174279   1.900   1.682  14.036  2.1890 -1.8313  1.9423
17596TIP3    H274280   1.864   1.536  14.024 -0.9397 -0.9429 -1.6372
17597TIP3   OH274281   5.850   6.257  11.740  0.0131 -0.0010  0.4570
17597TIP3    H174282   5.854   6.351  11.756 -0.7654 -0.2722  2.4742
17597TIP3    H274283   5.932   6.223  11.776 -0.1950 -0.2342  0.7073
17598TIP3   OH274284   6.481   4.040  11.970 -0.5449  0.1113 -0.4634
17598TIP3    H174285   6.550   4.015  11.909  0.0978 -2.8825  1.3157
17598TIP3    H274286   6.400   4.010  11.929 -0.2190 -1.0421 -0.2849
17599TIP3   OH274287   5.924   2.228   1.656 -0.1284 -0.0439 -0.1026
17599TIP3    H174288   5.927   2.269   1.742  0.1865 -0.8067  0.2551
17599TIP3    H274289   5.934   2.301   1.594 -2.1568  0.7579  0.4324
17600TIP3   OH274290   4.897   6.671  16.194 -0.4696 -0.6609  0.1630
17600TIP3    H174291   4.902   6.607  16.123  0.3774  0.1655 -0.5513
17600TIP3    H274292   4.803   6.679  16.213 -0.6033 -1.8909  0.0760
17601TIP3   OH274293   6.119   2.885  17.111  0.0760 -0.1145 -0.3081
17601TIP3    H174294   6.057   2.958  17.116  1.3639  1.0699 -0.9707
17601TIP3    H274295   6.102   2.834  17.190 -1.9004  0.0184 -0.5954
17602TIP3   OH274296   2.846   6.570   4.642 -0.1802 -0.0382  0.1320
17602TIP3    H174297   2.772   6.514   4.665 -0.8823  0.1087 -1.6199
17602TIP3    H274298   2.916   6.509   4.618 -0.8674 -0.2309 -1.5376
17603TIP3   OH274299   4.536   1.884   4.794  0.0892  0.5104 -0.1271
17603TIP3    H174300   4.569   1.973   4.810  0.9055  0.1218  0.4704
17603TIP3    H274301   4.509   1.853   4.881  1.0022 -0.2692 -0.1057
17604TIP3   OH274302   2.321   0.232   1.682  0.3813  0.0821 -0.4786
17604TIP3    H174303   2.262   0.283   1.737  0.7740  1.2736 -1.1349
17604TIP3    H274304   2.300   0.141   1.703 -2.7821  0.3874 -1.8001
17605TIP3   OH274305   1.909   0.668   4.049 -0.1175  0.2948  0.3624
17605TIP3    H174306   1.965   0.683   4.124  0.0823 -0.4731  0.3726
17605TIP3    H274307   1.931   0.580   4.019 -1.0179  0.1366  0.1184
17606TIP3   OH274308   6.633   4.281   3.204  0.4916 -0.3136 -0.3955
17606TIP3    H174309   6.670   4.286   3.293  1.4657 -1.1238 -0.7351
17606TIP3    H274310   6.538   4.280   3.218  0.6038  0.5714  0.5767
17607TIP3   OH274311   3.961   4.196   5.722  0.3313  0.3422  0.7575
17607TIP3    H174312   4.030   4.221   5.661  1.0722 -2.4862  0.2704
17607TIP3    H274313   3.897   4.267   5.717  1.7502  1.5939 -1.0832
17608TIP3   OH274314   1.521   1.812   2.491 -0.4082  0.1233 -0.0490
17608TIP3    H174315   1.565   1.727   2.488 -1.4342 -0.4651  0.7207
17608TIP3    H274316   1.495   1.829   2.401 -1.9315 -1.3603  0.0462
17609TIP3   OH274317   3.288   0.339  12.058 -0.3232 -0.2633 -0.2070
17609TIP3    H174318   3.244   0.421  12.082 -0.3272  0.0124 -1.1355
17609TIP3    H274319   3.340   0.317  12.136 -1.0312  0.1275  0.3928
17610TIP3   OH274320   5.962   3.625  11.248  0.2244 -0.1957  0.2384
17610TIP3    H174321   5.931   3.658  11.164  0.1040 -1.2729 -0.1656
17610TIP3    H274322   5.884   3.624  11.303  0.0171 -0.7042 -0.0519
17611TIP3   OH274323   4.841   4.586   3.728  0.0011  0.3362 -0.5747
17611TIP3    H174324   4.807   4.497   3.741  0.4311  0.3570  0.7750
17611TIP3    H274325   4.823   4.631   3.810 -0.3086  1.5501 -1.2918
17612TIP3   OH274326   3.432   3.675   2.761  0.2930  0.7795 -0.5441
17612TIP3    H174327   3.384   3.673   2.678  1.5632  1.1584 -1.3117
17612TIP3    H274328   3.364   3.675   2.828 -0.8056  2.0905 -1.6053
17613TIP3   OH274329   1.033   4.032  11.401  0.2277  0.1505 -0.4141
17613TIP3    H174330   1.052   4.114  11.357  0.7241 -0.2223 -0.8969
17613TIP3    H274331   0.938   4.021  11.391  0.4203 -0.2304 -1.9171
17614TIP3   OH274332   5.645   0.201  16.605 -0.0472 -0.0378 -0.4207
17614TIP3    H174333   5.610   0.203  16.516 -2.6693  0.2068  0.5082
17614TIP3    H274334   5.652   0.107  16.626  0.7015 -0.0963 -0.9098
17615TIP3   OH274335   5.046   1.482   5.155  0.2897  0.7226 -0.2556
17615TIP3    H174336   5.113   1.543   5.124  0.4678  0.0900 -1.1663
17615TIP3    H274337   4.964   1.532   5.152  0.6955  1.4941  0.8456
17616TIP3   OH274338   2.493   5.341  14.566 -0.1772  0.0336  0.0123
17616TIP3    H174339   2.541   5.334  14.649  2.1584  3.2603 -0.8684
17616TIP3    H274340   2.418   5.397  14.587  0.4571  0.9167 -0.0333
17617TIP3   OH274341   1.775   4.634  12.183  0.4000  0.0394 -0.3490
17617TIP3    H174342   1.746   4.632  12.275  0.3730  1.3143 -0.3067
17617TIP3    H274343   1.704   4.680  12.138 -0.5300 -2.2541 -1.4035
17618TIP3   OH274344   0.757   3.761   0.069 -0.4575 -0.1982  0.0508
17618TIP3    H174345   0.711   3.755  -0.014  1.1242 -1.6140 -0.7938
17618TIP3    H274346   0.808   3.841   0.063 -2.3154  1.0937  0.7758
17619TIP3   OH274347   3.229   0.037   4.457 -0.0631 -0.2244  0.2374
17619TIP3    H174348   3.221   0.063   4.366  2.1509  0.6674  0.2247
17619TIP3    H274349   3.181   0.104   4.506 -0.0596  0.0925 -0.1931
17620TIP3   OH274350   0.900   4.551   1.690 -0.5127 -0.1386 -0.1500
17620TIP3    H174351   0.863   4.589   1.610  0.9450  0.8147 -0.4176
17620TIP3    H274352   0.991   4.532   1.667 -0.4012 -0.9869  0.9358
17621TIP3   OH274353   1.437   4.774   3.871 -0.2494 -0.2886 -0.1348
17621TIP3    H174354   1.497   4.700   3.864  1.4068  0.6732  2.5192
17621TIP3    H274355   1.493   4.852   3.866 -1.6990  0.7604 -0.8803
17622TIP3   OH274356   3.633   0.624  10.615 -0.1340 -0.6482  0.6300
17622TIP3    H174357   3.725   0.649  10.621  0.1391 -1.9612  3.7056
17622TIP3    H274358   3.589   0.684  10.675 -1.0168 -1.1933  0.5375
17623TIP3   OH274359   2.765   5.311   2.524 -0.1425  0.1269  0.0210
17623TIP3    H174360   2.765   5.216   2.516 -1.3408  0.1589 -0.5326
17623TIP3    H274361   2.691   5.340   2.471 -2.6106  1.0376  3.5387
17624TIP3   OH274362   3.086   0.570   4.414  0.0851 -0.0055 -0.4393
17624TIP3    H174363   3.159   0.510   4.405  0.0187 -0.2427  0.4809
17624TIP3    H274364   3.069   0.574   4.508 -1.8618 -0.9078 -0.7017
17625TIP3   OH274365   6.776   5.622   2.577  0.2211 -0.1458  0.1482
17625TIP3    H174366   6.793   5.529   2.594  0.0183 -0.3243 -0.6137
17625TIP3    H274367   6.839   5.646   2.509 -1.5620 -0.4502 -1.6750
17626TIP3   OH274368   4.385   3.020  15.593  0.0802 -0.0837  0.3121
17626TIP3    H174369   4.332   3.083  15.544 -1.8393 -1.1941  0.8406
17626TIP3    H274370   4.402   2.949  15.531  0.0015 -0.2257  0.4508
17627TIP3   OH274371   0.163   4.275   2.516  0.5456  0.8659  0.3355
17627TIP3    H174372   0.253   4.244   2.515  0.9841  2.0869  0.5941
17627TIP3    H274373   0.160   4.339   2.588  0.2339  2.9862 -1.4603
17628TIP3   OH274374   2.875   0.135   0.200 -0.2862  0.5995 -0.0233
17628TIP3    H174375   2.872   0.164   0.109 -1.8524  0.0718 -0.1753
17628TIP3    H274376   2.831   0.204   0.249 -0.6518  0.2624  0.1329
17629TIP3   OH274377   4.570   0.884   1.715  0.1191  0.3500 -0.1301
17629TIP3    H174378   4.487   0.854   1.751  0.1397  0.8035  0.3192
17629TIP3    H274379   4.634   0.821   1.747 -0.2490 -0.9463 -1.8171
17630TIP3   OH274380   4.753   6.360   1.063 -0.1730 -0.0867  0.1573
17630TIP3    H174381   4.812   6.285   1.058 -0.9405 -0.7173  0.2760
17630TIP3    H274382   4.726   6.376   0.973  1.9334  1.6877 -0.2473
17631TIP3   OH274383   3.025   5.933   0.436  0.0793  0.0517  0.1552
17631TIP3    H174384   3.000   5.892   0.353 -1.7147 -1.8164  1.5053
17631TIP3    H274385   3.118   5.916   0.445 -0.2623 -2.3269 -0.1784
17632TIP3   OH274386   1.595   6.106   0.790 -0.3918 -0.8081  0.0086
17632TIP3    H174387   1.556   6.059   0.716 -1.0859 -0.6257  0.2533
17632TIP3    H274388   1.670   6.152   0.752 -0.7093 -0.7606 -0.5756
17633TIP3   OH274389   3.888   1.911  14.723  0.2627  0.0208 -0.6246
17633TIP3    H174390   3.927   1.833  14.762  0.4309 -0.9202 -2.5588
17633TIP3    H274391   3.793   1.896  14.730  0.2642  0.4705  0.5430
17634TIP3   OH274392   5.196   5.592   2.800  0.1518 -0.1866 -0.5271
17634TIP3    H174393   5.127   5.656   2.818  0.4492  0.1277 -0.4684
17634TIP3    H274394   5.275   5.646   2.792  0.5981 -0.6406  0.6202
17635TIP3   OH274395   1.376   3.672  10.995 -0.7231  0.0288 -0.4076
17635TIP3    H174396   1.317   3.597  10.999 -1.7354  0.7986 -0.5434
17635TIP3    H274397   1.365   3.707  10.907 -0.7650  0.7222 -0.1352
17636TIP3   OH274398   3.918   1.940  12.779  0.1116 -0.4870 -0.0455
17636TIP3    H174399   3.970   1.890  12.717  1.0069  0.8368 -0.3887
17636TIP3    H274400   3.964   1.931  12.862  1.0861  0.9076 -0.4053
17637TIP3   OH274401   2.055   2.808  11.884  0.0575 -0.5267 -0.4474
17637TIP3    H174402   1.962   2.802  11.861  0.1830 -1.2466 -0.8118
17637TIP3    H274403   2.056   2.806  11.980 -0.2743 -1.1083 -0.4517
17638TIP3   OH274404   6.319   4.122  16.773 -0.2982  0.1317 -0.0192
17638TIP3    H174405   6.275   4.091  16.694  0.9688  1.9886 -1.5264
17638TIP3    H274406   6.297   4.216  16.777 -0.2184  0.1081  1.7790
17639TIP3   OH274407   4.061   4.443   2.133 -0.0590 -0.6040 -0.1256
17639TIP3    H174408   4.024   4.409   2.051  2.1630 -2.7673 -0.3390
17639TIP3    H274409   4.112   4.371   2.168 -1.4202  0.0076  3.5862
17640TIP3   OH274410   4.582   3.935  10.932 -0.5765  0.8705  0.4910
17640TIP3    H174411   4.501   3.931  10.879 -0.6002 -0.0622  0.5851
17640TIP3    H274412   4.651   3.910  10.871 -0.4568  0.8838  0.6218
17641TIP3   OH274413   5.955   6.711  15.199 -0.2109 -0.5868  0.1813
17641TIP3    H174414   6.031   6.771  15.195 -0.3613 -0.4305 -0.3467
17641TIP3    H274415   5.993   6.624  15.190 -0.0925 -0.5053 -0.1387
17642TIP3   OH274416   0.190   0.637  13.507  0.3605  0.3630 -0.5363
17642TIP3    H174417   0.256   0.594  13.453 -0.3141 -2.3863  0.6701
17642TIP3    H274418   0.240   0.699  13.561  1.8268 -0.8563 -0.4312
17643TIP3   OH274419   3.314   5.242  14.207 -0.0807  0.5126  0.1355
17643TIP3    H174420   3.251   5.299  14.163  0.9328  2.0837  0.6207
17643TIP3    H274421   3.396   5.257  14.160  0.1822 -0.6976  0.1791
17644TIP3   OH274422   2.862   0.149   3.379  0.2227  0.0280 -0.1180
17644TIP3    H174423   2.892   0.239   3.362 -1.0319  0.4592 -0.1612
17644TIP3    H274424   2.907   0.096   3.314  0.6233  0.6956 -0.4016
17645TIP3   OH274425   4.752   3.929  11.417 -0.1696 -0.1525  0.5861
17645TIP3    H174426   4.747   3.896  11.506  0.1386  3.0694  1.9190
17645TIP3    H274427   4.770   4.022  11.426  0.7188  0.1691 -2.8823
17646TIP3   OH274428   1.919   1.137   2.877 -0.0222 -0.4832 -0.0226
17646TIP3    H174429   1.933   1.223   2.916 -0.5657 -0.0445 -0.7746
17646TIP3    H274430   2.005   1.111   2.844 -0.1610  0.4864 -1.2103
17647TIP3   OH274431   2.057   2.846   0.546 -0.3926  0.3944 -0.2900
17647TIP3    H174432   2.044   2.920   0.487 -1.8639  0.8181  0.5120
17647TIP3    H274433   2.111   2.882   0.617  0.5773  0.1415 -0.8900
17648TIP3   OH274434   4.369   0.799  14.547  0.2979 -0.0198 -0.6287
17648TIP3    H174435   4.348   0.821  14.638  3.9746 -0.4070  0.4804
17648TIP3    H274436   4.322   0.864  14.495 -0.4185  1.4091  1.6696
17649TIP3   OH274437   3.690   5.264  13.766 -0.5951 -0.3223 -0.1904
17649TIP3    H174438   3.723   5.318  13.694 -2.7270 -0.1887 -1.1556
17649TIP3    H274439   3.685   5.323  13.840  1.4368 -0.4046  0.0471
17650TIP3   OH274440   0.420   0.932  14.921 -0.2318 -0.0632 -0.1059
17650TIP3    H174441   0.502   0.896  14.954  0.4772 -0.2479 -1.9566
17650TIP3    H274442   0.357   0.860  14.930 -0.0715 -0.0951  0.8331
17651TIP3   OH274443   0.549   1.975   0.315 -0.1016  0.7717  0.1258
17651TIP3    H174444   0.565   1.888   0.280  0.6470  0.5237  1.0422
17651TIP3    H274445   0.543   1.962   0.410 -2.2105  1.3987  0.1379
17652TIP3   OH274446   1.013   3.708   2.508  0.1941 -0.5725  0.0809
17652TIP3    H174447   1.104   3.680   2.503  0.8896  1.6012 -0.2424
17652TIP3    H274448   1.005   3.748   2.594 -0.6483 -1.2942  0.3543
17653TIP3   OH274449   1.115   0.714  12.452  0.1556  0.0662 -0.8308
17653TIP3    H174450   1.081   0.657  12.383 -0.1139  2.2824 -2.6983
17653TIP3    H274451   1.048   0.783  12.461  0.2242 -0.1055  1.6577
17654TIP3   OH274452   2.484   4.669   5.393  0.3172 -0.5398  0.3187
17654TIP3    H174453   2.486   4.573   5.386 -0.4223 -0.6066  0.9161
17654TIP3    H274454   2.537   4.699   5.319 -0.2869 -1.3820 -0.4819
17655TIP3   OH274455   0.019   1.820  13.504  0.0761  0.1747  0.1493
17655TIP3    H174456   0.060   1.882  13.444 -1.7068  0.5025 -0.8109
17655TIP3    H274457   0.076   1.819  13.581  1.2728  1.3805 -0.6816
17656TIP3   OH274458   2.482   1.572   1.467  0.1435 -0.0460 -0.5690
17656TIP3    H174459   2.480   1.533   1.380 -1.2556  0.0766 -0.6132
17656TIP3    H274460   2.430   1.652   1.459  2.0255  1.3133 -0.2111
17657TIP3   OH274461   2.846   2.508  13.372 -0.1127 -0.0950  0.2310
17657TIP3    H174462   2.771   2.483  13.318  0.6815 -0.4960 -0.7420
17657TIP3    H274463   2.919   2.513  13.309  0.4956  1.1150  1.0094
17658TIP3   OH274464   3.148   4.603  12.098 -0.2933  0.4708  0.1222
17658TIP3    H174465   3.075   4.662  12.118 -0.2957  0.2766  0.6941
17658TIP3    H274466   3.225   4.647  12.134 -0.4483 -0.3841  1.5315
17659TIP3   OH274467   2.092   5.202  10.884 -0.1167  0.3019 -0.3773
17659TIP3    H174468   2.148   5.255  10.940 -1.2002  0.0534  0.9885
17659TIP3    H274469   2.010   5.252  10.877 -0.7610 -0.6476  0.0579
17660TIP3   OH274470   1.665   4.693   4.550 -0.2802  0.1484  0.2756
17660TIP3    H174471   1.745   4.641   4.548 -0.7339 -0.5309 -1.4274
17660TIP3    H274472   1.603   4.645   4.496 -1.5471  1.1481  0.7850
17661TIP3   OH274473   2.670   4.872  15.815  0.0638  0.0386 -0.0472
17661TIP3    H174474   2.669   4.788  15.861 -1.4757  0.5310  0.9050
17661TIP3    H274475   2.590   4.916  15.845  0.7067  1.7380 -0.7271
17662TIP3   OH274476   4.456   3.764  12.876  0.0738  0.3454  0.7879
17662TIP3    H174477   4.410   3.811  12.946 -0.6221 -0.1343  0.6645
17662TIP3    H274478   4.394   3.697  12.848  1.9373 -2.4015  2.7135
17663TIP3   OH274479   3.663   0.228   3.339  0.0005 -0.1011  0.2879
17663TIP3    H174480   3.595   0.290   3.312  0.0379 -0.4224 -0.5835
17663TIP3    H274481   3.738   0.250   3.284 -0.1079 -1.1557 -0.3058
17664TIP3   OH274482   5.573   3.633   0.250 -0.4807  0.2313  0.3752
17664TIP3    H174483   5.572   3.540   0.227 -0.5441  0.1799  0.5844
17664TIP3    H274484   5.498   3.644   0.308  1.3880 -0.3053  3.0801
17665TIP3   OH274485   2.680   3.346  16.204 -0.6602 -0.7095 -0.6314
17665TIP3    H174486   2.705   3.263  16.245 -1.8785 -0.8540 -0.1323
17665TIP3    H274487   2.605   3.376  16.256 -0.6569  0.3675 -1.2274
17666TIP3   OH274488   2.340   0.883   2.686  0.0826 -0.2905  0.3569
17666TIP3    H174489   2.251   0.851   2.672 -0.7135  2.0101 -0.3142
17666TIP3    H274490   2.396   0.823   2.636 -1.2718 -0.8252 -0.5688
17667TIP3   OH274491   2.710   4.223  11.609 -0.0698  0.0285  0.3474
17667TIP3    H174492   2.722   4.218  11.514  0.1980  0.4490  0.3618
17667TIP3    H274493   2.760   4.148  11.643  0.7484  0.5184  0.2402
17668TIP3   OH274494   3.275   4.018   0.460 -0.8374  0.0239 -0.1803
17668TIP3    H174495   3.310   4.107   0.455  1.6231 -0.8680 -0.1968
17668TIP3    H274496   3.344   3.963   0.424 -2.1103 -1.9662  0.2475
17669TIP3   OH274497   2.551   2.784  16.737  0.6810 -0.1902 -0.2807
17669TIP3    H174498   2.538   2.865  16.787 -0.9323  0.1818 -1.2250
17669TIP3    H274499   2.498   2.719  16.784  1.6047 -0.6036  0.2095
17670TIP3   OH274500   5.080   3.969   5.442 -0.4031  0.1888  0.4426
17670TIP3    H174501   5.166   3.929   5.426 -0.6546 -0.0002 -0.4968
17670TIP3    H274502   5.099   4.062   5.455 -0.2242  0.4863 -1.6755
17671TIP3   OH274503   1.559   1.553  15.603  0.4438 -0.4329  0.0798
17671TIP3    H174504   1.547   1.642  15.638 -0.4010 -0.7992  0.7522
17671TIP3    H274505   1.653   1.539  15.607  0.4561 -0.1330  1.4367
17672TIP3   OH274506   3.871   4.200   3.808  0.4338 -0.2171  0.0993
17672TIP3    H174507   3.806   4.252   3.856 -1.0545 -2.0566  0.1761
17672TIP3    H274508   3.862   4.230   3.717  0.2327  0.2918  0.2817
17673TIP3   OH274509   6.823   5.935  14.320  0.1966 -0.0025  0.4499
17673TIP3    H174510   6.918   5.934  14.331  0.3940 -4.1103 -0.2256
17673TIP3    H274511   6.809   6.000  14.251  2.7400 -0.5588 -0.7357
17674TIP3   OH274512   0.963   4.307   3.378  0.3581 -0.0699 -0.0049
17674TIP3    H174513   0.994   4.239   3.438 -3.1915 -2.1482 -0.2563
17674TIP3    H274514   0.971   4.268   3.291  1.3016  1.1799 -0.5021
17675TIP3   OH274515   2.202   1.540   1.670  0.2136 -0.3128 -0.4504
17675TIP3    H174516   2.216   1.609   1.605  0.4052 -0.9902 -1.1262
17675TIP3    H274517   2.227   1.459   1.626  1.2416 -0.6796  0.7562
17676TIP3   OH274518   4.831   0.680  15.055 -0.1386 -0.3327 -0.1599
17676TIP3    H174519   4.886   0.706  14.981 -0.1131 -0.2868 -0.1240
17676TIP3    H274520   4.805   0.762  15.096  0.4346 -0.3735  0.3106
17677TIP3   OH274521   4.743   6.416   0.785  0.4984 -0.2865 -0.1280
17677TIP3    H174522   4.742   6.355   0.711 -1.0093  0.1042 -0.4478
17677TIP3    H274523   4.707   6.497   0.750 -0.9040 -0.2990  1.1985
17678TIP3   OH274524   4.601   4.805  10.847 -0.3902  0.4508 -0.3361
17678TIP3    H174525   4.685   4.760  10.841  0.3775  1.7281  0.4317
17678TIP3    H274526   4.605   4.873  10.779 -0.2144  1.3989  0.5942
17679TIP3   OH274527   0.277   1.941  13.385  0.1025  0.0858 -0.0454
17679TIP3    H174528   0.239   2.028  13.369  0.0463 -0.0737 -0.7959
17679TIP3    H274529   0.300   1.942  13.478  0.2442  0.9644 -0.0830
17680TIP3   OH274530   6.554   3.744  11.859 -0.5974 -0.5247  0.2855
17680TIP3    H174531   6.496   3.791  11.798 -0.2733 -0.5324 -0.0313
17680TIP3    H274532   6.511   3.659  11.872 -1.9659  0.3612  2.0116
17681TIP3   OH274533   1.957   4.294  13.888  0.1823  0.5988  0.1757
17681TIP3    H174534   2.005   4.287  13.971 -1.4673  0.9738  1.2126
17681TIP3    H274535   1.979   4.214  13.841 -0.1996 -0.4804  1.7523
17682TIP3   OH274536   1.063   3.331   3.447  0.7031 -0.1034 -0.2132
17682TIP3    H174537   1.041   3.387   3.373  3.5601  0.2527 -0.9411
17682TIP3    H274538   1.067   3.242   3.410  4.6288  0.3359 -1.3419
17683TIP3   OH274539   4.500   6.202  11.925  1.0551 -0.5359  0.3093
17683TIP3    H174540   4.490   6.187  12.019 -2.2947  0.9649  0.3263
17683TIP3    H274541   4.465   6.123  11.885 -0.7234  0.1676  0.3912
17684TIP3   OH274542   1.414   2.995  11.313  0.2262 -0.1494  0.2829
17684TIP3    H174543   1.416   2.962  11.403  2.1990  0.4268  0.4982
17684TIP3    H274544   1.398   2.917  11.260  0.5135 -0.7436  1.0445
17685TIP3   OH274545   2.081   4.314  10.997  0.3477 -0.3774  0.0436
17685TIP3    H174546   1.995   4.309  10.954 -0.3244 -0.1726  1.3255
17685TIP3    H274547   2.112   4.224  10.997 -0.3455 -0.6289  0.4878
17686TIP3   OH274548   2.861   5.218  15.403 -0.1239  0.0417 -0.5624
17686TIP3    H174549   2.866   5.137  15.454  1.1923 -0.1907 -1.0463
17686TIP3    H274550   2.821   5.192  15.320  2.6101 -0.6893 -1.7551
17687TIP3   OH274551   0.413   5.012  14.185 -0.3667 -0.3442  0.4581
17687TIP3    H174552   0.407   5.078  14.255 -0.0228 -0.6662  0.7981
17687TIP3    H274553   0.506   4.993  14.179 -0.1578  1.0493 -1.3959
17688TIP3   OH274554   1.803   4.190   1.633 -0.3607 -0.2633  0.6058
17688TIP3    H174555   1.767   4.131   1.699 -0.3166 -0.4826  0.4336
17688TIP3    H274556   1.770   4.276   1.658 -1.7773 -0.5692 -0.0574
17689TIP3   OH274557   2.760   3.293   5.862  0.5017 -0.2772 -0.0681
17689TIP3    H174558   2.679   3.250   5.834 -0.7661 -0.3575  3.2667
17689TIP3    H274559   2.732   3.358   5.926  3.1070 -1.1424  2.1517
17690TIP3   OH274560   6.704   4.163   4.670  0.3064  0.0256 -0.1158
17690TIP3    H174561   6.738   4.100   4.606  1.8082  0.6195  0.0403
17690TIP3    H274562   6.609   4.160   4.659  0.4924 -0.3152 -1.9644
17691TIP3   OH274563   1.685   4.198   4.056  0.3591  0.1694  0.4950
17691TIP3    H174564   1.642   4.123   4.096 -2.2931  0.3574 -1.6941
17691TIP3    H274565   1.634   4.273   4.084  0.0787  0.5825 -1.0319
17692TIP3   OH274566   0.688   4.267   4.226 -0.0701  0.1386 -0.2788
17692TIP3    H174567   0.734   4.261   4.309 -0.1847 -0.9479 -0.2821
17692TIP3    H274568   0.757   4.282   4.161 -0.0667  1.9885  0.0944
17693TIP3   OH274569   3.460   5.639  15.907  0.2476  0.2384 -0.0800
17693TIP3    H174570   3.507   5.632  15.824  2.0326 -0.6154  0.9366
17693TIP3    H274571   3.419   5.725  15.905  3.3260  1.8136 -0.3434
17694TIP3   OH274572   4.314   1.222  11.815 -0.0120  0.4272  0.1908
17694TIP3    H174573   4.389   1.261  11.771 -0.2218 -0.9592 -1.4923
17694TIP3    H274574   4.240   1.280  11.793  0.1624  0.5960  0.0494
17695TIP3   OH274575   5.297   0.460  10.959  0.7024 -0.2770 -0.6931
17695TIP3    H174576   5.332   0.506  11.035  0.5922 -0.2275 -0.6711
17695TIP3    H274577   5.373   0.426  10.914  0.8479  0.7001 -1.2054
17696TIP3   OH274578   0.694   3.968   1.525 -0.5607  0.4789 -0.1838
17696TIP3    H174579   0.734   3.903   1.467  1.8806  0.6609  1.1552
17696TIP3    H274580   0.609   3.930   1.548  0.0678 -1.4442 -0.7846
17697TIP3   OH274581   4.921   2.259   4.169  0.2325 -0.7698 -0.4935
17697TIP3    H174582   4.938   2.254   4.075  2.4609  1.6500 -0.3450
17697TIP3    H274583   5.008   2.263   4.209 -0.6529 -2.1441  1.7570
17698TIP3   OH274584   4.227   0.173  14.283  0.3224  0.2738 -0.2819
17698TIP3    H174585   4.162   0.182  14.352  2.5243 -0.0968  1.9934
17698TIP3    H274586   4.250   0.263  14.260  2.1426  0.5409  2.1784
17699TIP3   OH274587   0.275   0.805   4.580  0.2586  0.3384 -0.2480
17699TIP3    H174588   0.235   0.725   4.614 -0.3061  1.9435  3.3633
17699TIP3    H274589   0.237   0.816   4.492 -1.0060 -2.3695 -0.1221
17700TIP3   OH274590   1.923   0.993   3.963 -0.3223  0.2934  0.2670
17700TIP3    H174591   1.891   0.997   4.053 -0.1210  0.3008  0.3394
17700TIP3    H274592   2.017   0.974   3.972 -0.1084  1.2325  0.0877
17701TIP3   OH274593   4.722   0.060  14.182  0.0167 -0.0457  0.7596
17701TIP3    H174594   4.643   0.006  14.183  0.4287 -0.6824 -0.2346
17701TIP3    H274595   4.793  -0.000  14.163  0.5557  0.7516  0.1546
17702TIP3   OH274596   3.461   0.521   1.423  0.2373 -0.0241  0.6587
17702TIP3    H174597   3.546   0.534   1.382  1.1325 -0.3349  2.3492
17702TIP3    H274598   3.480   0.505   1.516 -1.7483  1.4980  1.4069
17703TIP3   OH274599   2.228   1.805  13.715 -0.2181  0.3892  0.0959
17703TIP3    H174600   2.136   1.823  13.734 -0.2590  0.4372 -0.1510
17703TIP3    H274601   2.231   1.711  13.696  0.0324  0.0518  1.6175
17704TIP3   OH274602   6.528   1.365   3.472  0.1252 -0.9179 -0.7248
17704TIP3    H174603   6.462   1.345   3.538  1.4668 -1.0600  0.6190
17704TIP3    H274604   6.518   1.460   3.457 -1.0685 -1.1195 -1.3508
17705TIP3   OH274605   4.154   5.733  14.594 -0.0856 -0.6620 -0.4525
17705TIP3    H174606   4.170   5.648  14.553  2.0180  0.3053 -1.8126
17705TIP3    H274607   4.212   5.793  14.548 -0.4645  1.2669  1.4280
17706TIP3   OH274608   1.302   3.890   3.745 -0.0565  0.2028  0.5177
17706TIP3    H174609   1.318   3.800   3.775 -2.3870  0.1886  1.8838
17706TIP3    H274610   1.207   3.897   3.739  0.1235  2.0601 -1.3453
17707TIP3   OH274611   1.782   6.734  14.823  0.3057 -0.1931 -0.3075
17707TIP3    H174612   1.717   6.695  14.766  0.5905  0.5398 -1.1549
17707TIP3    H274613   1.755   6.825  14.832  0.2030 -0.3193  0.8264
17708TIP3   OH274614   0.462   3.767   3.810  0.6329 -0.1264  0.0495
17708TIP3    H174615   0.419   3.839   3.765  1.7581  2.6719  3.0444
17708TIP3    H274616   0.409   3.752   3.888  1.7221 -0.9096  0.6778
17709TIP3   OH274617   4.133   2.740  12.945  0.3103 -0.0696  0.2365
17709TIP3    H174618   4.141   2.778  12.858 -2.1565 -0.4600 -0.2525
17709TIP3    H274619   4.103   2.812  13.000 -0.7484 -0.4089  0.1319
17710TIP3   OH274620   1.079   0.167   3.100 -0.6207  0.2746 -0.2747
17710TIP3    H174621   1.168   0.142   3.125 -1.2006  0.3026  2.0768
17710TIP3    H274622   1.081   0.263   3.102 -1.1840  0.2985  1.9914
17711TIP3   OH274623   0.296   2.222   0.889  0.3223  0.0338  0.6591
17711TIP3    H174624   0.224   2.224   0.952  0.0258 -0.0984  0.3335
17711TIP3    H274625   0.375   2.233   0.941  0.0008  1.2680  0.9173
17712TIP3   OH274626   4.853   6.489  15.995  0.4228  0.4884 -0.6826
17712TIP3    H174627   4.804   6.554  15.944 -1.9416 -2.1322 -2.0324
17712TIP3    H274628   4.888   6.428  15.931  1.0980 -0.5399  0.6105
17713TIP3   OH274629   2.325   0.672  13.230  0.4953 -0.3272  0.3772
17713TIP3    H174630   2.380   0.679  13.308  0.5422 -0.6752  0.3752
17713TIP3    H274631   2.384   0.694  13.158  0.6602 -0.7868  0.3668
17714TIP3   OH274632   4.035   3.961   2.881 -0.0664 -0.9379 -0.0392
17714TIP3    H174633   4.125   3.934   2.899 -0.4886 -0.3507  3.7799
17714TIP3    H274634   4.043   4.047   2.839  1.1628 -0.5793  0.8762
17715TIP3   OH274635   6.517   4.659  15.632  0.4656  0.2477  0.3266
17715TIP3    H174636   6.429   4.642  15.596  0.3081 -1.4516  1.4427
17715TIP3    H274637   6.566   4.695  15.557 -0.2320 -1.8996 -1.2671
17716TIP3   OH274638   1.911   0.885   5.139 -0.5953 -0.1950  0.6237
17716TIP3    H174639   1.850   0.958   5.130 -0.6817 -0.4406 -1.1697
17716TIP3    H274640   1.857   0.807   5.129 -0.0071 -0.4107 -1.3839
17717TIP3   OH274641   6.312   4.506   0.692  0.2742  0.0730  0.0152
17717TIP3    H174642   6.388   4.449   0.677  0.6380  1.0547 -2.1576
17717TIP3    H274643   6.242   4.445   0.716  0.7698 -1.3197 -1.7902
17718TIP3   OH274644   6.084   5.715  15.712 -0.0246  0.2306 -0.3657
17718TIP3    H174645   6.135   5.693  15.634  0.8944 -0.6965  0.4824
17718TIP3    H274646   6.149   5.732  15.780 -0.8248  0.2096  0.4240
17719TIP3   OH274647   4.198   0.868   2.955  0.4357 -0.1552  0.1590
17719TIP3    H174648   4.168   0.782   2.983  1.7791 -1.1272 -1.2540
17719TIP3    H274649   4.144   0.889   2.879  0.3823  0.0911  0.2626
17720TIP3   OH274650   2.859   1.227  13.092 -0.0983 -0.2682 -0.2491
17720TIP3    H174651   2.903   1.145  13.114 -1.1003 -0.4607  1.1289
17720TIP3    H274652   2.920   1.295  13.119 -0.7446 -0.5246  2.0777
17721TIP3   OH274653   0.092   0.321  10.862  0.2070 -0.2282  0.2133
17721TIP3    H174654   0.094   0.393  10.799 -1.0609  0.0700  0.4699
17721TIP3    H274655   0.079   0.243  10.810  1.8143 -0.3245 -0.0875
17722TIP3   OH274656   3.961   1.788  13.653 -0.2543  0.4310  0.0775
17722TIP3    H174657   3.976   1.709  13.705  0.5000  0.3793 -0.2181
17722TIP3    H274658   4.030   1.849  13.681  0.6954  0.0969 -1.4675
17723TIP3   OH274659   4.778   5.399  12.069  0.1474 -0.4732  0.1237
17723TIP3    H174660   4.819   5.480  12.042  0.3332 -1.1675 -1.8280
17723TIP3    H274661   4.847   5.350  12.114  1.0921 -1.0189 -1.8406
17724TIP3   OH274662   2.860   2.725   5.510  0.2487  0.2007  0.0353
17724TIP3    H174663   2.805   2.650   5.488 -1.7602  1.3214  1.0033
17724TIP3    H274664   2.884   2.712   5.602  0.3645  0.4380  0.0415
17725TIP3   OH274665   4.737   3.203  14.254  0.2937 -0.2885 -0.1197
17725TIP3    H174666   4.667   3.173  14.196  0.2304  2.9099 -1.9184
17725TIP3    H274667   4.808   3.140  14.241  0.6014  0.6614 -4.5027
17726TIP3   OH274668   2.178   3.446  11.025 -0.0072 -0.4471  0.4083
17726TIP3    H174669   2.120   3.522  11.028 -0.7827 -0.7341 -3.0728
17726TIP3    H274670   2.247   3.470  10.963  3.6817 -0.2385  4.1825
17727TIP3   OH274671   0.967   2.740  10.792  0.1074 -0.1433 -0.2513
17727TIP3    H174672   0.879   2.770  10.814  0.1449  0.4421 -0.8741
17727TIP3    H274673   0.963   2.645  10.801 -0.1295 -0.0130  1.3406
17728TIP3   OH274674   6.444   3.283  15.042  0.1437  0.3678 -0.8053
17728TIP3    H174675   6.399   3.260  15.123  1.7160  2.1085  0.6481
17728TIP3    H274676   6.536   3.262  15.058  0.6432  1.7027 -1.7409
17729TIP3   OH274677   0.746   1.268   3.387  0.3075 -0.1492 -0.0900
17729TIP3    H174678   0.813   1.204   3.414 -0.5120 -0.8615  0.2862
17729TIP3    H274679   0.761   1.279   3.293  0.5171 -0.8369 -0.1464
17730TIP3   OH274680   4.944   6.360  15.383  0.3872 -0.6481  0.3979
17730TIP3    H174681   4.957   6.294  15.451 -1.5212 -0.9648  0.5202
17730TIP3    H274682   4.849   6.365  15.373  0.4433  2.2280  0.5187
17731TIP3   OH274683   1.257   2.971   3.196 -0.0610  0.0010  0.2332
17731TIP3    H174684   1.240   2.998   3.106  2.0623  2.5457  0.4814
17731TIP3    H274685   1.170   2.964   3.236 -1.0283 -0.9628 -1.8926
17732TIP3   OH274686   1.115   5.469   0.468  0.4892 -0.1292  0.3877
17732TIP3    H174687   1.111   5.438   0.559  0.8848 -0.3498  0.3345
17732TIP3    H274688   1.169   5.548   0.472  0.4559 -0.1048  0.3528
17733TIP3   OH274689   2.384   3.330  16.977 -0.1845  0.0037 -0.1148
17733TIP3    H174690   2.308   3.352  16.922  0.8125 -0.9230 -1.9376
17733TIP3    H274691   2.414   3.414  17.011  0.1088  0.8446 -2.2960
17734TIP3   OH274692   0.068   0.769  16.202  0.1254 -0.0858 -0.3833
17734TIP3    H174693   0.128   0.843  16.213 -0.8269  0.6520 -0.0671
17734TIP3    H274694   0.089   0.711  16.274  0.2372  0.3233 -0.0797
17735TIP3   OH274695   6.445   0.006   2.879  0.0349  0.4418 -0.3764
17735TIP3    H174696   6.511   0.055   2.927 -0.3427  1.3787 -0.7734
17735TIP3    H274697   6.454  -0.084   2.909  1.0992  0.6637 -0.0084
17736TIP3   OH274698   3.615   1.234   0.565  0.2801  0.5845 -0.1998
17736TIP3    H174699   3.686   1.174   0.589  1.0948  2.0728  1.2879
17736TIP3    H274700   3.655   1.320   0.564 -1.3259  1.3730 -0.2327
17737TIP3   OH274701   4.421   2.404   5.858 -0.3286 -0.2946  0.7599
17737TIP3    H174702   4.515   2.393   5.842 -0.1775  0.8604  0.7580
17737TIP3    H274703   4.416   2.456   5.938 -0.9134  1.0717 -0.1310
17738TIP3   OH274704   0.431   0.010  13.520 -0.0211 -0.1019 -0.2958
17738TIP3    H174705   0.508  -0.041  13.547  0.6160  0.7904 -0.3972
17738TIP3    H274706   0.366  -0.007  13.588  1.3492  1.6388  1.5668
17739TIP3   OH274707   1.422   5.626  13.180 -0.4794 -0.5129  0.1577
17739TIP3    H174708   1.424   5.634  13.084 -0.5358  0.7509  0.2397
17739TIP3    H274709   1.445   5.713  13.211 -2.3571 -0.3517  1.2846
17740TIP3   OH274710   4.374   6.832  13.982  0.0167  0.2557 -0.0284
17740TIP3    H174711   4.457   6.793  13.955  0.6091  0.8234  0.9301
17740TIP3    H274712   4.389   6.863  14.071 -1.5943 -0.6732  0.6121
17741TIP3   OH274713   1.917   5.062  13.734 -0.2448 -0.3910  0.0013
17741TIP3    H174714   1.923   4.998  13.663  2.6399 -0.5872  0.2909
17741TIP3    H274715   1.967   5.022  13.806  0.7934  1.7215  0.5293
17742TIP3   OH274716   1.995   4.593  12.426  0.2629 -0.2795  0.1184
17742TIP3    H174717   2.004   4.653  12.353  0.2328  0.3264  0.6004
17742TIP3    H274718   1.906   4.558  12.418  0.4367 -0.6046 -0.4157
17743TIP3   OH274719   5.483   1.891  12.189  0.2094  0.0591  0.1262
17743TIP3    H174720   5.406   1.947  12.187  0.2339  0.1477  1.1928
17743TIP3    H274721   5.482   1.846  12.105 -1.2377 -0.2440  0.2810
17744TIP3   OH274722   5.767   3.592  14.069  0.5393  0.3707 -0.1949
17744TIP3    H174723   5.855   3.628  14.083  0.0597  0.8117  1.9764
17744TIP3    H274724   5.717   3.665  14.031  0.4868  0.9281  0.9044
17745TIP3   OH274725   5.431   1.338   5.548 -0.1987  0.4274  0.5542
17745TIP3    H174726   5.370   1.359   5.619 -1.3713  0.3601 -0.4151
17745TIP3    H274727   5.414   1.404   5.481 -0.3835 -0.5841 -0.4211
17746TIP3   OH274728   1.661   5.281  14.394 -0.2611 -0.0824 -0.9813
17746TIP3    H174729   1.579   5.331  14.399  0.0808  0.4556 -0.8180
17746TIP3    H274730   1.658   5.223  14.470 -0.6497 -0.3128 -1.1647
17747TIP3   OH274731   6.395   3.622  16.922  0.4452 -0.7907 -0.2052
17747TIP3    H174732   6.318   3.679  16.922 -0.6442 -2.2123  0.4822
17747TIP3    H274733   6.431   3.630  17.010  0.1071 -1.3822 -0.0075
17748TIP3   OH274734   5.336   2.308   2.514  0.1016  0.2432  0.3049
17748TIP3    H174735   5.388   2.291   2.593  1.1998  1.1004 -0.2179
17748TIP3    H274736   5.400   2.333   2.448 -0.7719 -0.7302 -0.9607
17749TIP3   OH274737   2.023   6.322  10.445 -0.4098  0.8586  0.5452
17749TIP3    H174738   2.022   6.323  10.541  2.3387 -0.6346  0.7057
17749TIP3    H274739   2.055   6.409  10.420 -1.3750  1.3369  0.9538
17750TIP3   OH274740   5.211   6.654   4.999  0.6688  0.4612 -0.2322
17750TIP3    H174741   5.253   6.571   5.021  0.5005  0.5676  0.5101
17750TIP3    H274742   5.207   6.702   5.081  2.9865  2.2290 -1.0332
17751TIP3   OH274743   1.781   3.852   4.748  0.1344  0.1480  0.3045
17751TIP3    H174744   1.706   3.814   4.792 -0.3638 -0.4579 -1.0171
17751TIP3    H274745   1.818   3.914   4.811 -1.0650 -0.0482  1.2165
17752TIP3   OH274746   5.211   3.562  12.980  0.6014 -0.0481 -0.2152
17752TIP3    H174747   5.129   3.540  12.934 -0.9268  1.0098  1.8200
17752TIP3    H274748   5.251   3.477  12.999 -0.7511 -0.6763 -0.0370
17753TIP3   OH274749   6.299   3.851  11.416 -0.4615 -0.1589 -0.3240
17753TIP3    H174750   6.328   3.936  11.383 -0.5902 -0.2042 -0.5550
17753TIP3    H274751   6.284   3.798  11.337  0.2764 -0.6190 -0.1669
17754TIP3   OH274752   4.789   4.787   2.219  0.1229 -0.8269  0.7740
17754TIP3    H174753   4.823   4.814   2.134 -1.1748  0.4985  0.6246
17754TIP3    H274754   4.849   4.718   2.249  1.9878  0.3284 -0.1172
17755TIP3   OH274755   5.210   2.303   2.887 -0.1298  0.0869  0.3569
17755TIP3    H174756   5.164   2.359   2.825  0.0795 -1.0768 -0.8852
17755TIP3    H274757   5.162   2.220   2.885  0.5309 -0.3238  0.9382
17756TIP3   OH274758   4.701   5.769  15.950 -0.4179 -0.2840  0.2259
17756TIP3    H174759   4.614   5.736  15.972 -0.4909  0.2030  0.6942
17756TIP3    H274760   4.702   5.859  15.985  0.3190 -0.3353  0.3528
17757TIP3   OH274761   4.281   4.779  14.628 -0.1700  0.2245  0.5347
17757TIP3    H174762   4.220   4.713  14.597 -1.3545  1.1418  0.8211
17757TIP3    H274763   4.288   4.764  14.722  0.4635 -0.1998  0.4259
17758TIP3   OH274764   3.232   6.088  13.491  0.3828  0.1474  0.3991
17758TIP3    H174765   3.229   6.102  13.586  1.1559  1.9051  0.1975
17758TIP3    H274766   3.323   6.063  13.474  0.4152  0.5342  0.0234
17759TIP3   OH274767   0.494   0.630   5.595 -0.1724  0.3112  0.4121
17759TIP3    H174768   0.472   0.722   5.578 -3.2211 -0.4420 -0.2140
17759TIP3    H274769   0.488   0.621   5.690 -2.6797  0.1967  0.2901
17760TIP3   OH274770   3.936   1.108   1.375  0.1339 -0.2618 -0.4550
17760TIP3    H174771   3.927   1.014   1.360  0.0117 -0.2844 -0.2451
17760TIP3    H274772   4.019   1.118   1.422 -0.1772 -0.3308  0.1129
17761TIP3   OH274773   5.598   5.792  14.567  0.4978  0.5797  0.2479
17761TIP3    H174774   5.630   5.776  14.478  1.1353  3.5351 -0.1427
17761TIP3    H274775   5.509   5.827  14.554  0.3263  0.3689  0.8279
17762TIP3   OH274776   3.661   1.047  14.310 -0.0541  0.1277  0.3382
17762TIP3    H174777   3.609   1.060  14.230 -0.1775 -0.8751  0.2488
17762TIP3    H274778   3.596   1.030  14.378  0.0458  1.0724  0.6855
17763TIP3   OH274779   2.429   2.968  15.619  0.4551  0.4026  0.0054
17763TIP3    H174780   2.418   3.046  15.673 -3.0082  0.2514 -0.2502
17763TIP3    H274781   2.414   2.895  15.680  1.2747  0.0146 -0.2455
17764TIP3   OH274782   1.916   3.978   4.974 -0.4463 -0.3701 -0.3065
17764TIP3    H174783   1.889   4.016   5.058 -1.8273  1.6930 -1.6122
17764TIP3    H274784   1.929   3.885   4.994  0.0418  0.1807  2.3511
17765TIP3   OH274785   0.043   0.164  12.768 -0.1406 -0.5877  0.5403
17765TIP3    H174786  -0.049   0.157  12.743 -0.2404  0.7028  0.4965
17765TIP3    H274787   0.060   0.258  12.774  1.7019 -0.7375 -1.3640
17766TIP3   OH274788   4.086   6.115  16.539 -0.2583 -0.2896  0.5759
17766TIP3    H174789   4.064   6.047  16.604 -1.2769 -1.4236 -0.8812
17766TIP3    H274790   4.002   6.155  16.518  0.1239  0.3448  0.2385
17767TIP3   OH274791   3.682   3.733  13.028 -0.2460 -0.0266  0.0194
17767TIP3    H174792   3.632   3.667  13.076 -1.4566 -0.4188 -1.6883
17767TIP3    H274793   3.733   3.778  13.095  2.4178 -4.1147  1.0526
17768TIP3   OH274794   2.758   0.822   1.771  0.0938  0.2753  0.2545
17768TIP3    H174795   2.726   0.735   1.792 -0.3640  0.5863  0.8810
17768TIP3    H274796   2.683   0.880   1.783  0.3181  0.7205 -0.4269
17769TIP3   OH274797   3.747   5.861   5.418  0.2103  0.3329 -0.6664
17769TIP3    H174798   3.830   5.861   5.466 -0.0367 -1.0432 -0.1896
17769TIP3    H274799   3.680   5.858   5.486 -0.1818 -0.0822 -1.0618
17770TIP3   OH274800   0.403   2.259   5.724  0.0210 -0.0900 -0.1097
17770TIP3    H174801   0.387   2.213   5.641  1.4748 -1.6884  0.4406
17770TIP3    H274802   0.354   2.207   5.789 -0.4702  0.6992  0.1597
17771TIP3   OH274803   2.890   5.295  16.165  0.0098  0.5987  0.6338
17771TIP3    H174804   2.973   5.325  16.130 -0.5289 -0.3779 -1.6715
17771TIP3    H274805   2.908   5.206  16.197 -0.2002  0.2050 -0.2929
17772TIP3   OH274806   6.164   0.358   2.511 -0.0569 -0.2038 -0.4049
17772TIP3    H174807   6.087   0.301   2.512 -1.3084  1.3509  1.7230
17772TIP3    H274808   6.147   0.420   2.441  0.3597 -1.1846 -1.4040
17773TIP3   OH274809   4.916   3.752  13.995 -0.5135  0.6580 -0.2307
17773TIP3    H174810   4.831   3.714  14.015 -0.3926 -0.5511 -1.8036
17773TIP3    H274811   4.895   3.835  13.951 -0.8839  0.4166 -0.5152
17774TIP3   OH274812   3.462   3.835  15.796 -0.2688 -0.2171  0.4367
17774TIP3    H174813   3.383   3.812  15.747 -0.7563  0.6999  0.7628
17774TIP3    H274814   3.431   3.895  15.863  0.6666 -0.0974  0.7684
17775TIP3   OH274815   3.721   0.878  13.428 -0.1245 -0.1683 -0.3202
17775TIP3    H174816   3.809   0.884  13.391  0.3547  0.3307  0.8309
17775TIP3    H274817   3.734   0.832  13.511 -1.1051 -0.9708 -0.5940
17776TIP3   OH274818   3.475   2.441  14.661  0.3730 -0.7397 -0.1937
17776TIP3    H174819   3.521   2.524  14.646  0.9311 -0.8444  0.8754
17776TIP3    H274820   3.469   2.402  14.574 -2.2541  1.5876 -1.2037
17777TIP3   OH274821   0.113   2.068   3.018  0.4690  0.0090  0.4716
17777TIP3    H174822   0.176   2.042   3.085 -2.0369 -0.9613  2.6619
17777TIP3    H274823   0.124   2.005   2.947  2.5034  0.4155  0.3914
17778TIP3   OH274824   6.666   2.997   0.959  0.4533 -0.3435  0.1322
17778TIP3    H174825   6.679   3.026   1.049 -0.1321  2.2571 -0.5580
17778TIP3    H274826   6.624   3.071   0.915 -1.5119 -2.3975 -1.7134
17779TIP3   OH274827   2.337   4.584  15.478  0.1708  0.1210 -0.1295
17779TIP3    H174828   2.250   4.602  15.441  0.1405 -1.7453 -1.0975
17779TIP3    H274829   2.338   4.631  15.561 -1.2312  1.3126 -0.7400
17780TIP3   OH274830   0.032   6.511   1.079 -0.0670 -0.1748  0.1149
17780TIP3    H174831   0.100   6.448   1.103  0.5594  0.4896  0.1136
17780TIP3    H274832  -0.043   6.486   1.133  0.0002 -1.2280 -0.2498
17781TIP3   OH274833   0.060   0.392   5.231  0.1120 -0.2002  0.0191
17781TIP3    H174834   0.082   0.432   5.147  1.5127 -1.6385 -0.3415
17781TIP3    H274835   0.035   0.465   5.287 -0.0166  0.8691 -1.3931
17782TIP3   OH274836   0.430   2.449  14.710  0.3650 -0.1908  0.2341
17782TIP3    H174837   0.478   2.381  14.757  3.6772  1.2973 -0.7355
17782TIP3    H274838   0.410   2.409  14.625  0.1402 -0.7065  0.5213
17783TIP3   OH274839   5.112   6.269  14.446  0.6985 -0.2689  0.3134
17783TIP3    H174840   5.091   6.278  14.539 -0.5187 -0.9246  0.1215
17783TIP3    H274841   5.201   6.232  14.445  1.3299  1.1287  1.1779
17784TIP3   OH274842   5.324   3.367  16.869  0.2368  0.0173  0.0783
17784TIP3    H174843   5.369   3.377  16.785  2.4282  0.6467  1.2466
17784TIP3    H274844   5.310   3.457  16.899  1.2199 -0.1907  1.2210
17785TIP3   OH274845   5.903   0.062  12.371  0.4679 -0.0091 -0.2927
17785TIP3    H174846   5.964  -0.004  12.404 -0.6411 -0.9874 -0.1764
17785TIP3    H274847   5.822   0.015  12.355 -0.0763  1.1495 -1.0868
17786TIP3   OH274848   3.791   5.800  14.495 -0.3528  0.1052  0.0931
17786TIP3    H174849   3.833   5.874  14.451 -0.5993 -0.1456 -0.5751
17786TIP3    H274850   3.845   5.785  14.573 -1.0092  1.7750  0.9188
17787TIP3   OH274851   4.009   2.285  13.521  0.4793 -0.0904 -0.1193
17787TIP3    H174852   3.999   2.295  13.616  1.2521  0.9806 -0.1241
17787TIP3    H274853   4.081   2.224  13.511 -0.4402 -1.2136 -0.0369
17788TIP3   OH274854   0.508   6.110  16.529  0.0542 -0.2180  0.7026
17788TIP3    H174855   0.424   6.065  16.529  0.5370 -1.1615  1.6689
17788TIP3    H274856   0.541   6.100  16.618 -0.3551  3.1430  1.3679
17789TIP3   OH274857   2.958   4.207  15.708  0.1448 -0.0758 -0.3420
17789TIP3    H174858   3.051   4.192  15.690  0.2880 -1.5895  1.2944
17789TIP3    H274859   2.957   4.254  15.791 -0.5529 -0.2041 -0.2710
17790TIP3   OH274860   6.134   6.667  14.445  0.2576 -0.4407  0.0575
17790TIP3    H174861   6.179   6.714  14.375  0.0752 -0.1794  0.1118
17790TIP3    H274862   6.200   6.659  14.515 -0.1519  1.1658  0.6968
17791TIP3   OH274863   0.159   5.791   2.155 -0.1927 -0.3298 -0.3782
17791TIP3    H174864   0.211   5.826   2.227  0.2760  0.3096 -1.0234
17791TIP3    H274865   0.170   5.696   2.161 -0.6563 -0.3297  0.7638
17792TIP3   OH274866   5.283   6.722  16.088  0.0758  0.1190 -0.3136
17792TIP3    H174867   5.223   6.776  16.038 -0.5753  0.6254  0.9526
17792TIP3    H274868   5.286   6.639  16.041 -2.0423 -0.1021 -0.1625
17793TIP3   OH274869   6.270   3.289   1.014  0.0676 -0.0088 -0.0593
17793TIP3    H174870   6.303   3.343   1.086  1.8272  0.9470 -1.4983
17793TIP3    H274871   6.244   3.207   1.055  2.8145 -0.2226  1.4622
17794TIP3   OH274872   1.009   5.986  14.726 -0.5941 -0.5445  0.2682
17794TIP3    H174873   1.055   5.938  14.656  1.0670  1.1116  0.1622
17794TIP3    H274874   0.975   5.917  14.783 -1.1941 -1.9284 -1.6360
17795TIP3   OH274875   4.504   3.337   6.310  0.5950  0.7498 -0.2324
17795TIP3    H174876   4.488   3.418   6.357  2.1448  1.2708 -0.5483
17795TIP3    H274877   4.501   3.269   6.377  1.2131  1.3055  0.3774
17796TIP3   OH274878   2.610   4.463   2.994  0.2326  0.0410  0.2091
17796TIP3    H174879   2.642   4.395   3.053  0.4182 -0.9486 -0.9686
17796TIP3    H274880   2.684   4.522   2.981  0.7161 -0.6618 -0.3029
17797TIP3   OH274881   3.404   0.588  15.624  0.8137 -0.5282  0.0178
17797TIP3    H174882   3.371   0.676  15.643  0.2908 -1.1576  2.3866
17797TIP3    H274883   3.451   0.597  15.541  0.9240  2.0146  0.2802
17798TIP3   OH274884   6.078   1.062   2.785 -0.0743  0.4563  0.1023
17798TIP3    H174885   6.086   1.103   2.699  1.2377  0.3407  0.1605
17798TIP3    H274886   6.108   0.972   2.772 -0.2481  0.3237  0.5989
17799TIP3   OH274887   6.068   6.190   2.518 -0.5117  0.3360 -0.4213
17799TIP3    H174888   5.993   6.139   2.488  0.3811 -1.0290 -0.4252
17799TIP3    H274889   6.033   6.278   2.534 -1.3977  0.7068 -3.7789
17800TIP3   OH274890   0.706   6.611   1.529 -0.5514 -0.2164 -0.3790
17800TIP3    H174891   0.661   6.682   1.575 -0.7762 -1.0687  0.7780
17800TIP3    H274892   0.697   6.633   1.437  0.4437  1.8749 -0.0407
17801TIP3   OH274893   4.185   0.641   2.078  0.1709 -0.5182 -0.2618
17801TIP3    H174894   4.256   0.584   2.109 -0.0487  0.0871  1.5161
17801TIP3    H274895   4.105   0.593   2.100 -0.0374  0.6378  1.8338
17802TIP3   OH274896   4.450   0.245  10.388  0.0901  0.4012  0.0119
17802TIP3    H174897   4.378   0.264  10.329 -0.0233  0.6385  0.2241
17802TIP3    H274898   4.522   0.299  10.356  0.0442  0.4907  0.0589
17803TIP3   OH274899   4.926   5.310  12.896 -0.5350 -0.0140  0.1375
17803TIP3    H174900   4.853   5.250  12.912  0.1117 -0.9650 -0.3882
17803TIP3    H274901   4.963   5.281  12.813  2.1553 -1.3749  1.6794
17804TIP3   OH274902   4.257   6.273   0.762 -0.2371 -0.4183  0.1426
17804TIP3    H174903   4.234   6.269   0.854 -0.0872 -1.6755  0.1441
17804TIP3    H274904   4.193   6.334   0.724  0.4463  1.0735  1.2534
17805TIP3   OH274905   6.494   1.289   0.068  0.0104  0.2334  0.0650
17805TIP3    H174906   6.472   1.197   0.052  1.8017 -0.0502 -1.1149
17805TIP3    H274907   6.570   1.305   0.012  0.5204  2.0838  1.2030
17806TIP3   OH274908   3.138   3.512   6.831  0.3667 -0.2120 -0.1609
17806TIP3    H174909   3.098   3.426   6.849 -1.0823  0.7344  1.4696
17806TIP3    H274910   3.198   3.496   6.758  0.3765 -2.6787  0.3008
17807TIP3   OH274911   4.851   3.838  15.223  0.0368  0.5110  0.3813
17807TIP3    H174912   4.787   3.809  15.288  0.5965  2.7476  2.0544
17807TIP3    H274913   4.919   3.882  15.274  0.7215  1.9951 -1.6721
17808TIP3   OH274914   3.459   5.497   6.373 -0.0786 -0.1509 -0.0413
17808TIP3    H174915   3.466   5.566   6.306  0.2393  0.7040  0.8484
17808TIP3    H274916   3.549   5.468   6.387  0.2580  1.6816  2.0295
17809TIP3   OH274917   4.635   4.458   1.720 -0.3066 -0.5918  0.3028
17809TIP3    H174918   4.558   4.447   1.665  1.3839  0.5152 -2.5121
17809TIP3    H274919   4.699   4.396   1.685  0.6456 -0.3385  1.5043
17810TIP3   OH274920   3.421   1.879   3.834 -0.1465  0.3073  0.7973
17810TIP3    H174921   3.346   1.872   3.775 -0.7194  0.9891  1.4350
17810TIP3    H274922   3.474   1.950   3.797  1.8164 -2.0533 -1.3927
17811TIP3   OH274923   0.533   5.612  15.171  0.4363 -0.6241 -0.3636
17811TIP3    H174924   0.592   5.687  15.175 -1.3556  0.8184  0.5306
17811TIP3    H274925   0.492   5.608  15.258 -0.6661 -1.6561 -0.8867
17812TIP3   OH274926   5.422   0.167   5.824  0.2916  0.5280  0.7945
17812TIP3    H174927   5.494   0.211   5.871 -0.6198  0.7833  2.0165
17812TIP3    H274928   5.404   0.089   5.877  0.5621 -0.2639 -0.2593
17813TIP3   OH274929   1.114   5.562   2.538 -0.3216 -0.8714  0.2551
17813TIP3    H174930   1.044   5.559   2.603 -0.5141  0.6210  0.1355
17813TIP3    H274931   1.188   5.602   2.583 -0.3639 -0.0966 -0.3364
17814TIP3   OH274932   0.874   2.869  15.834 -0.0353 -0.5795 -0.0626
17814TIP3    H174933   0.872   2.887  15.928 -0.0625  1.3326 -0.3837
17814TIP3    H274934   0.787   2.833  15.814 -1.3089  2.1647  0.1385
17815TIP3   OH274935   1.173   1.802  17.093 -0.4124  0.0989  0.2647
17815TIP3    H174936   1.093   1.848  17.068 -0.8993 -1.2335 -0.7258
17815TIP3    H274937   1.236   1.824  17.023 -1.1238 -1.9070 -1.1024
17816TIP3   OH274938   0.428   3.485   1.045 -0.1858  0.6563  0.3856
17816TIP3    H174939   0.463   3.447   0.964  1.2048  2.6565 -0.0227
17816TIP3    H274940   0.448   3.420   1.112 -0.2745 -0.5029 -0.6620
17817TIP3   OH274941   3.083   1.902   1.977 -0.5172 -0.3408  0.7287
17817TIP3    H174942   3.175   1.878   1.983 -0.2111  0.8258  1.0759
17817TIP3    H274943   3.084   1.998   1.974 -1.7255 -0.3094  0.8811
17818TIP3   OH274944   4.601   4.036   1.933 -0.2906  0.8149 -0.2441
17818TIP3    H174945   4.664   3.988   1.878 -0.1520 -2.2441  2.3455
17818TIP3    H274946   4.523   4.044   1.878 -0.5946 -3.2022 -0.7149
17819TIP3   OH274947   3.217   4.116  12.179  0.4814 -0.1579  0.6689
17819TIP3    H174948   3.252   4.132  12.091  1.5415 -0.0543  1.0940
17819TIP3    H274949   3.135   4.165  12.181  0.3886 -0.2626 -0.3055
17820TIP3   OH274950   0.825   2.769   4.218  0.5103 -0.0917 -0.5435
17820TIP3    H174951   0.810   2.844   4.160  2.2654  0.3137 -0.5079
17820TIP3    H274952   0.829   2.807   4.306  0.4479 -0.3642 -0.4200
17821TIP3   OH274953   4.673   2.931   5.734  0.1112  0.8209 -0.3424
17821TIP3    H174954   4.726   2.893   5.804 -0.6569  0.9619  0.3323
17821TIP3    H274955   4.657   3.021   5.763 -1.9258  0.2916  0.3200
17822TIP3   OH274956   0.423   0.747   3.041  0.2804 -0.2198 -0.2313
17822TIP3    H174957   0.471   0.740   2.959  2.0416  1.9981  0.5025
17822TIP3    H274958   0.339   0.787   3.017  0.9630  0.8337 -0.9260
17823TIP3   OH274959   4.714   1.883  15.545 -0.1099  0.1604  0.1894
17823TIP3    H174960   4.768   1.950  15.587 -1.7379  1.2273  0.6703
17823TIP3    H274961   4.706   1.911  15.454 -0.3002  0.2975  0.2483
17824TIP3   OH274962   3.883   6.396   4.935  0.7751  0.2699  0.2205
17824TIP3    H174963   3.879   6.416   5.028 -0.8620  0.0384  0.2256
17824TIP3    H274964   3.950   6.327   4.928 -1.3489 -2.1433  1.7445
17825TIP3   OH274965   4.662   2.467  15.632  0.0136 -0.3271  0.5019
17825TIP3    H174966   4.631   2.403  15.568 -1.3384 -0.8050  1.5921
17825TIP3    H274967   4.725   2.521  15.584 -0.1804 -1.3305 -0.9269
17826TIP3   OH274968   5.029   3.155   2.729  0.3069 -0.1345 -0.5235
17826TIP3    H174969   5.105   3.183   2.678  1.0797 -0.1589  0.5852
17826TIP3    H274970   4.954   3.186   2.678  1.0777  1.2031 -0.9086
17827TIP3   OH274971   4.317   4.946   1.868  0.1736 -0.0755  0.0372
17827TIP3    H174972   4.368   4.927   1.947  0.7467 -0.2390 -0.3657
17827TIP3    H274973   4.242   4.886   1.872  0.6082 -0.6246  0.0733
17828TIP3   OH274974   5.409   2.945   5.446  0.0148 -0.3011 -0.4183
17828TIP3    H174975   5.422   2.890   5.369  2.2927 -0.2621 -0.1401
17828TIP3    H274976   5.421   2.886   5.520  2.5476  0.4757 -0.1169
17829TIP3   OH274977   5.313   1.668  16.844  0.7709  0.0594  0.1808
17829TIP3    H174978   5.380   1.629  16.900  1.0224  0.5061  0.1965
17829TIP3    H274979   5.343   1.758  16.830  0.7099 -0.0401 -0.6686
17830TIP3   OH274980   4.063   0.234  14.481  0.1340 -0.1629  0.2486
17830TIP3    H174981   3.968   0.228  14.471  0.2652 -1.0339 -0.6850
17830TIP3    H274982   4.078   0.222  14.575 -0.7033  0.5003  0.4803
17831TIP3   OH274983   1.482   6.169   5.469  0.7228  0.1795 -0.5214
17831TIP3    H174984   1.538   6.208   5.402  0.7376  0.7131 -0.2012
17831TIP3    H274985   1.405   6.137   5.421  1.1410 -0.2557 -0.9146
17832TIP3   OH274986   6.499   1.019   4.726  0.0399 -0.4163  0.3478
17832TIP3    H174987   6.438   0.945   4.731 -0.7131  0.0512 -1.2703
17832TIP3    H274988   6.541   1.009   4.640 -0.5778  1.3794 -0.2048
17833TIP3   OH274989   3.461   4.134  11.318 -0.7462 -0.0386 -0.6607
17833TIP3    H174990   3.540   4.172  11.357 -1.4038  1.0139 -0.3207
17833TIP3    H274991   3.491   4.052  11.279  0.1651 -0.5612  1.0408
17834TIP3   OH274992   4.097   1.317  14.685 -0.1323  0.2504 -0.1597
17834TIP3    H174993   4.099   1.413  14.687 -0.5015  0.2465  0.6030
17834TIP3    H274994   4.107   1.295  14.592  2.1674  0.9611 -0.1210
17835TIP3   OH274995   0.808   3.051   1.317  0.1392 -0.0465  0.0852
17835TIP3    H174996   0.715   3.039   1.335  0.2187 -3.3310 -0.8984
17835TIP3    H274997   0.853   3.012   1.393  0.6350 -0.6840 -0.5149
17836TIP3   OH274998   2.721   5.694  15.011  0.2688 -0.2742 -0.2362
17836TIP3    H174999   2.727   5.667  15.102  1.0784 -0.7612 -0.4190
17836TIP3    H275000   2.803   5.665  14.972 -0.5770 -1.2118 -1.4177
17837TIP3   OH275001   3.845   3.659   5.510  0.3364 -0.5558  0.1518
17837TIP3    H175002   3.939   3.657   5.494  0.5808  2.2821  0.7396
17837TIP3    H275003   3.807   3.687   5.427  0.2036  0.0243  0.4022
17838TIP3   OH275004   0.013   1.313  14.578 -0.6987  0.2859 -0.3657
17838TIP3    H175005   0.054   1.368  14.645 -0.3844 -0.4385  0.0502
17838TIP3    H275006   0.049   1.225  14.594 -1.1996 -0.0427 -1.0052
17839TIP3   OH275007   3.297   2.056   3.491  0.4991 -0.4111  0.0329
17839TIP3    H175008   3.386   2.022   3.483  1.1843  1.5507 -1.9418
17839TIP3    H275009   3.255   2.033   3.408 -1.6109 -3.0248  1.6461
17840TIP3   OH275010   4.645   2.667   4.842 -0.0272 -0.0311  0.1318
17840TIP3    H175011   4.714   2.727   4.871 -1.4709  1.4141  0.6988
17840TIP3    H275012   4.564   2.707   4.872 -1.1163 -1.9002 -0.1441
17841TIP3   OH275013   6.595   2.815   5.655  0.4137 -0.4329  0.4830
17841TIP3    H175014   6.623   2.769   5.734  1.2794 -0.2250  0.3087
17841TIP3    H275015   6.674   2.821   5.602  0.0949  0.4247  0.0943
17842TIP3   OH275016   2.310   0.575   2.767  0.3223 -0.5858 -0.0732
17842TIP3    H175017   2.306   0.644   2.833 -0.7808  0.7537 -1.4973
17842TIP3    H275018   2.371   0.608   2.701 -0.6688 -0.6744 -1.0597
17843TIP3   OH275019   1.154   5.388  16.729  0.2086 -0.1107  0.3002
17843TIP3    H175020   1.066   5.361  16.754 -0.2471  0.6504 -0.4336
17843TIP3    H275021   1.144   5.479  16.699  1.0191 -0.4206 -0.9831
17844TIP3   OH275022   4.568   0.778   0.908 -0.3524  1.1041  0.0658
17844TIP3    H175023   4.525   0.699   0.939  0.7664  1.1067  1.7242
17844TIP3    H275024   4.622   0.807   0.981 -1.5995  4.0765 -0.0220
17845TIP3   OH275025   2.952   3.355  11.458 -0.5077  0.2377  0.4898
17845TIP3    H175026   3.042   3.348  11.489 -0.9151 -2.0298  1.3335
17845TIP3    H275027   2.960   3.384  11.367  0.9201  2.3090  1.1991
17846TIP3   OH275028   4.150   5.433  13.472 -0.2689 -0.1774  0.9184
17846TIP3    H175029   4.223   5.482  13.434 -1.1491  0.9299  0.5997
17846TIP3    H275030   4.152   5.348  13.428 -1.3792  1.1224 -1.8327
17847TIP3   OH275031   3.592   0.157   0.747  0.3092  0.5835 -0.2598
17847TIP3    H175032   3.500   0.176   0.733 -0.2355 -0.2220  1.7883
17847TIP3    H275033   3.628   0.237   0.786  0.0084  0.2736  0.6737
17848TIP3   OH275034   1.885   6.363   5.735 -0.1103 -0.3310  0.2029
17848TIP3    H175035   1.860   6.294   5.674  0.9413  0.8770 -1.6780
17848TIP3    H275036   1.823   6.434   5.717  0.3604  0.1213  0.3716
17849TIP3   OH275037   3.093   3.072  12.545 -0.1034  0.7812 -0.2197
17849TIP3    H175038   3.174   3.079  12.496  0.8309 -1.1826  0.9637
17849TIP3    H275039   3.027   3.050  12.479  0.9635 -0.9595 -0.7687
17850TIP3   OH275040   1.128   4.115  11.726  0.2543 -0.1791  0.0770
17850TIP3    H175041   1.052   4.151  11.682  1.0682 -0.3066 -1.5274
17850TIP3    H275042   1.132   4.024  11.697  0.7999 -0.2771  0.4320
17851TIP3   OH275043   6.260   2.454   4.218  0.4375  0.8659  0.6805
17851TIP3    H175044   6.275   2.413   4.303  1.9402  1.3117  0.6679
17851TIP3    H275045   6.200   2.526   4.235 -0.5886 -0.0544  1.0561
17852TIP3   OH275046   6.018   4.422  11.764 -0.2888 -0.0045 -0.3429
17852TIP3    H175047   6.062   4.436  11.848 -1.0937 -0.8427  0.2409
17852TIP3    H275048   5.925   4.425  11.785 -0.5586  1.6229 -1.5334
17853TIP3   OH275049   1.486   6.046  13.613  0.1559  0.0470  0.1077
17853TIP3    H175050   1.565   6.006  13.577 -1.1786 -0.7324 -2.1515
17853TIP3    H275051   1.416   5.985  13.592 -1.2090  1.1125  1.2962
17854TIP3   OH275052   2.135   5.398  16.506  0.6087  0.7302 -0.3640
17854TIP3    H175053   2.061   5.369  16.560 -0.3383 -0.6893 -2.3005
17854TIP3    H275054   2.205   5.336  16.525  0.4693  0.5819 -0.3335
17855TIP3   OH275055   5.044   0.924  16.151 -0.0823 -0.1955 -0.1603
17855TIP3    H175056   5.028   0.835  16.184 -0.7405 -0.0886 -0.1727
17855TIP3    H275057   5.054   0.977  16.230  0.5239 -0.3165 -0.1539
17856TIP3   OH275058   0.072   6.168  14.952 -0.2359  0.1889  1.2045
17856TIP3    H175059   0.011   6.100  14.979 -0.9465  0.8289  1.2521
17856TIP3    H275060   0.017   6.245  14.938  0.4939  0.6349  0.7205
17857TIP3   OH275061   2.886   1.620  14.000  0.2040 -0.2651 -0.1287
17857TIP3    H175062   2.910   1.568  13.923 -1.2220  1.2969 -1.7088
17857TIP3    H275063   2.876   1.709  13.967 -0.5289  0.4486  1.8668
17858TIP3   OH275064   1.578   3.976   5.108  0.5605  0.0220 -0.2287
17858TIP3    H175065   1.563   3.981   5.013  0.4999  1.0894 -0.1729
17858TIP3    H275066   1.659   4.026   5.122  0.3658  0.1884  0.3221
17859TIP3   OH275067   5.730   4.680   5.469  0.3338 -0.5979  0.6249
17859TIP3    H175068   5.794   4.609   5.457  0.0820 -0.7803  0.3292
17859TIP3    H275069   5.681   4.681   5.387 -2.1590 -2.5601  1.9678
17860TIP3   OH275070   2.682   0.861  16.426 -0.0245 -0.8330 -0.2355
17860TIP3    H175071   2.646   0.880  16.339 -1.0041  0.3244  0.3886
17860TIP3    H275072   2.730   0.941  16.449  0.8982 -1.4355 -0.0301
17861TIP3   OH275073   4.503   1.680  16.329  0.4372  0.3180  0.5881
17861TIP3    H175074   4.485   1.607  16.387 -0.4853  0.1255  0.0878
17861TIP3    H275075   4.455   1.659  16.249  0.1015  1.4906  0.4619
17862TIP3   OH275076   6.591   6.654  15.140  0.2657  0.2099 -0.5654
17862TIP3    H175077   6.668   6.603  15.113  0.0550 -0.0640 -0.6550
17862TIP3    H275078   6.603   6.669  15.233  1.7638  2.4575 -1.0523
17863TIP3   OH275079   2.431   4.037  12.826  0.4418 -0.1681  0.3056
17863TIP3    H175080   2.459   3.988  12.749  1.5197  0.5710  0.2092
17863TIP3    H275081   2.494   4.108  12.834  0.9516 -0.7853  2.4552
17864TIP3   OH275082   5.428   3.955   1.783  0.3943 -0.1778  0.4847
17864TIP3    H175083   5.358   3.986   1.726  0.7598 -0.1602  0.0431
17864TIP3    H275084   5.507   3.996   1.748  0.5651  0.1584  1.2462
17865TIP3   OH275085   5.332   5.974   2.301 -0.4599 -0.4167 -0.0686
17865TIP3    H175086   5.247   5.931   2.313 -0.0132 -1.4080 -0.4085
17865TIP3    H275087   5.332   6.003   2.210 -1.1961  1.3143  0.4334
17866TIP3   OH275088   1.690   3.070   1.786 -0.2717 -0.0414 -0.1256
17866TIP3    H175089   1.642   3.152   1.775 -1.4987 -0.9366 -1.9958
17866TIP3    H275090   1.684   3.051   1.879 -2.8880  0.3223 -0.1448
17867TIP3   OH275091   4.392   5.012  15.996 -0.3440 -0.1578  0.0794
17867TIP3    H175092   4.455   5.084  15.991 -1.7978  1.1127 -1.0337
17867TIP3    H275093   4.313   5.052  16.033 -0.6292 -1.6429  1.1892
17868TIP3   OH275094   5.653   0.850  11.755  0.2766 -0.0560  0.2404
17868TIP3    H175095   5.651   0.940  11.724  2.6704  0.1699  0.5205
17868TIP3    H275096   5.730   0.811  11.712  1.1980 -0.9621  2.5334
17869TIP3   OH275097   6.321   2.594   4.873  0.7490 -0.5474 -0.2662
17869TIP3    H175098   6.243   2.544   4.895  0.8373  0.2668  2.3239
17869TIP3    H275099   6.386   2.568   4.938  1.0979  2.1213  0.5999
17870TIP3   OH275100   3.246   1.853   0.972 -0.0802 -0.0560  0.2755
17870TIP3    H175101   3.303   1.907   1.028 -0.5194  2.6823 -1.7291
17870TIP3    H275102   3.300   1.777   0.951  2.1643  1.4865  0.0348
17871TIP3   OH275103   0.601   6.741   0.765  0.3681  0.2126  0.2072
17871TIP3    H175104   0.635   6.695   0.688  0.3401 -0.8874  0.8408
17871TIP3    H275105   0.514   6.770   0.738 -0.3603 -1.6836  0.3675
17872TIP3   OH275106   3.929   6.545   4.554  0.5140 -0.2845  0.3346
17872TIP3    H175107   3.925   6.565   4.648  0.5927 -1.4106  0.5892
17872TIP3    H275108   3.907   6.452   4.548  0.0153 -0.1151 -0.8168
17873TIP3   OH275109   4.062   3.486   3.004 -0.2171  0.2872  0.1414
17873TIP3    H175110   4.061   3.538   3.084  1.4892 -0.3791  0.6500
17873TIP3    H275111   4.045   3.396   3.033  0.1991  0.0723 -0.2496
17874TIP3   OH275112   0.632   2.512  13.057 -0.2718  0.9210  0.4759
17874TIP3    H175113   0.691   2.508  12.982 -2.0709  1.1530 -1.0035
17874TIP3    H275114   0.607   2.421  13.073  0.6952  0.7840  1.3169
17875TIP3   OH275115   2.531   4.587  16.889  0.2451  0.2898 -0.5271
17875TIP3    H175116   2.595   4.658  16.882 -1.6266  1.9112 -2.5217
17875TIP3    H275117   2.449   4.631  16.916 -1.6951 -0.4857 -4.4783
17876TIP3   OH275118   2.286   4.212   2.482 -0.0401 -0.3203  0.6828
17876TIP3    H175119   2.191   4.205   2.489 -0.2942 -1.9830 -2.4233
17876TIP3    H275120   2.319   4.132   2.523 -0.0428 -0.1737  0.9716
17877TIP3   OH275121   4.652   2.538  14.442  0.4735  0.9804 -0.0858
17877TIP3    H175122   4.694   2.617  14.475 -0.9447  0.1539  4.4160
17877TIP3    H275123   4.713   2.467  14.464 -0.4919  0.3916  0.7983
17878TIP3   OH275124   4.588   4.073  11.670 -0.3742 -0.1364 -0.0419
17878TIP3    H175125   4.613   4.013  11.741 -0.1681 -1.1372 -0.9403
17878TIP3    H275126   4.562   4.016  11.598  0.1586  0.8555 -1.0484
17879TIP3   OH275127   2.142   4.702   2.033  0.2355 -0.5782 -0.3261
17879TIP3    H175128   2.118   4.785   1.992  0.0240  0.0646  1.0497
17879TIP3    H275129   2.106   4.635   1.975 -1.1201  0.3089 -0.5490
17880TIP3   OH275130   6.123   3.387   3.767 -0.0840 -0.0037 -0.7404
17880TIP3    H175131   6.046   3.380   3.824  0.0168 -0.4262 -0.6497
17880TIP3    H275132   6.111   3.317   3.703  0.7882 -0.8201 -0.0390
17881TIP3   OH275133   5.804   5.043   5.408  0.0208  0.1201  0.1159
17881TIP3    H175134   5.737   5.050   5.340  2.0632  1.2148 -1.9459
17881TIP3    H275135   5.855   4.966   5.384  1.4174  1.1220 -0.2957
17882TIP3   OH275136   2.260   4.420  11.757 -0.4869 -0.3134  0.1047
17882TIP3    H175137   2.332   4.372  11.716 -1.0543 -0.9880 -0.1354
17882TIP3    H275138   2.288   4.433  11.847 -1.1030 -2.8520  0.7418
17883TIP3   OH275139   2.838   1.522  16.429 -0.1112  0.5622  0.7468
17883TIP3    H175140   2.926   1.489  16.448 -0.3618  0.1309  1.2078
17883TIP3    H275141   2.795   1.450  16.383 -0.0975  0.9204  0.1695
17884TIP3   OH275142   1.336   2.690  11.907 -0.1777 -0.1611 -1.1291
17884TIP3    H175143   1.329   2.595  11.914 -0.9797  0.0192  1.2435
17884TIP3    H275144   1.247   2.720  11.888 -0.3731  0.2146  0.2494
17885TIP3   OH275145   4.336   0.663   4.934  0.6477 -0.0765 -0.1746
17885TIP3    H175146   4.425   0.666   4.897  0.6037  1.3855 -0.2306
17885TIP3    H275147   4.289   0.732   4.886  0.2978  1.1709  1.8543
17886TIP3   OH275148   2.714   0.788   2.791  0.2986  0.4530  0.7168
17886TIP3    H175149   2.791   0.778   2.736  1.6435  1.4689  2.3115
17886TIP3    H275150   2.658   0.849   2.744  0.7129  0.1350 -0.2050
17887TIP3   OH275151   5.403   1.307   4.638 -0.6257  0.0901 -0.6168
17887TIP3    H175152   5.334   1.245   4.661  0.9563 -2.2220 -1.6867
17887TIP3    H275153   5.366   1.359   4.566 -1.4785 -0.6985 -0.7710
17888TIP3   OH275154   6.144   1.877  17.005  0.4789 -0.0157  0.5817
17888TIP3    H175155   6.114   1.861  16.915  1.5024  1.9726 -0.1803
17888TIP3    H275156   6.076   1.838  17.060  0.0891 -1.7605 -1.0274
17889TIP3   OH275157   2.213   6.388   0.051  0.2990  0.1889 -0.5606
17889TIP3    H175158   2.159   6.311   0.070 -1.6932  1.3834 -1.1880
17889TIP3    H275159   2.202   6.402  -0.043  3.1984 -0.5691 -1.1318
17890TIP3   OH275160   5.331   4.271  12.911 -0.6677 -0.3479 -0.3052
17890TIP3    H175161   5.310   4.317  12.992 -0.0366 -0.2397 -0.2000
17890TIP3    H275162   5.296   4.183  12.924 -1.1539 -0.1407 -0.1837
17891TIP3   OH275163   5.054   0.145  14.954 -0.1034 -0.1457  0.0342
17891TIP3    H175164   4.964   0.170  14.974  0.1655  0.8984 -0.0269
17891TIP3    H275165   5.066   0.061  14.998 -1.0470 -0.2063  0.1940
17892TIP3   OH275166   5.828   3.200   5.897  0.1114 -0.0560 -0.4886
17892TIP3    H175167   5.901   3.258   5.874  0.4507  0.4816  1.6885
17892TIP3    H275168   5.751   3.256   5.891  0.3530  0.4667  0.8583
17893TIP3   OH275169   1.307   1.385  14.938  0.5591 -0.3592  0.0842
17893TIP3    H175170   1.236   1.404  15.000  0.4439  2.3971 -0.7445
17893TIP3    H275171   1.262   1.350  14.861 -0.0732  1.7381 -0.5884
17894TIP3   OH275172   3.709   5.268   2.439  0.3142  0.3849 -0.4091
17894TIP3    H175173   3.663   5.291   2.359  0.5484  0.2733 -0.5789
17894TIP3    H275174   3.689   5.338   2.500 -1.0551 -0.2569 -0.0837
17895TIP3   OH275175   5.308   1.644  15.668 -0.0096  0.1387 -0.2383
17895TIP3    H175176   5.372   1.574  15.683 -2.1751 -2.0200 -0.3267
17895TIP3    H275177   5.323   1.705  15.740 -0.4547 -2.4436  2.2842
17896TIP3   OH275178   3.854   0.663  13.809 -0.1803  0.6123  0.1083
17896TIP3    H175179   3.852   0.589  13.869 -1.8286 -0.6338 -1.3768
17896TIP3    H275180   3.892   0.627  13.728 -0.4045  1.5605 -0.4359
17897TIP3   OH275181   2.566   4.745   4.579 -0.1320  0.3169  0.1750
17897TIP3    H175182   2.588   4.652   4.570  3.2020  1.0416 -0.5489
17897TIP3    H275183   2.600   4.770   4.665  0.4946  1.1718 -0.2983
17898TIP3   OH275184   0.193   1.498  11.853 -0.3464 -0.8363 -0.0773
17898TIP3    H175185   0.102   1.490  11.880 -0.0995 -0.0592  1.0773
17898TIP3    H275186   0.194   1.473  11.761 -2.1740  1.5174 -0.8282
17899TIP3   OH275187   6.730   5.350   0.545  0.4185 -0.2824 -0.0450
17899TIP3    H175188   6.753   5.298   0.623  0.8092  1.1933  0.8723
17899TIP3    H275189   6.727   5.440   0.577  0.7347  0.3802 -1.7921
17900TIP3   OH275190   5.209   3.809  13.395 -0.2292  0.3923  0.1804
17900TIP3    H175191   5.267   3.874  13.356 -1.4216  1.7097  0.5098
17900TIP3    H275192   5.153   3.781  13.323  0.5874 -0.6346 -0.0647
17901TIP3   OH275193   5.827   4.913   1.621 -0.2092 -0.1836  0.2403
17901TIP3    H175194   5.857   4.840   1.675 -0.8249  0.9549  2.2061
17901TIP3    H275195   5.852   4.991   1.670 -2.9222  0.8704  0.1068
17902TIP3   OH275196   0.330   4.340  13.203  0.0179 -0.2423 -0.1449
17902TIP3    H175197   0.249   4.385  13.231 -0.3823 -1.0369  0.0105
17902TIP3    H275198   0.304   4.289  13.127  0.3703 -0.5184 -0.0819
17903TIP3   OH275199   3.379   5.553   0.695 -0.0930 -0.4542  0.0555
17903TIP3    H175200   3.324   5.567   0.772  1.5197 -1.5078  1.4437
17903TIP3    H275201   3.421   5.638   0.680 -1.3022  0.0905 -0.4423
17904TIP3   OH275202   3.453   3.787  11.377  0.1614  0.5593  0.1873
17904TIP3    H175203   3.415   3.784  11.289 -0.1607  1.8876  0.2603
17904TIP3    H275204   3.505   3.868  11.378  1.8830 -0.5003  0.5556
17905TIP3   OH275205   3.202   5.529   3.909  0.1130 -0.1177 -0.0683
17905TIP3    H175206   3.196   5.434   3.914  2.3572 -0.3335 -0.3138
17905TIP3    H275207   3.292   5.546   3.882  0.5145  2.1298  2.2165
17906TIP3   OH275208   1.215   4.767   0.598  0.0197  0.2701 -0.5775
17906TIP3    H175209   1.200   4.821   0.520  1.3381  0.7242 -0.5423
17906TIP3    H275210   1.238   4.681   0.563  0.4061  0.4176 -0.6907
17907TIP3   OH275211   2.923   2.525  13.640  0.3344 -0.3209 -0.4803
17907TIP3    H175212   2.873   2.541  13.560  0.0146  0.2467 -0.1755
17907TIP3    H275213   2.907   2.432  13.660 -0.0910 -0.3042 -0.7292
17908TIP3   OH275214   6.282   5.721   4.661  0.2233  0.0758 -0.2228
17908TIP3    H175215   6.323   5.717   4.747 -1.0582 -0.0010  0.4112
17908TIP3    H275216   6.227   5.643   4.656 -0.4195  0.5430 -0.7322
17909TIP3   OH275217   3.076   4.917  12.294  0.0991  0.5242  0.2454
17909TIP3    H175218   3.126   4.994  12.318 -1.2173  1.1374  1.1258
17909TIP3    H275219   3.045   4.881  12.377 -2.3186  1.1570 -0.2978
17910TIP3   OH275220   2.899   3.277  17.013  0.3626 -0.3907 -0.1421
17910TIP3    H175221   2.828   3.247  16.955 -0.5755 -0.5189  1.0377
17910TIP3    H275222   2.934   3.355  16.969 -1.3356  0.4116 -0.1675
17911TIP3   OH275223   3.304   5.371   1.785 -0.4895 -0.0623  0.3936
17911TIP3    H175224   3.318   5.367   1.690  0.0955 -0.1748  0.4799
17911TIP3    H275225   3.219   5.413   1.795  0.1992  1.5465 -0.1368
17912TIP3   OH275226   1.929   4.831  16.370 -0.3442  0.2118  0.0998
17912TIP3    H175227   1.852   4.774  16.366  0.1200 -0.4218  0.0989
17912TIP3    H275228   1.936   4.868  16.282  1.1758 -2.1909 -0.8966
17913TIP3   OH275229   0.953   4.470  16.807 -0.2113 -0.2125 -0.0100
17913TIP3    H175230   0.907   4.478  16.724  0.2954  1.1814 -0.1795
17913TIP3    H275231   1.040   4.437  16.783  0.1254  0.7283 -0.1041
17914TIP3   OH275232   5.076   5.967   0.201 -0.3204  0.7225  0.3870
17914TIP3    H175233   5.001   5.961   0.260  0.0598  1.5322  0.9580
17914TIP3    H275234   5.044   6.017   0.126  0.1184  2.5858  1.4084
17915TIP3   OH275235   6.238   3.600  11.586 -0.3251 -0.1864  0.1525
17915TIP3    H175236   6.244   3.691  11.557  2.5263  0.6612  2.8661
17915TIP3    H275237   6.304   3.554  11.535  1.1268  0.2227  1.5907
17916TIP3   OH275238   0.009   3.953  14.289 -0.3602  0.2483  0.1291
17916TIP3    H175239   0.081   3.949  14.352 -0.1204  2.7665  0.1297
17916TIP3    H275240   0.049   3.930  14.205  0.0213 -0.1125  0.4051
17917TIP3   OH275241   3.376   5.048   1.721 -0.1525  0.0569  0.0410
17917TIP3    H175242   3.289   5.083   1.699  0.1584  0.2826 -0.8694
17917TIP3    H275243   3.436   5.121   1.704  0.2220 -0.1133  0.6166
17918TIP3   OH275244   4.449   2.916  11.682 -0.0070 -0.3287 -0.3284
17918TIP3    H175245   4.431   2.954  11.596  0.7590  0.3670 -0.1990
17918TIP3    H275246   4.419   2.982  11.745  0.7222 -0.2095 -0.0888
17919TIP3   OH275247   1.796   1.206  16.277 -0.0890  0.1980 -0.2029
17919TIP3    H175248   1.807   1.294  16.313  0.9292 -0.0675  0.1729
17919TIP3    H275249   1.717   1.212  16.223 -2.1798  0.4321  2.6521
17920TIP3   OH275250   2.848   4.702  13.642 -0.5351  0.3639 -0.2303
17920TIP3    H175251   2.849   4.606  13.644 -0.8324  0.3649 -0.0056
17920TIP3    H275252   2.843   4.724  13.549 -0.0051  0.1666 -0.3102
17921TIP3   OH275253   3.097   1.074   1.418  0.2182 -0.2244 -0.1754
17921TIP3    H175254   3.175   1.129   1.414 -0.7348  1.4014  1.4778
17921TIP3    H275255   3.115   1.012   1.489  0.0767  0.0757  0.1279
17922TIP3   OH275256   1.452   1.041  10.407 -0.4479  0.3440 -0.1167
17922TIP3    H175257   1.467   1.050  10.501 -0.7969 -1.5073  0.1573
17922TIP3    H275258   1.510   0.969  10.381 -1.0103  0.2509 -1.1466
17923TIP3   OH275259   5.663   4.306  15.402  0.4906 -0.3508 -0.0491
17923TIP3    H175260   5.732   4.373  15.396 -0.5688  0.8383  0.5164
17923TIP3    H275261   5.640   4.288  15.311  1.9355 -1.2179 -0.2778
17924TIP3   OH275262   5.023   0.009   4.919  0.4060  0.1029  0.2265
17924TIP3    H175263   5.104  -0.041   4.916  0.3642 -0.3653  3.3894
17924TIP3    H275264   5.050   0.096   4.949 -0.0148  0.6549 -0.9630
17925TIP3   OH275265   3.125   2.187  15.957  0.3677 -0.2873 -0.0648
17925TIP3    H175266   3.187   2.232  15.901 -1.3180  4.0745  1.1316
17925TIP3    H275267   3.169   2.184  16.043  1.1739 -2.8033 -0.5005
17926TIP3   OH275268   2.318   0.258  14.247 -0.4411  0.1675  0.1571
17926TIP3    H175269   2.349   0.321  14.313  2.1967 -0.5402 -0.2839
17926TIP3    H275270   2.343   0.297  14.163 -2.0117  0.1469 -0.3503
17927TIP3   OH275271   3.979   3.429  11.521 -0.3944 -0.1975 -0.7984
17927TIP3    H175272   3.960   3.378  11.600 -0.0254 -1.4050 -1.4614
17927TIP3    H275273   3.898   3.425  11.470 -0.3377 -0.1806 -0.8895
17928TIP3   OH275274   2.112   2.476  16.217  0.5896 -0.1537  0.5009
17928TIP3    H175275   2.045   2.429  16.167  0.8102 -0.6231  0.6431
17928TIP3    H275276   2.122   2.560  16.171 -0.2181 -0.0078  0.5830
17929TIP3   OH275277   1.840   6.497  13.616  0.8204  0.1580 -0.1990
17929TIP3    H175278   1.792   6.457  13.689  0.5385  0.6093 -0.1310
17929TIP3    H275279   1.878   6.423  13.569  0.3049 -0.1886 -0.0793
17930TIP3   OH275280   3.951   2.386   3.426 -0.2918  0.1032  0.1168
17930TIP3    H175281   3.991   2.354   3.507 -1.1541 -2.2390 -0.3013
17930TIP3    H275282   3.958   2.481   3.432 -0.2636  0.0150  2.9126
17931TIP3   OH275283   4.532   6.616   1.121 -0.1386 -0.1493  0.2940
17931TIP3    H175284   4.459   6.554   1.117 -0.0304 -0.2255 -0.8158
17931TIP3    H275285   4.524   6.657   1.207  0.3965 -2.4210  1.5021
17932TIP3   OH275286   3.881   1.061   4.084  0.0940 -0.3978 -0.2113
17932TIP3    H175287   3.893   1.116   4.006  0.6566 -0.5909 -0.2706
17932TIP3    H275288   3.825   1.112   4.142  0.5236  0.1916 -0.3092
17933TIP3   OH275289   6.212   0.708   3.213  0.2176  0.5961 -0.1295
17933TIP3    H175290   6.231   0.798   3.241  2.4888  0.2177 -0.2456
17933TIP3    H275291   6.177   0.666   3.291  3.3155  0.4700  1.3636
17934TIP3   OH275292   6.558   5.863  13.496  0.2990 -0.2410  0.1849
17934TIP3    H175293   6.622   5.880  13.566  0.8600 -1.8307  0.1102
17934TIP3    H275294   6.499   5.798  13.534 -0.6429  0.4125 -0.1302
17935TIP3   OH275295   1.096   3.756   0.766  0.4389  0.0735  0.4807
17935TIP3    H175296   1.098   3.671   0.811  0.8773 -0.2311 -0.1096
17935TIP3    H275297   1.041   3.741   0.689  2.3763 -0.3264 -0.8989
17936TIP3   OH275298   3.108   2.330   3.375 -0.4332 -0.3290  0.5373
17936TIP3    H175299   3.187   2.310   3.326 -0.0978  1.3301  0.3360
17936TIP3    H275300   3.067   2.245   3.391  1.7625 -1.3148  1.3370
17937TIP3   OH275301   4.977   6.476  13.178 -0.1463 -0.2451  0.4827
17937TIP3    H175302   5.051   6.416  13.187  0.6806  0.9947  3.0788
17937TIP3    H275303   4.902   6.427  13.211 -0.5409 -1.4389 -1.9796
17938TIP3   OH275304   1.869   4.511   0.828 -0.5047  0.0371 -0.6313
17938TIP3    H175305   1.804   4.484   0.763  0.0070  0.8398 -1.5074
17938TIP3    H275306   1.930   4.437   0.832 -1.5968 -0.8594  0.4324
17939TIP3   OH275307   0.731   3.100  10.591 -0.3876 -0.4475  0.3710
17939TIP3    H175308   0.723   3.043  10.514  0.9568 -1.7470  1.1408
17939TIP3    H275309   0.669   3.064  10.654 -0.3318 -0.3759  0.4667
17940TIP3   OH275310   5.936   3.692  10.704 -0.0159 -0.1460 -0.2327
17940TIP3    H175311   6.011   3.639  10.676  0.3665  0.9496 -1.3957
17940TIP3    H275312   5.884   3.703  10.624 -1.4957 -0.9714  0.5714
17941TIP3   OH275313   2.627   5.039   3.229 -0.4934  0.0480 -0.5571
17941TIP3    H175314   2.554   5.050   3.289  0.6277  0.1816  0.8227
17941TIP3    H275315   2.628   4.945   3.209 -0.8408 -0.0039 -0.3388
17942TIP3   OH275316   2.558   1.001   4.744 -0.2880  0.0106  0.0186
17942TIP3    H175317   2.580   0.913   4.775  0.4463 -0.6473 -2.1799
17942TIP3    H275318   2.583   1.001   4.652 -0.6825  2.4035 -0.1594
17943TIP3   OH275319   2.977   4.899   1.690  0.3211 -0.3449  0.0965
17943TIP3    H175320   2.948   4.835   1.625 -1.1319  1.1287 -0.7918
17943TIP3    H275321   2.912   4.894   1.760  1.1842 -1.0334  0.8780
17944TIP3   OH275322   0.825   6.634   3.675 -0.3203 -0.6262 -0.0674
17944TIP3    H175323   0.863   6.664   3.592 -3.2689  0.8422 -1.0061
17944TIP3    H275324   0.848   6.703   3.738 -0.8096 -0.0918 -0.4643
17945TIP3   OH275325   0.310   5.826  16.931 -0.4977  0.0282 -0.4034
17945TIP3    H175326   0.218   5.851  16.926 -0.7983 -0.3550  2.0581
17945TIP3    H275327   0.356   5.908  16.949 -0.7020 -0.1357  0.9779
17946TIP3   OH275328   3.713   0.758  12.515 -0.6275  0.0160  0.1622
17946TIP3    H175329   3.747   0.773  12.604  0.3726 -3.4917  0.5413
17946TIP3    H275330   3.642   0.821  12.506  0.6848  2.0570  2.5463
17947TIP3   OH275331   1.149   4.114  12.680 -0.2081  0.0489  0.1831
17947TIP3    H175332   1.226   4.109  12.623  0.2703  1.5202  0.6565
17947TIP3    H275333   1.186   4.118  12.769 -0.8199  0.6867  0.4183
17948TIP3   OH275334   0.841   0.348   1.003  0.1359 -0.0913 -0.2242
17948TIP3    H175335   0.853   0.262   1.045  0.4357 -0.2057 -0.5421
17948TIP3    H275336   0.875   0.336   0.914 -1.6089 -0.2064 -0.9065
17949TIP3   OH275337   1.583   6.502  11.762  0.4428  0.5489 -0.0778
17949TIP3    H175338   1.598   6.414  11.729 -1.1353  0.5601 -0.9334
17949TIP3    H275339   1.574   6.491  11.856  0.1780 -0.2162 -0.1871
17950TIP3   OH275340   5.259   6.436   4.260 -0.5196 -0.0640  0.0683
17950TIP3    H175341   5.253   6.520   4.307  0.7845  0.3188 -0.3971
17950TIP3    H275342   5.342   6.399   4.290 -0.8879 -1.0077 -0.0562
17951TIP3   OH275343   2.608   1.126   4.247  0.3751 -0.7431  0.7241
17951TIP3    H175344   2.589   1.071   4.171 -2.3828  4.2568 -2.8085
17951TIP3    H275345   2.682   1.180   4.220  0.1343  0.3510  2.1552
17952TIP3   OH275346   5.200   0.678   1.393 -0.1456 -0.2562 -0.0825
17952TIP3    H175347   5.277   0.635   1.432  0.4999 -0.3726 -1.4314
17952TIP3    H275348   5.127   0.649   1.447  0.5522 -1.3939  0.2880
17953TIP3   OH275349   1.385   6.653  16.483  0.4686  0.5409 -0.4495
17953TIP3    H175350   1.457   6.704  16.445  0.2097  0.9898 -0.3557
17953TIP3    H275351   1.372   6.581  16.423  1.3049  0.1912 -0.2322
17954TIP3   OH275352   3.178   1.357   2.550 -0.2722 -0.5135  0.2579
17954TIP3    H175353   3.267   1.377   2.579 -0.7339 -1.5596  2.6289
17954TIP3    H275354   3.134   1.442   2.547  1.2121  0.2937 -2.8772
17955TIP3   OH275355   6.286   1.968   4.328  0.6282 -0.4716 -0.0114
17955TIP3    H175356   6.199   1.960   4.291  0.8881 -0.8456 -0.5583
17955TIP3    H275357   6.340   1.908   4.276  0.6133 -2.6195  2.2732
17956TIP3   OH275358   2.234   4.538  16.132  0.5959  0.3362 -0.1900
17956TIP3    H175359   2.302   4.604  16.115 -0.9211  1.8312 -0.6941
17956TIP3    H275360   2.195   4.564  16.215  0.9037 -0.7764  0.3245
17957TIP3   OH275361   4.989   0.553   4.892  0.3857 -0.6562 -0.0949
17957TIP3    H175362   4.900   0.527   4.867  0.4029 -1.0881  0.2801
17957TIP3    H275363   4.996   0.527   4.984  0.4293  0.6199  0.2827
17958TIP3   OH275364   0.583   3.972  14.175  0.3812 -0.1792 -0.4694
17958TIP3    H175365   0.669   3.983  14.134  1.1075 -2.2508  0.3471
17958TIP3    H275366   0.597   3.998  14.266 -0.2931  0.9847 -0.6817
17959TIP3   OH275367   3.693   4.332  15.188 -0.5004  0.1663 -0.0555
17959TIP3    H175368   3.687   4.237  15.188 -2.1740  0.2494 -0.1650
17959TIP3    H275369   3.763   4.352  15.249 -0.2447 -1.1244  0.0947
17960TIP3   OH275370   6.836   4.500  16.999  0.3097  0.4128 -0.1975
17960TIP3    H175371   6.881   4.574  17.041  0.6283  0.3455 -0.4162
17960TIP3    H275372   6.901   4.464  16.939  0.2235 -0.1826  0.0620
17961TIP3   OH275373   6.633   2.509  12.372 -0.0694  0.0855 -0.1574
17961TIP3    H175374   6.689   2.586  12.377  2.6975 -1.8590  2.1773
17961TIP3    H275375   6.624   2.480  12.463 -0.2060 -2.7979 -0.9784
17962TIP3   OH275376   4.552   4.018   4.524  0.1659  0.2171  0.1553
17962TIP3    H175377   4.542   3.961   4.448 -0.3961  1.6235 -0.8693
17962TIP3    H275378   4.628   4.074   4.503  0.9075 -0.3334  1.2767
17963TIP3   OH275379   4.955   0.984  15.910  0.4806 -0.0423 -0.2292
17963TIP3    H175380   4.934   1.077  15.919  1.4635  0.0596  1.2800
17963TIP3    H275381   4.996   0.960  15.993  0.4503 -1.7798 -0.6765
17964TIP3   OH275382   0.384   5.402   6.769  0.0643 -0.4496 -0.1767
17964TIP3    H175383   0.300   5.393   6.723  1.4929 -2.6047 -2.6690
17964TIP3    H275384   0.413   5.491   6.748 -0.9349 -0.1768 -0.4638
17965TIP3   OH275385   0.253   3.028  13.783  0.7225  0.1413 -0.6732
17965TIP3    H175386   0.322   3.042  13.848 -0.7141 -0.0397  0.9629
17965TIP3    H275387   0.219   2.940  13.803 -1.8770  1.3018  0.5021
17966TIP3   OH275388   5.307   3.065  13.135 -0.2141 -0.1123 -0.2508
17966TIP3    H175389   5.365   3.001  13.094  0.9292  0.8898 -0.2587
17966TIP3    H275390   5.299   3.035  13.226 -0.0693 -0.5222 -0.3725
17967TIP3   OH275391   6.833   1.894  17.009  0.1630  0.4741 -0.7218
17967TIP3    H175392   6.800   1.836  16.941  1.1976  0.2862 -1.0853
17967TIP3    H275393   6.755   1.923  17.056 -0.2654 -2.7765  0.7815
17968TIP3   OH275394   2.678   3.621   2.139 -0.4663 -0.0876  0.3822
17968TIP3    H175395   2.598   3.644   2.091 -0.1655  0.8209  0.3003
17968TIP3    H275396   2.733   3.699   2.133  1.7523 -1.6569 -2.1982
17969TIP3   OH275397   1.919   3.325   6.027  0.6924  0.5141 -0.4339
17969TIP3    H175398   1.835   3.298   5.988  1.3815 -2.2750 -0.2029
17969TIP3    H275399   1.967   3.364   5.954  1.2713 -3.0155 -2.1472
17970TIP3   OH275400   0.497   4.599   1.215  0.4772 -0.0002 -0.6520
17970TIP3    H175401   0.583   4.580   1.178  0.5123  0.3210 -0.7364
17970TIP3    H275402   0.508   4.683   1.259 -0.6771  1.9482 -3.7464
17971TIP3   OH275403   4.714   2.871  15.472  0.2255 -0.4606  0.1208
17971TIP3    H175404   4.791   2.924  15.448  0.1894  0.1347  1.2563
17971TIP3    H275405   4.722   2.859  15.566  1.0724 -3.8737 -0.2676
17972TIP3   OH275406   4.864   4.859   5.945  0.9164 -0.1286  0.2057
17972TIP3    H175407   4.802   4.918   5.987  2.5945  1.0522  1.1302
17972TIP3    H275408   4.847   4.870   5.851 -0.9924 -0.7227  0.4222
17973TIP3   OH275409   0.574   0.850  13.958  0.6288 -0.5022 -0.1025
17973TIP3    H175410   0.593   0.770  13.910  0.8185 -0.4458 -0.1258
17973TIP3    H275411   0.535   0.909  13.893  2.6554  0.2744 -0.7010
17974TIP3   OH275412   6.082   3.751   2.388 -0.2913  0.2046 -0.2562
17974TIP3    H175413   6.002   3.729   2.340  0.1601 -1.4554 -0.2916
17974TIP3    H275414   6.153   3.717   2.334  0.3654  0.4735  0.4184
17975TIP3   OH275415   3.708   3.871  15.653 -0.1257  0.5424  0.2732
17975TIP3    H175416   3.638   3.857  15.717 -0.8364 -2.2966 -0.9415
17975TIP3    H275417   3.671   3.841  15.570  1.1204  3.1174 -1.3259
17976TIP3   OH275418   1.304   3.721   1.496 -0.5915 -0.0267 -0.7137
17976TIP3    H175419   1.226   3.742   1.548 -1.1204 -2.0410 -0.5994
17976TIP3    H275420   1.364   3.679   1.557  0.0729  0.3563 -1.0859
17977TIP3   OH275421   5.869   5.763   0.871 -0.4640  0.4719  0.5569
17977TIP3    H175422   5.880   5.676   0.834 -1.5791  0.3064  0.5902
17977TIP3    H275423   5.786   5.794   0.835 -0.7023  1.0033  1.5424
17978TIP3   OH275424   5.243   0.843   0.603 -0.4883 -0.8990 -0.2481
17978TIP3    H175425   5.274   0.770   0.657 -2.9064 -1.4405  0.5447
17978TIP3    H275426   5.201   0.801   0.528 -0.9353 -0.2978 -0.3405
17979TIP3   OH275427   0.375   6.826  16.573 -0.1682 -0.0777  0.4645
17979TIP3    H175428   0.348   6.827  16.665  1.4969  1.0731  1.0092
17979TIP3    H275429   0.459   6.779  16.574  0.0512  0.2818 -0.3794
17980TIP3   OH275430   5.174   0.085  12.814 -0.3623 -0.1682 -0.1697
17980TIP3    H175431   5.137   0.059  12.899 -0.2219 -1.1886 -0.4030
17980TIP3    H275432   5.103   0.068  12.752  0.0704 -0.9715 -0.4594
17981TIP3   OH275433   6.773   1.051   3.411 -0.2905 -0.0634  0.1022
17981TIP3    H175434   6.819   1.127   3.377 -0.8247  0.0846 -0.3047
17981TIP3    H275435   6.718   1.022   3.339  0.1901 -1.0727  0.1336
17982TIP3   OH275436   3.827   0.014   5.934 -0.4191 -0.1781 -0.1721
17982TIP3    H175437   3.770  -0.047   5.887 -0.0466 -0.0627 -0.7821
17982TIP3    H275438   3.905  -0.037   5.956 -1.3580 -0.7829  2.0294
17983TIP3   OH275439   2.895   5.391   4.534 -0.2903 -0.6018 -0.4721
17983TIP3    H175440   2.862   5.460   4.476 -1.3561 -1.9233 -1.5021
17983TIP3    H275441   2.976   5.361   4.492  2.4681  2.5760  2.0064
17984TIP3   OH275442   1.626   6.632   2.933  0.5707 -0.5023 -0.0075
17984TIP3    H175443   1.690   6.666   2.870  0.8886  0.7796  0.9713
17984TIP3    H275444   1.678   6.582   2.995  0.2472 -1.8289 -0.7732
17985TIP3   OH275445   0.706   2.994  16.555 -0.1630 -0.3108  0.2814
17985TIP3    H175446   0.650   3.050  16.501  1.1281  2.6812  1.8027
17985TIP3    H275447   0.781   2.973  16.499 -1.1078 -1.3715 -0.6150
17986TIP3   OH275448   5.760   0.124  12.671 -0.1822 -0.3559  0.4276
17986TIP3    H175449   5.723   0.063  12.607  0.9846 -0.4021 -0.2150
17986TIP3    H275450   5.769   0.071  12.751 -1.1380 -0.4374  0.5015
17987TIP3   OH275451   5.046   6.515  12.740 -0.2069 -0.3309 -0.3972
17987TIP3    H175452   4.986   6.546  12.672  0.8261  0.7980 -0.8257
17987TIP3    H275453   5.006   6.544  12.822 -0.8553 -0.6576 -0.5867
17988TIP3   OH275454   1.940   6.171   1.294  0.3285  0.1008 -0.1903
17988TIP3    H175455   2.009   6.228   1.259 -0.3649  0.2082 -1.4062
17988TIP3    H275456   1.858   6.213   1.268 -0.2336 -2.0784 -2.2888
17989TIP3   OH275457   1.306   2.022   1.335  0.1095 -0.0455  0.5876
17989TIP3    H175458   1.356   2.061   1.407  0.5149 -0.0524  0.3183
17989TIP3    H275459   1.348   1.937   1.320  0.6522  0.3533 -0.2831
17990TIP3   OH275460   1.503   0.956   0.674 -0.1852  0.1923  0.0088
17990TIP3    H175461   1.584   0.931   0.718  0.1541  0.7089 -0.3160
17990TIP3    H275462   1.480   1.041   0.710  0.3488  0.8430 -1.1171
17991TIP3   OH275463   1.069   3.869  11.624  0.4946  0.2130  0.4907
17991TIP3    H175464   1.047   3.929  11.553 -0.0823 -0.9575 -0.3398
17991TIP3    H275465   1.055   3.782  11.588 -2.0413 -0.4238  2.6952
17992TIP3   OH275466   5.821   1.000   5.579  0.0860 -0.4437  0.5173
17992TIP3    H175467   5.821   0.906   5.561  1.0984 -0.6899  1.5977
17992TIP3    H275468   5.793   1.041   5.498  1.4185 -1.6030 -0.5745
17993TIP3   OH275469   1.306   5.961   4.416 -0.1788 -0.2794  0.2104
17993TIP3    H175470   1.330   6.044   4.457 -2.5334  0.0163  1.1700
17993TIP3    H275471   1.230   5.982   4.362  0.3538 -1.4774 -1.0805
17994TIP3   OH275472   0.873   3.641   0.305  0.5001 -0.0680  0.2753
17994TIP3    H175473   0.829   3.654   0.221 -0.2041 -0.3244  0.5920
17994TIP3    H275474   0.952   3.592   0.284 -0.3565 -1.3336 -0.0900
17995TIP3   OH275475   5.194   6.232  10.732 -0.0201  0.7421 -0.0404
17995TIP3    H175476   5.141   6.310  10.716  0.2693  0.8531 -0.4727
17995TIP3    H275477   5.273   6.245  10.678 -0.0435  0.0816 -0.2386
17996TIP3   OH275478   6.754   3.003  14.108  0.2408  0.1651  0.5398
17996TIP3    H175479   6.718   3.027  14.194 -1.6713 -1.6662  0.3184
17996TIP3    H275480   6.838   2.962  14.128 -0.4804 -0.8417  1.6066
17997TIP3   OH275481   1.848   6.826   3.077 -0.5020  0.1945 -0.2150
17997TIP3    H175482   1.923   6.823   3.016 -0.5081  0.1245 -0.2192
17997TIP3    H275483   1.820   6.735   3.084 -1.0643  0.3160 -0.8009
17998TIP3   OH275484   3.382   6.819  13.971  0.2966  0.8521 -0.4024
17998TIP3    H175485   3.440   6.800  14.045  1.0820  3.4630 -0.2326
17998TIP3    H275486   3.431   6.791  13.894 -0.1895 -1.1378 -0.0490
17999TIP3   OH275487   6.549   0.740   3.426  0.2621 -0.3113  0.2000
17999TIP3    H175488   6.523   0.752   3.334  1.3637  0.0675 -0.0796
17999TIP3    H275489   6.582   0.650   3.429  0.3460 -0.2812  0.1896
18000TIP3   OH275490   4.644   2.443   2.035  0.6790 -0.6447 -0.3520
18000TIP3    H175491   4.703   2.513   2.063  0.8083 -0.6738 -0.5529
18000TIP3    H275492   4.610   2.472   1.950 -1.6916  0.6647  0.9586
18001TIP3   OH275493   5.577   3.247  11.712 -0.2756  0.3284  0.1372
18001TIP3    H175494   5.581   3.159  11.750 -0.4238  0.1102 -0.3396
18001TIP3    H275495   5.667   3.269  11.691 -0.2397  0.2841  0.2471
18002TIP3   OH275496   1.302   4.494   2.597 -0.3050 -0.0682 -0.4011
18002TIP3    H175497   1.340   4.571   2.639  0.0078 -1.3723  1.8204
18002TIP3    H275498   1.276   4.525   2.510 -0.7152  2.6791  0.6106
18003TIP3   OH275499   1.790   3.884  16.277 -0.1872 -0.2321 -0.7701
18003TIP3    H175500   1.771   3.815  16.214  1.5123 -0.5835 -0.9496
18003TIP3    H275501   1.885   3.881  16.288 -0.3066  0.7048  0.8118
18004TIP3   OH275502   0.646   0.937   5.667 -0.0231  0.6877  0.2502
18004TIP3    H175503   0.551   0.940   5.664 -0.0718 -0.8765 -0.6439
18004TIP3    H275504   0.667   0.846   5.688  1.2893  0.6957 -0.8757
18005TIP3   OH275505   4.142   6.169  14.211 -0.1452  0.0511 -0.7979
18005TIP3    H175506   4.098   6.254  14.218  0.2613  0.2901 -1.1436
18005TIP3    H275507   4.153   6.141  14.301  2.0440  1.5669 -0.5212
18006TIP3   OH275508   5.140   4.492  15.745  0.0282  0.6323 -0.4565
18006TIP3    H175509   5.150   4.524  15.835 -2.3107  0.8261 -0.2027
18006TIP3    H275510   5.064   4.433  15.749  0.2937  0.1407 -2.1788
18007TIP3   OH275511   0.851   5.990   0.794 -0.1259 -0.0712  0.0820
18007TIP3    H175512   0.758   6.014   0.791 -0.3494 -0.9651 -1.2616
18007TIP3    H275513   0.898   6.068   0.765 -0.4815  0.2641  0.4021
18008TIP3   OH275514   4.861   1.543   1.434  0.1150  0.4035 -0.1880
18008TIP3    H175515   4.850   1.504   1.521 -0.9659  0.0202 -0.4705
18008TIP3    H275516   4.913   1.479   1.386 -0.2866  0.0508 -0.1659
18009TIP3   OH275517   3.470   3.416  14.027  0.1134  0.0670  0.4623
18009TIP3    H175518   3.431   3.453  14.107  0.2616 -0.4510  0.7789
18009TIP3    H275519   3.547   3.368  14.058 -0.2553 -0.7815  0.0950
18010TIP3   OH275520   5.212   1.932  12.042 -0.1559  0.3463 -0.2546
18010TIP3    H175521   5.264   1.935  11.962  0.1488  1.3219 -0.0281
18010TIP3    H275522   5.176   2.020  12.050  2.0080  1.1445  2.1025
18011TIP3   OH275523   5.731   1.638   4.749  0.1438 -0.0815 -0.0146
18011TIP3    H175524   5.747   1.673   4.662 -0.7169  0.1212 -0.0920
18011TIP3    H275525   5.802   1.574   4.762 -0.2325 -0.7721 -1.2141
18012TIP3   OH275526   3.719   1.316  14.927  0.4418 -0.7468  1.1270
18012TIP3    H175527   3.635   1.276  14.904  0.5474 -0.8848  0.9776
18012TIP3    H275528   3.696   1.389  14.985  0.0593  0.4555 -0.4584
18013TIP3   OH275529   3.807   0.797   4.073  0.0764 -0.6141 -0.4033
18013TIP3    H175530   3.813   0.763   4.162 -0.7185 -1.3562 -0.6202
18013TIP3    H275531   3.819   0.891   4.083  0.3722 -0.7298  0.4437
18014TIP3   OH275532   5.305   2.612  15.326  0.4642 -0.8262  0.6482
18014TIP3    H175533   5.372   2.639  15.262  1.0746 -0.9235  1.2308
18014TIP3    H275534   5.333   2.524  15.354  0.7163 -0.4204  1.7157
18015TIP3   OH275535   3.793   0.053   6.360  0.0126  0.0630 -0.3161
18015TIP3    H175536   3.884   0.046   6.388  0.2309  0.2392 -0.9470
18015TIP3    H275537   3.770  -0.035   6.330  0.6587  0.4564 -2.1099
18016TIP3   OH275538   2.525   2.629  11.032 -0.5939 -0.2515 -0.6653
18016TIP3    H175539   2.486   2.654  11.115 -0.0121 -3.5374  0.7694
18016TIP3    H275540   2.618   2.652  11.041 -0.6770  0.1341 -0.7662
18017TIP3   OH275541   4.030   6.031  13.524  0.2956 -0.4075  0.2267
18017TIP3    H175542   4.020   6.027  13.619 -0.1370 -1.5654  0.1569
18017TIP3    H275543   4.044   5.939  13.499 -1.0545 -0.3114 -0.9699
18018TIP3   OH275544   0.504   5.279   4.360 -0.4201 -0.6421  0.2205
18018TIP3    H175545   0.462   5.202   4.321  0.8559 -0.3889 -1.8035
18018TIP3    H275546   0.529   5.252   4.448  0.2778 -2.6684 -0.5589
18019TIP3   OH275547   0.473   3.512  15.669 -0.3997 -0.0341 -0.4730
18019TIP3    H175548   0.549   3.559  15.704 -0.3087  0.4001 -1.2312
18019TIP3    H275549   0.473   3.429  15.716  1.8167 -0.9541 -1.9321
18020TIP3   OH275550   6.206   5.227   2.053 -0.5792 -0.0600 -0.1892
18020TIP3    H175551   6.135   5.188   2.104  0.8527 -1.0246  1.1268
18020TIP3    H275552   6.267   5.156   2.036  0.2727  0.8228 -0.9955
18021TIP3   OH275553   1.410   1.843   2.252 -0.4402  0.2378  0.0691
18021TIP3    H175554   1.432   1.793   2.173 -1.4929 -0.4547  0.1861
18021TIP3    H275555   1.425   1.935   2.227  0.8059 -0.0706 -0.3909
18022TIP3   OH275556   6.077   4.199   4.134 -0.0992 -0.5513 -0.0315
18022TIP3    H175557   6.002   4.167   4.185 -2.0330 -2.2322 -3.6091
18022TIP3    H275558   6.112   4.121   4.090 -0.0218  1.0243 -3.0155
18023TIP3   OH275559   6.227   6.749  13.184  0.0599  0.2246 -0.0588
18023TIP3    H175560   6.302   6.790  13.227  0.7497  0.2640 -1.2645
18023TIP3    H275561   6.167   6.821  13.167 -0.3394  0.1694  1.0561
18024TIP3   OH275562   5.913   5.673   4.854  0.7928 -0.3562 -0.0503
18024TIP3    H175563   5.975   5.746   4.846  1.4674 -0.9484 -0.3083
18024TIP3    H275564   5.876   5.663   4.767  2.5523 -1.9163 -0.6768
18025TIP3   OH275565   0.219   3.313   4.907  0.3714 -0.0459  0.0277
18025TIP3    H175566   0.177   3.230   4.883  0.8695 -0.0771 -0.7721
18025TIP3    H275567   0.197   3.373   4.835  0.0605  0.5029  0.5740
18026TIP3   OH275568   6.643   3.909  13.042  0.7849 -0.6099  0.4809
18026TIP3    H175569   6.617   3.962  12.966 -0.5833  0.3491  1.5827
18026TIP3    H275570   6.697   3.839  13.004  1.7582  0.9196 -1.1430
18027TIP3   OH275571   3.014   5.099  15.141  0.2530 -0.5615 -0.0471
18027TIP3    H175572   3.069   5.057  15.075  1.5616  1.7911 -0.5604
18027TIP3    H275573   3.062   5.087  15.223  0.1709 -0.8182 -0.0356
18028TIP3   OH275574   4.788   2.878  13.063  0.2134 -0.3746 -0.1297
18028TIP3    H175575   4.822   2.963  13.094 -0.1055  0.1464 -1.1550
18028TIP3    H275576   4.693   2.885  13.073  0.2564 -1.1424  1.0312
18029TIP3   OH275577   1.523   2.041  15.621  0.6366 -0.0818  1.0673
18029TIP3    H175578   1.586   2.088  15.676 -0.8386  1.6902  1.3560
18029TIP3    H275579   1.539   1.948  15.639  2.3226  0.3566  2.0265
18030TIP3   OH275580   2.354   5.741  16.551  0.1648  0.2524  0.5157
18030TIP3    H175581   2.351   5.831  16.584 -0.4328 -0.5254  2.7625
18030TIP3    H275582   2.338   5.687  16.629 -0.7760 -1.7570 -1.0046
18031TIP3   OH275583   5.198   4.002   3.840 -0.2535  0.7044 -0.4790
18031TIP3    H175584   5.264   4.023   3.774  0.9203  0.6635  0.6441
18031TIP3    H275585   5.243   4.016   3.923 -1.5279  0.2108  0.3067
18032TIP3   OH275586   4.782   0.845   6.205  0.0253  0.2354  0.8438
18032TIP3    H175587   4.722   0.797   6.261 -0.1691 -1.4557 -0.7174
18032TIP3    H275588   4.727   0.880   6.134  0.6517 -0.0626  0.1966
18033TIP3   OH275589   1.907   3.135   3.308  0.1021 -0.1160 -0.6810
18033TIP3    H175590   1.820   3.100   3.330 -0.3758  0.3804 -1.6916
18033TIP3    H275591   1.911   3.129   3.212 -0.1141  2.7874 -0.9441
18034TIP3   OH275592   3.392   2.668   1.774  0.0722 -0.5424 -0.5569
18034TIP3    H175593   3.455   2.735   1.748 -0.9985  0.1472 -1.5001
18034TIP3    H275594   3.440   2.585   1.768  1.4396  0.1333  0.7112
18035TIP3   OH275595   4.437   5.499  14.779  0.2701 -0.0666  0.5257
18035TIP3    H175596   4.488   5.561  14.727  0.2305 -0.4192  0.0536
18035TIP3    H275597   4.357   5.486  14.728  0.3046 -0.5425  0.5911
18036TIP3   OH275598   6.385   1.349  16.234 -0.2346  0.0258  0.2937
18036TIP3    H175599   6.365   1.313  16.320  1.4337  0.2320  0.8144
18036TIP3    H275600   6.322   1.420  16.222 -0.6339 -0.1495  1.2455
18037TIP3   OH275601   1.622   0.395   4.180  0.3602  0.6631  0.3084
18037TIP3    H175602   1.535   0.417   4.215  0.6302  1.3739  0.5435
18037TIP3    H275603   1.604   0.327   4.115 -0.2241 -0.2145  1.3449
18038TIP3   OH275604   0.988   2.104   5.560  0.0341 -0.1006 -0.2525
18038TIP3    H175605   0.909   2.075   5.513 -0.4924  1.5336 -0.4414
18038TIP3    H275606   1.030   2.164   5.499  0.1712  0.8580  0.7766
18039TIP3   OH275607   3.552   4.959  14.474 -0.2350  0.3420 -0.1860
18039TIP3    H175608   3.604   5.006  14.539 -0.5167 -1.0090  1.0541
18039TIP3    H275609   3.581   4.868  14.481 -0.0643  0.1934 -2.1660
18040TIP3   OH275610   2.935   5.361   1.596 -0.0218 -0.0693  0.3760
18040TIP3    H175611   2.959   5.425   1.529 -0.3590 -1.4669 -1.1572
18040TIP3    H275612   3.000   5.291   1.587 -0.8191 -0.8622  0.6138
18041TIP3   OH275613   3.798   3.968   1.588 -0.2572  0.5721 -0.1514
18041TIP3    H175614   3.809   4.056   1.553  0.6300  0.5659  0.0852
18041TIP3    H275615   3.878   3.952   1.639 -0.6200 -0.1850  0.1946
18042TIP3   OH275616   0.217   1.946   1.129  0.1435 -0.5463 -0.2825
18042TIP3    H175617   0.309   1.971   1.123  0.1888 -0.6469 -0.0444
18042TIP3    H275618   0.170   2.013   1.080  0.5602 -1.9373 -2.7447
18043TIP3   OH275619   4.352   1.323  15.507  0.0331  0.2447  0.8606
18043TIP3    H175620   4.290   1.269  15.556  0.2578 -1.1880 -0.3442
18043TIP3    H275621   4.437   1.301  15.545  0.0248  0.5558  1.0620
18044TIP3   OH275622   3.109   0.589  10.933 -0.9742  0.3468  0.6858
18044TIP3    H175623   3.058   0.668  10.918 -1.1352  0.4734  1.8340
18044TIP3    H275624   3.159   0.607  11.013 -2.3684 -1.3422  2.0213
18045TIP3   OH275625   5.136   0.187  11.071  0.0253 -0.2914 -0.6666
18045TIP3    H175626   5.144   0.105  11.022 -1.5464 -0.4985 -0.6124
18045TIP3    H275627   5.165   0.254  11.009  0.8989 -0.8199 -0.8574
18046TIP3   OH275628   4.951   3.167  11.657  0.1512  0.5723  0.7960
18046TIP3    H175629   4.932   3.075  11.643 -0.0495  0.8669 -1.0395
18046TIP3    H275630   4.959   3.175  11.752  0.3363 -1.3531  0.9852
18047TIP3   OH275631   6.461   1.298   0.725 -0.5807  0.6848  0.0109
18047TIP3    H175632   6.491   1.249   0.801 -0.1251  1.0397  0.0629
18047TIP3    H275633   6.397   1.360   0.760 -0.5286  0.7035  0.0726
18048TIP3   OH275634   6.063   1.881  16.718 -0.6372 -0.1785 -0.6604
18048TIP3    H175635   6.078   1.952  16.656 -0.8568 -0.3241 -0.8832
18048TIP3    H275636   5.975   1.897  16.752 -0.4176  0.0514 -0.1846
18049TIP3   OH275637   3.416   4.745  15.784 -0.3456 -0.3556  0.4265
18049TIP3    H175638   3.442   4.735  15.693 -2.5486 -0.5571 -0.2496
18049TIP3    H275639   3.356   4.820  15.784 -0.4427 -0.4005  1.6930
18050TIP3   OH275640   2.772   5.551  14.180  0.1983  0.3525 -0.3883
18050TIP3    H175641   2.776   5.631  14.127  0.6224  0.7669  0.2533
18050TIP3    H275642   2.793   5.480  14.119 -1.5950  0.5478 -1.3213
18051TIP3   OH275643   2.270   3.843  14.654  0.3921  0.4304  0.2121
18051TIP3    H175644   2.329   3.880  14.719  0.7938  0.1991 -0.0146
18051TIP3    H275645   2.321   3.773  14.613 -0.3218 -0.3127  0.5693
18052TIP3   OH275646   5.672   5.028  10.924  0.5183  0.3305  0.1248
18052TIP3    H175647   5.635   4.942  10.943  0.1358  0.8542  1.9865
18052TIP3    H275648   5.765   5.020  10.943  0.7448 -0.0135 -1.0437
18053TIP3   OH275649   0.528   5.664   2.471 -0.1505 -0.3213 -0.2625
18053TIP3    H175650   0.562   5.608   2.541 -2.5239 -0.9312  0.4781
18053TIP3    H275651   0.577   5.636   2.393  3.4930  1.2418  1.2346
18054TIP3   OH275652   3.669   0.371   3.971 -0.5823  0.2567  0.2969
18054TIP3    H175653   3.675   0.363   3.875 -2.6174 -2.2107  0.2778
18054TIP3    H275654   3.722   0.298   4.004 -0.9998  0.2624  0.9979
18055TIP3   OH275655   1.528   3.061  15.099  0.2919 -0.0273 -0.2474
18055TIP3    H175656   1.493   2.993  15.157 -0.3801 -0.0880 -0.7124
18055TIP3    H275657   1.457   3.125  15.091  1.0489  0.9429  0.4908
18056TIP3   OH275658   1.426   2.744  11.194  0.6962 -0.3113 -0.2481
18056TIP3    H175659   1.434   2.650  11.212  2.1766 -0.0971  0.3427
18056TIP3    H275660   1.383   2.748  11.109  1.2883 -1.5472 -0.6276
18057TIP3   OH275661   2.403   1.578  11.296 -0.1177 -0.0668  0.3304
18057TIP3    H175662   2.342   1.573  11.369 -1.5694 -0.2089 -0.8488
18057TIP3    H275663   2.485   1.608  11.335 -1.5209  2.3830  1.6649
18058TIP3   OH275664   1.817   5.686   0.005 -0.1901 -0.3882  0.2406
18058TIP3    H175665   1.847   5.761  -0.046  1.9646 -1.3683 -0.0417
18058TIP3    H275666   1.853   5.700   0.092  0.8113 -1.3630  0.0160
18059TIP3   OH275667   0.829   3.093  14.718  0.0160 -0.5803  0.5109
18059TIP3    H175668   0.833   3.096  14.622 -0.4546 -0.8451  0.4841
18059TIP3    H275669   0.807   3.003  14.739 -3.0601  0.1403  0.7423
18060TIP3   OH275670   2.777   3.409   1.979 -0.2957 -0.2486 -0.2273
18060TIP3    H175671   2.802   3.462   1.904 -1.5673 -0.2476 -0.6857
18060TIP3    H275672   2.737   3.471   2.040  0.3533 -0.3154  0.2707
18061TIP3   OH275673   1.571   4.409  17.047  0.0934 -0.2476  0.1493
18061TIP3    H175674   1.506   4.458  16.996  0.2651 -1.2906 -1.1193
18061TIP3    H275675   1.520   4.362  17.113 -0.7073 -2.3523 -1.8494
18062TIP3   OH275676   4.920   4.896   3.823 -0.2159 -0.9341  0.1264
18062TIP3    H175677   4.966   4.840   3.885  0.0967 -1.8299 -0.8781
18062TIP3    H275678   4.946   4.863   3.737 -0.7622  0.1698 -0.4835
18063TIP3   OH275679   2.831   1.796  12.789 -0.1689  0.0005 -0.1698
18063TIP3    H175680   2.812   1.873  12.736 -1.7453 -0.1230  0.1372
18063TIP3    H275681   2.837   1.724  12.726  0.2837  0.2140 -0.3715
18064TIP3   OH275682   0.091   3.809  13.686  0.1108 -0.3925 -0.4953
18064TIP3    H175683   0.177   3.845  13.665  0.8145  0.3698  2.9752
18064TIP3    H275684   0.040   3.885  13.715 -0.8018 -1.2121  0.1257
18065TIP3   OH275685   3.812   0.462  16.035 -0.4308  0.2875 -0.2592
18065TIP3    H175686   3.759   0.454  15.956  1.4567  0.3014 -1.5736
18065TIP3    H275687   3.865   0.540  16.022 -1.0595  1.1314  1.6864
18066TIP3   OH275688   5.034   2.935  15.736  0.0211  0.0565 -0.2278
18066TIP3    H175689   5.043   3.010  15.794  0.5774 -0.1118 -0.0898
18066TIP3    H275690   5.120   2.925  15.696  0.4280 -1.4491  0.9216
18067TIP3   OH275691   0.593   2.406   5.161  0.3723  0.2805 -0.9032
18067TIP3    H175692   0.680   2.391   5.197  0.7350 -0.2097 -1.9274
18067TIP3    H275693   0.546   2.452   5.230  0.8977 -0.9654  0.3416
18068TIP3   OH275694   5.607   3.886   5.223  0.7577  0.7885  0.0057
18068TIP3    H175695   5.673   3.913   5.158 -0.6802 -0.3383 -2.0455
18068TIP3    H275696   5.549   3.962   5.230  1.2413  1.1259  0.4427
18069TIP3   OH275697   5.397   6.206  14.424  0.1283 -0.1167  0.7693
18069TIP3    H175698   5.416   6.278  14.364 -0.9621 -0.0709  0.4658
18069TIP3    H275699   5.453   6.222  14.500 -0.9439  1.7009  1.2181
18070TIP3   OH275700   2.072   6.091   1.552 -0.2652 -0.0263 -0.5088
18070TIP3    H175701   2.151   6.095   1.499 -0.6621  1.2348 -1.0340
18070TIP3    H275702   2.041   6.181   1.557 -1.4190 -0.4263  0.0731
18071TIP3   OH275703   3.220   3.310  11.504  0.3661  0.0043  0.4501
18071TIP3    H175704   3.245   3.399  11.480 -0.2519 -0.1571 -0.8885
18071TIP3    H275705   3.253   3.256  11.432 -1.9364 -0.4695 -0.3127
18072TIP3   OH275706   5.760   2.535   0.558  0.2927 -1.0198  0.0308
18072TIP3    H175707   5.779   2.515   0.466 -0.0527  1.0667 -0.5312
18072TIP3    H275708   5.776   2.629   0.566 -2.9110 -0.4489  1.2604
18073TIP3   OH275709   0.395   1.212   6.216 -0.1386  0.4016  0.8191
18073TIP3    H175710   0.451   1.135   6.203  0.7823  0.9696  1.3218
18073TIP3    H275711   0.364   1.204   6.307 -1.5928 -0.3564  0.2861
18074TIP3   OH275712   4.483   6.468   3.170  0.3155 -0.0196 -0.6069
18074TIP3    H175713   4.407   6.436   3.121 -0.7081  2.6412 -0.9141
18074TIP3    H275714   4.524   6.532   3.112  0.6837  1.1925  0.9205
18075TIP3   OH275715   4.817   2.316  14.419  0.5953 -0.4235  0.5072
18075TIP3    H175716   4.758   2.245  14.392  0.5470  0.3376 -1.5766
18075TIP3    H275717   4.900   2.295  14.376  0.9172  0.1724  0.8350
18076TIP3   OH275718   5.559   5.173  16.092 -0.2952 -0.0485  0.2421
18076TIP3    H175719   5.529   5.243  16.035  1.2959  0.5183  0.0504
18076TIP3    H275720   5.479   5.128  16.120 -1.2036  0.6153 -1.1931
18077TIP3   OH275721   0.475   5.820   1.910 -0.5544 -1.1113 -0.3147
18077TIP3    H175722   0.523   5.892   1.871 -1.8291  0.4946  0.9554
18077TIP3    H275723   0.417   5.789   1.840 -0.3570 -0.5809 -0.7195
18078TIP3   OH275724   4.835   0.600  12.605  0.1860  0.1421 -0.0228
18078TIP3    H175725   4.865   0.538  12.671 -0.2159  1.6481  1.6614
18078TIP3    H275726   4.770   0.552  12.553  2.9915 -2.1608 -1.6588
18079TIP3   OH275727   3.123   4.192   7.023  0.6714  0.1878 -0.2751
18079TIP3    H175728   3.105   4.268   6.968 -1.1193 -1.6492 -2.4280
18079TIP3    H275729   3.213   4.168   7.000 -0.3081 -1.0567 -3.2601
18080TIP3   OH275730   1.091   4.388  14.190  0.3280  0.0470  0.2124
18080TIP3    H175731   1.105   4.295  14.174 -3.6158 -0.6493 -0.1983
18080TIP3    H275732   1.063   4.393  14.281  0.3326  0.8096  0.1772
18081TIP3   OH275733   3.340   1.681  15.348  0.6594  0.0515  0.0176
18081TIP3    H175734   3.257   1.727  15.355  2.5322  3.5622  1.6316
18081TIP3    H275735   3.332   1.607  15.408 -1.3216  0.2614  0.0512
18082TIP3   OH275736   0.511   4.845  11.668  0.1263 -0.4681 -0.3139
18082TIP3    H175737   0.499   4.882  11.580  1.3083 -0.1692 -0.3738
18082TIP3    H275738   0.468   4.760  11.665  0.5466 -0.6627 -1.3385
18083TIP3   OH275739   5.159   3.633   5.634  0.2500 -0.1799  0.2080
18083TIP3    H175740   5.232   3.571   5.625  0.7027  0.5657 -2.1595
18083TIP3    H275741   5.081   3.578   5.625  0.5760 -0.6890  0.3945
18084TIP3   OH275742   2.642   3.528  16.666 -0.3536 -0.5857 -0.1655
18084TIP3    H175743   2.658   3.573  16.583 -0.0146 -0.8464 -0.2431
18084TIP3    H275744   2.572   3.579  16.707  1.3550  1.2458  0.6536
18085TIP3   OH275745   4.518   5.190   2.912  0.7987 -0.2460  0.3991
18085TIP3    H175746   4.452   5.134   2.872  1.4878 -1.4194  0.8512
18085TIP3    H275747   4.599   5.168   2.867  0.7098  2.1653 -1.1113
18086TIP3   OH275748   6.771   4.166   2.552 -0.3912  0.0605 -0.1790
18086TIP3    H175749   6.853   4.209   2.527 -0.4146  0.4069  0.3387
18086TIP3    H275750   6.730   4.226   2.614 -1.1803  0.0211 -0.6606
18087TIP3   OH275751   6.746   1.526   5.561  0.0342  0.6873 -0.8720
18087TIP3    H175752   6.725   1.591   5.629 -0.3057  0.8092 -1.0945
18087TIP3    H275753   6.662   1.506   5.520  0.1464  0.1465 -0.8446
18088TIP3   OH275754   4.909   0.835  12.774  0.2283 -0.2659  0.3515
18088TIP3    H175755   4.884   0.914  12.728  0.8570 -0.0999  0.2792
18088TIP3    H275756   4.893   0.764  12.712  2.6824  0.1019 -0.8145
18089TIP3   OH275757   5.335   3.135   2.794  0.0461  0.9226  0.3837
18089TIP3    H175758   5.423   3.116   2.824  1.1660  0.8683 -2.5540
18089TIP3    H275759   5.343   3.220   2.750 -1.2602  0.7375 -0.2546
18090TIP3   OH275760   4.643   4.030   2.653  0.2288  0.0613  0.0627
18090TIP3    H175761   4.588   3.952   2.641  1.4934 -0.7027 -1.1194
18090TIP3    H275762   4.621   4.063   2.740  0.1649 -2.0410  0.8926
18091TIP3   OH275763   6.051   1.299   2.604 -0.6261 -0.3985 -0.8816
18091TIP3    H175764   5.962   1.300   2.568  0.0198 -0.8792 -2.6097
18091TIP3    H275765   6.091   1.378   2.570 -0.2014 -0.4965 -0.6150
18092TIP3   OH275766   0.743   6.669  13.164  0.1619 -0.0081 -0.0038
18092TIP3    H175767   0.735   6.584  13.121 -0.7119 -0.0359  0.1976
18092TIP3    H275768   0.696   6.729  13.105 -0.3155  0.1043  0.4885
18093TIP3   OH275769   5.327   5.701  11.073  0.7365  0.1176  0.5977
18093TIP3    H175770   5.351   5.751  10.995  0.5652 -0.6543  0.0370
18093TIP3    H275771   5.403   5.710  11.131  1.3610 -0.2381 -0.1353
18094TIP3   OH275772   2.665   6.175   6.276 -0.1500 -0.6278 -0.3609
18094TIP3    H175773   2.655   6.243   6.344 -0.9386 -2.8694  1.9396
18094TIP3    H275774   2.696   6.098   6.324 -1.7773 -2.6644 -2.3784
18095TIP3   OH275775   5.191   0.228   4.724  0.0662  0.5668  0.1855
18095TIP3    H175776   5.107   0.184   4.709 -0.5902  1.5500  0.8131
18095TIP3    H275777   5.254   0.177   4.674 -0.6375 -1.1450  0.9636
18096TIP3   OH275778   5.854   1.043   2.451 -0.2880  0.2158  0.4678
18096TIP3    H175779   5.828   0.952   2.464 -1.8779  0.0287 -2.9032
18096TIP3    H275780   5.918   1.040   2.380 -1.1814  1.7722 -0.4659
18097TIP3   OH275781   1.935   5.304   4.178 -0.0805  0.1665 -0.2310
18097TIP3    H175782   1.899   5.252   4.249 -3.2812  1.7652 -0.5166
18097TIP3    H275783   2.018   5.338   4.213 -1.3375  0.5756  2.6219
18098TIP3   OH275784   4.335   4.773   6.800  0.0336 -0.6429 -0.2847
18098TIP3    H175785   4.279   4.698   6.816  1.8362 -2.0719 -0.3762
18098TIP3    H275786   4.274   4.846   6.787 -1.7633 -2.0444 -0.1318
18099TIP3   OH275787   2.813   5.009  15.609 -0.1077 -0.2958 -0.1735
18099TIP3    H175788   2.843   4.928  15.650 -0.5739  0.1372  1.0864
18099TIP3    H275789   2.743   5.040  15.667 -1.1480  0.0903 -1.5872
18100TIP3   OH275790   3.757   1.481  16.795  0.0346 -0.3014  0.0633
18100TIP3    H175791   3.832   1.431  16.828  1.3733  1.8430  0.4591
18100TIP3    H275792   3.775   1.496  16.703 -0.4681 -0.7080 -0.1087
18101TIP3   OH275793   2.648   3.054  13.688 -0.2546 -0.5381 -0.1216
18101TIP3    H175794   2.675   3.006  13.766 -0.6925 -0.5338  0.0348
18101TIP3    H275795   2.582   2.997  13.647 -0.9098 -0.0006  0.1598
18102TIP3   OH275796   4.390   5.844  16.978 -0.4266 -0.2106  0.0978
18102TIP3    H175797   4.340   5.871  16.902 -1.4109 -0.6743  0.5673
18102TIP3    H275798   4.377   5.749  16.984 -1.5398 -0.0025  1.6430
18103TIP3   OH275799   0.429   4.377  12.513 -0.1513  0.2662 -0.1942
18103TIP3    H175800   0.398   4.288  12.501  1.3586 -0.0789 -1.9459
18103TIP3    H275801   0.518   4.367  12.546 -0.4476  1.1699  0.9581
18104TIP3   OH275802   5.352   2.810  11.881  0.0028  0.7122  0.2358
18104TIP3    H175803   5.313   2.898  11.886 -0.1438  0.6026  1.1336
18104TIP3    H275804   5.410   2.805  11.957  0.7001  0.3479 -0.3014
18105TIP3   OH275805   3.780   0.110   3.558  0.3118 -0.3661 -0.3409
18105TIP3    H175806   3.746   0.141   3.474 -1.3831  0.4048  0.5829
18105TIP3    H275807   3.717   0.044   3.587  0.7628 -0.4676  0.4341
18106TIP3   OH275808   4.319   2.197   0.371 -0.2538 -0.3030 -0.7446
18106TIP3    H175809   4.402   2.228   0.409 -1.0637 -0.2473  1.0905
18106TIP3    H275810   4.331   2.208   0.277  0.9466  1.9435 -0.4162
18107TIP3   OH275811   2.698   6.534  13.489  0.1581 -0.3602 -0.3712
18107TIP3    H175812   2.712   6.447  13.524  0.2489 -0.6051 -0.9936
18107TIP3    H275813   2.661   6.520  13.402  0.1465  0.2186 -0.4686
18108TIP3   OH275814   4.024   6.717   3.861 -0.3183  0.3180 -0.3853
18108TIP3    H175815   4.034   6.799   3.813  2.3512  0.9246  1.0230
18108TIP3    H275816   3.942   6.728   3.910 -0.5861  1.6520 -1.0797
18109TIP3   OH275817   5.706   6.754   3.722 -0.4429 -0.1845 -0.4597
18109TIP3    H175818   5.695   6.660   3.708  2.3269 -0.6945  0.1737
18109TIP3    H275819   5.787   6.776   3.676 -0.5452  1.7119  0.1804
18110TIP3   OH275820   2.328   5.969   0.433 -0.0420 -0.3401  0.7359
18110TIP3    H175821   2.279   5.925   0.502  0.3339 -0.2910  1.0399
18110TIP3    H275822   2.272   5.964   0.356  0.5270 -2.4917  0.3978
18111TIP3   OH275823   5.716   0.993  13.643  0.3212  0.1902  0.6511
18111TIP3    H175824   5.783   1.003  13.575  1.3201  1.5026  1.7751
18111TIP3    H275825   5.735   1.062  13.706 -1.5806  0.0416  1.4589
18112TIP3   OH275826   3.124   3.232  14.192 -0.5505 -0.6100 -0.0530
18112TIP3    H175827   3.078   3.310  14.223 -0.5139 -0.8616  0.6690
18112TIP3    H275828   3.122   3.172  14.267 -1.9650 -1.9247 -1.1027
18113TIP3   OH275829   1.239   0.429   5.824  0.6854 -0.2809  0.2393
18113TIP3    H175830   1.332   0.443   5.804  1.0075  0.6899  2.2020
18113TIP3    H275831   1.238   0.363   5.893 -0.0305  0.1547  0.6617
18114TIP3   OH275832   4.141   3.021   1.354  0.2026  0.5307 -0.1156
18114TIP3    H175833   4.098   3.107   1.350 -0.2491  0.3641  0.8465
18114TIP3    H275834   4.217   3.030   1.297 -0.4824  1.1992 -0.9496
18115TIP3   OH275835   6.238   2.862  16.504  0.0034 -0.4311 -0.3753
18115TIP3    H175836   6.248   2.919  16.581 -0.7397  0.9195 -1.2346
18115TIP3    H275837   6.315   2.805  16.507 -0.2864 -0.7896  1.6525
18116TIP3   OH275838   4.518   5.696   1.474  0.1146  0.4747 -0.1386
18116TIP3    H175839   4.441   5.748   1.497 -0.3445 -0.1701 -0.1985
18116TIP3    H275840   4.581   5.714   1.543  0.0743  1.3436 -0.3188
18117TIP3   OH275841   2.143   2.068   2.426  0.1811 -0.2526 -0.7407
18117TIP3    H175842   2.139   2.160   2.452  2.1785  0.0979 -1.4739
18117TIP3    H275843   2.114   2.068   2.335  1.4265 -0.1209 -1.1517
18118TIP3   OH275844   1.913   3.061   3.018 -0.2996 -0.1931  0.0749
18118TIP3    H175845   1.821   3.070   2.992 -0.0846  1.0497 -0.3137
18118TIP3    H275846   1.957   3.028   2.939 -0.4890 -1.3885  0.4411
18119TIP3   OH275847   6.216   5.537  12.335  0.3741  0.1862 -0.1464
18119TIP3    H175848   6.202   5.570  12.246 -0.7651 -1.3333 -0.5728
18119TIP3    H275849   6.283   5.595  12.371 -1.9901  3.4428 -0.5186
18120TIP3   OH275850   1.764   0.193  11.123  0.0891  0.5758 -0.2884
18120TIP3    H175851   1.674   0.225  11.125  0.1256  0.6298  0.6888
18120TIP3    H275852   1.757   0.103  11.091 -0.4322  0.2255  0.7701
18121TIP3   OH275853   1.427   4.536  11.617 -0.0849  0.1198 -0.3038
18121TIP3    H175854   1.368   4.595  11.665 -0.7319 -0.6238 -0.1644
18121TIP3    H275855   1.462   4.591  11.547 -1.0599  0.5539 -0.4801
18122TIP3   OH275856   1.358   4.401  14.023 -0.2259  0.0400  0.0801
18122TIP3    H175857   1.328   4.430  13.937 -1.3491  2.2999  1.1351
18122TIP3    H275858   1.278   4.401  14.077  0.1960 -2.6671  0.8619
18123TIP3   OH275859   3.295   5.719  12.914 -0.1631  0.2849  0.1117
18123TIP3    H175860   3.312   5.746  13.004  1.3141  0.9143 -0.3256
18123TIP3    H275861   3.213   5.670  12.918 -1.0022  1.7313  1.5273
18124TIP3   OH275862   5.207   0.564  11.228 -0.1899  0.0151  0.7616
18124TIP3    H175863   5.141   0.621  11.267 -0.9615 -1.7313  2.1525
18124TIP3    H275864   5.158   0.487  11.200  0.7949  0.0486 -1.2272
18125TIP3   OH275865   2.274   6.265  16.563  0.2452 -0.2571 -0.2120
18125TIP3    H175866   2.351   6.297  16.609  0.5692  0.9252 -1.5071
18125TIP3    H275867   2.305   6.188  16.515  0.5243 -0.0224 -0.4103
18126TIP3   OH275868   6.485   4.273   3.529 -0.3790  0.8338  0.6209
18126TIP3    H175869   6.476   4.324   3.610 -0.6642 -1.7722  2.3619
18126TIP3    H275870   6.574   4.292   3.499 -0.0670  1.4803  1.8727
18127TIP3   OH275871   5.342   2.337  15.326  0.3768 -0.1555  0.1975
18127TIP3    H175872   5.395   2.270  15.283 -0.4403  0.1137 -1.2937
18127TIP3    H275873   5.291   2.290  15.391  2.1340 -0.4768  1.4117
18128TIP3   OH275874   5.008   0.867  15.241 -0.8145  0.3056 -0.2376
18128TIP3    H175875   5.059   0.792  15.211 -1.3326 -0.4182  0.6618
18128TIP3    H275876   5.045   0.942  15.193  0.9976 -0.2121  0.2839
18129TIP3   OH275877   0.110   3.950  10.661  0.1395  0.1514 -0.7341
18129TIP3    H175878   0.200   3.951  10.631 -0.3575  0.8231 -2.3069
18129TIP3    H275879   0.089   3.857  10.673  0.7384 -0.0624 -1.3137
18130TIP3   OH275880   1.645   4.188  14.928 -0.1076  0.3531 -0.4902
18130TIP3    H175881   1.614   4.184  14.838 -2.0957  1.9183  0.0504
18130TIP3    H275882   1.715   4.123  14.933  2.2871  2.3241 -3.9578
18131TIP3   OH275883   1.739   1.216   4.467  0.4728  0.1522 -0.1665
18131TIP3    H175884   1.683   1.243   4.394  0.5890 -0.6125 -0.5446
18131TIP3    H275885   1.799   1.152   4.429  0.1336 -0.7216  0.7334
18132TIP3   OH275886   1.208   2.996  16.934  0.6682 -0.2235  0.1876
18132TIP3    H175887   1.208   2.901  16.917 -0.0751 -0.2234  0.1500
18132TIP3    H275888   1.139   3.031  16.877  0.4965  0.2460  0.6712
18133TIP3   OH275889   1.132   6.327   5.226 -0.1723  0.0411 -0.4195
18133TIP3    H175890   1.162   6.418   5.216 -1.3824  0.2733 -2.3892
18133TIP3    H275891   1.037   6.332   5.226 -0.2904 -1.3329 -2.0354
18134TIP3   OH275892   2.041   6.719   3.995 -0.0798  0.0384 -0.8179
18134TIP3    H175893   2.113   6.756   3.944 -0.4773  2.6463  0.3468
18134TIP3    H275894   2.074   6.717   4.084 -1.2343  0.8011 -0.3474
18135TIP3   OH275895   0.627   1.489  14.857 -0.0646  0.3929 -0.2087
18135TIP3    H175896   0.695   1.519  14.918 -0.4275  0.3593  0.2199
18135TIP3    H275897   0.641   1.541  14.778  1.3789 -0.6383 -0.6663
18136TIP3   OH275898   4.371   0.149  10.641 -0.6349  0.1189  0.0838
18136TIP3    H175899   4.405   0.191  10.562  0.1828  0.5561  0.6398
18136TIP3    H275900   4.323   0.218  10.687 -1.0099 -0.1012  0.0259
18137TIP3   OH275901   4.637   3.911   5.465  0.4015 -0.0378 -0.1253
18137TIP3    H175902   4.573   3.895   5.396 -1.3180 -0.2611  1.4300
18137TIP3    H275903   4.665   3.824   5.493  0.7515  0.0404 -0.2205
18138TIP3   OH275904   0.104   0.604   0.463 -0.4223  0.2411  0.1773
18138TIP3    H175905   0.015   0.575   0.487 -0.4548  0.4443  0.3020
18138TIP3    H275906   0.157   0.525   0.472 -0.4914  0.2421  0.6310
18139TIP3   OH275907   4.504   4.136  17.017 -0.5848  0.3042 -0.4506
18139TIP3    H175908   4.555   4.114  16.940  0.7523 -1.0351  0.7516
18139TIP3    H275909   4.551   4.210  17.056  0.6736 -1.0900  0.7944
18140TIP3   OH275910   6.790   0.878  12.821 -0.6015 -0.3914 -0.4026
18140TIP3    H175911   6.747   0.883  12.735  1.2453 -1.3656 -1.4481
18140TIP3    H275912   6.749   0.802  12.863  0.5153 -1.7821 -1.6917
18141TIP3   OH275913   4.553   0.323  15.259  0.3388  0.0582  0.3376
18141TIP3    H175914   4.618   0.258  15.287  0.1798  0.2866  1.2779
18141TIP3    H275915   4.604   0.402  15.244  0.4902 -0.1906 -0.5070
18142TIP3   OH275916   5.731   4.528  15.615  0.0779 -0.8647 -0.0800
18142TIP3    H175917   5.709   4.602  15.559  0.7735  0.2324  1.0345
18142TIP3    H275918   5.676   4.539  15.692  1.7481 -0.2039  1.0761
18143TIP3   OH275919   5.081   5.177   6.421  0.2971 -0.4019  0.2882
18143TIP3    H175920   5.054   5.085   6.422  0.8795 -0.5867 -0.2897
18143TIP3    H275921   5.156   5.182   6.479  0.0190 -0.2064  0.6365
18144TIP3   OH275922   4.470   4.879  13.144  0.7283  0.2682  0.0299
18144TIP3    H175923   4.492   4.788  13.164  0.6375  0.2962  0.2636
18144TIP3    H275924   4.553   4.919  13.117  1.1315  0.5554  1.5708
18145TIP3   OH275925   4.051   2.386  10.905  0.3532  0.5846  0.0349
18145TIP3    H175926   4.020   2.403  10.816 -1.1635 -0.5663  0.3049
18145TIP3    H275927   4.100   2.305  10.899 -0.5722 -0.0217  0.3864
18146TIP3   OH275928   3.868   2.754   5.877 -0.5666  0.1484 -0.0943
18146TIP3    H175929   3.885   2.683   5.938 -0.4076  1.1177  1.0130
18146TIP3    H275930   3.805   2.810   5.922 -0.9410  0.5484 -1.0861
18147TIP3   OH275931   0.572   5.105   1.560  0.0822 -0.1718 -0.1307
18147TIP3    H175932   0.523   5.154   1.626  1.9667  1.5801  0.0803
18147TIP3    H275933   0.507   5.047   1.520 -1.0025 -2.1615  3.9037
18148TIP3   OH275934   4.722   2.150  15.670 -1.0115 -0.1924 -0.0260
18148TIP3    H175935   4.708   2.200  15.590  0.8172  0.4631  0.0150
18148TIP3    H275936   4.738   2.215  15.738  1.8542 -0.7522 -0.0578
18149TIP3   OH275937   4.743   1.833  14.004 -0.3121 -0.4152  0.1089
18149TIP3    H175938   4.784   1.920  13.997  1.0752 -0.9960  0.5616
18149TIP3    H275939   4.695   1.822  13.923  0.9571  0.0754 -0.7447
18150TIP3   OH275940   3.016   6.216  11.608 -0.9219  0.0396 -0.0514
18150TIP3    H175941   3.102   6.230  11.569 -1.6164 -0.0798 -1.7500
18150TIP3    H275942   3.015   6.123  11.630 -0.8650 -0.1322 -0.7337
18151TIP3   OH275943   2.415   0.824  12.113 -0.2884  0.5270 -0.4220
18151TIP3    H175944   2.488   0.852  12.058 -0.2585  0.9368 -0.1698
18151TIP3    H275945   2.423   0.876  12.193 -0.3341 -0.0692 -0.0244
18152TIP3   OH275946   6.109   1.038  11.079 -0.1227 -0.6558 -0.2497
18152TIP3    H175947   6.138   1.097  11.010 -2.0615  0.0034 -0.5593
18152TIP3    H275948   6.138   0.951  11.050  3.2620  0.0830  0.4911
18153TIP3   OH275949   6.803   4.516   4.922  0.3486  0.2036 -0.3663
18153TIP3    H175950   6.774   4.432   4.959  2.3365 -0.7195 -0.7032
18153TIP3    H275951   6.746   4.530   4.847 -0.0943 -0.8065 -0.2420
18154TIP3   OH275952   5.771   2.942   0.493  0.2635  0.6992  0.3053
18154TIP3    H175953   5.853   2.930   0.540  0.3358 -0.5132 -0.0984
18154TIP3    H275954   5.796   2.940   0.400 -0.3943 -1.6430  0.1041
18155TIP3   OH275955   3.229   5.658   5.959  0.1251 -0.5575 -0.7023
18155TIP3    H175956   3.220   5.575   5.911 -1.9362  0.6149 -2.5210
18155TIP3    H275957   3.318   5.687   5.939  1.1515 -2.6211  0.5581
18156TIP3   OH275958   3.889   2.617  14.895  0.0617 -0.2823 -0.3934
18156TIP3    H175959   3.982   2.609  14.874  0.1896 -0.4447  0.2203
18156TIP3    H275960   3.862   2.528  14.917  0.5149  0.2042  2.5048
18157TIP3   OH275961   3.520   6.193  12.297  0.0289 -0.6156  0.0197
18157TIP3    H175962   3.516   6.184  12.201 -1.0933 -0.7640  0.0658
18157TIP3    H275963   3.497   6.285  12.313 -0.2975 -0.7248  0.1750
18158TIP3   OH275964   4.783   3.920   1.005 -0.0756 -0.0702  0.0482
18158TIP3    H175965   4.723   3.992   0.984 -0.9085 -0.9167 -0.5188
18158TIP3    H275966   4.863   3.964   1.035  0.6024  1.2684 -3.2269
18159TIP3   OH275967   0.612   2.483  12.646  0.0600  0.5187  0.3767
18159TIP3    H175968   0.616   2.447  12.735 -1.1179  0.5475  0.4595
18159TIP3    H275969   0.575   2.570  12.657  1.0191  0.9986 -0.0373
18160TIP3   OH275970   3.202   6.512  15.421 -0.4548  0.2615  0.3083
18160TIP3    H175971   3.141   6.439  15.420  0.0263 -0.1674 -1.0450
18160TIP3    H275972   3.288   6.471  15.435 -0.2692  0.6455  0.3119
18161TIP3   OH275973   1.234   2.379  16.457  0.0373  0.0085  0.2473
18161TIP3    H175974   1.272   2.416  16.378 -1.8099 -0.6754 -1.0271
18161TIP3    H275975   1.305   2.381  16.521  1.5085  0.8251 -1.3302
18162TIP3   OH275976   5.663   4.463  14.943  0.1069  0.4557 -0.0806
18162TIP3    H175977   5.735   4.430  14.997  1.2512  0.3338 -1.6126
18162TIP3    H275978   5.695   4.546  14.909 -1.1937  1.2529  0.5756
18163TIP3   OH275979   1.281   6.799  15.152  0.0901 -0.0569  0.3955
18163TIP3    H175980   1.372   6.779  15.173  0.3023 -0.5499 -0.8974
18163TIP3    H275981   1.242   6.823  15.236  0.8515 -1.9726  1.3591
18164TIP3   OH275982   3.389   1.755   3.278  0.6772  0.0917  0.4687
18164TIP3    H175983   3.440   1.787   3.203  0.7635  0.5066  0.7037
18164TIP3    H275984   3.405   1.660   3.278 -0.9487 -0.2530 -1.2765
18165TIP3   OH275985   0.289   3.824  13.907  0.2060  0.2231 -0.4212
18165TIP3    H175986   0.363   3.769  13.931 -0.4724 -0.7219 -0.4040
18165TIP3    H275987   0.315   3.864  13.824  1.2081  0.8728  0.1847
18166TIP3   OH275988   5.883   2.234   4.822 -0.0199  0.0076  0.2979
18166TIP3    H175989   5.850   2.324   4.824 -0.7618 -0.2561  0.2048
18166TIP3    H275990   5.941   2.231   4.745  0.4335  0.5429  0.6118
18167TIP3   OH275991   4.787   3.640  14.315 -0.2010  0.1196 -0.1881
18167TIP3    H175992   4.728   3.682  14.253 -0.8303 -1.6549 -0.8430
18167TIP3    H275993   4.731   3.584  14.368  0.5535  0.4182  0.9636
18168TIP3   OH275994   3.787   0.553  17.009  0.4750 -0.1025  0.0001
18168TIP3    H175995   3.858   0.573  16.948  1.0483  0.4526  0.8378
18168TIP3    H275996   3.735   0.634  17.012  1.9891  0.8580  2.3044
18169TIP3   OH275997   2.415   1.290  14.550 -0.7070 -0.2613 -0.0786
18169TIP3    H175998   2.448   1.201  14.560 -1.0494 -0.7649 -2.7892
18169TIP3    H275999   2.492   1.343  14.531 -0.5796 -0.0372  0.9757
18170TIP3   OH276000   0.855   6.323   5.284 -0.0016 -0.7043 -0.4398
18170TIP3    H176001   0.776   6.314   5.338 -1.3225 -0.6461 -2.2846
18170TIP3    H276002   0.826   6.306   5.195  1.8450  0.4593 -1.3332
18171TIP3   OH276003   5.987   1.854   4.814  0.4025 -0.2478  0.2711
18171TIP3    H176004   6.027   1.926   4.765 -0.1529  0.3932  0.7409
18171TIP3    H276005   5.893   1.863   4.797  0.3120 -0.7407  0.4985
18172TIP3   OH276006   1.588   2.023   6.042 -0.5849  0.3765  0.4358
18172TIP3    H176007   1.666   2.023   6.098  0.9947  0.6803 -1.6213
18172TIP3    H276008   1.569   2.116   6.028 -1.5620  0.3046  1.2042
18173TIP3   OH276009   0.331   4.601  14.742 -0.1739  0.0632 -0.4318
18173TIP3    H176010   0.355   4.645  14.824 -0.5722  1.2312 -0.9105
18173TIP3    H276011   0.320   4.673  14.680  0.6443 -0.8350 -1.6568
18174TIP3   OH276012   3.991   4.182  14.090 -0.0000  0.8621 -0.3539
18174TIP3    H176013   3.983   4.152  14.000  0.1415 -0.6386  0.0987
18174TIP3    H276014   4.085   4.183  14.107 -0.0581  0.0098  0.1061
18175TIP3   OH276015   6.450   2.476   6.000 -0.2302  0.3385 -0.5795
18175TIP3    H176016   6.539   2.447   5.980 -0.1448  0.3666 -0.2494
18175TIP3    H276017   6.449   2.484   6.096 -0.2858  1.3095 -0.6517
18176TIP3   OH276018   1.162   4.185   0.609 -0.1711  0.2218 -0.2199
18176TIP3    H176019   1.117   4.269   0.608 -0.4900  0.0585 -2.0043
18176TIP3    H276020   1.178   4.165   0.517  1.2892 -0.9391  0.2520
18177TIP3   OH276021   3.527   5.720   5.056  0.0018 -0.0375  0.4015
18177TIP3    H176022   3.439   5.696   5.085  0.8683 -1.3846  2.0703
18177TIP3    H276023   3.533   5.687   4.966 -1.7866  1.7357 -0.4538
18178TIP3   OH276024   6.269   6.568   0.095  0.3004 -0.5089 -0.3092
18178TIP3    H176025   6.359   6.542   0.116  0.8766  0.3665 -1.5522
18178TIP3    H276026   6.251   6.526   0.010  0.9947  2.3384 -2.0014
18179TIP3   OH276027   5.468   2.535  12.927  0.3314 -0.2092 -0.0553
18179TIP3    H176028   5.553   2.574  12.948  0.2540  0.2115 -0.5115
18179TIP3    H276029   5.405   2.605  12.941  0.3245  0.2556 -2.1225
18180TIP3   OH276030   4.961   4.325  14.248 -0.2065 -0.2314  0.3319
18180TIP3    H176031   5.007   4.354  14.169  0.4173  0.0620  0.7945
18180TIP3    H276032   4.872   4.358  14.237 -0.7805 -2.1636 -1.3084
18181TIP3   OH276033   6.555   6.591   1.497  0.5505 -0.6757 -0.1655
18181TIP3    H176034   6.611   6.584   1.574 -1.5425 -1.6497  1.3642
18181TIP3    H276035   6.466   6.592   1.532 -0.4419  2.4593 -2.3674
18182TIP3   OH276036   4.470   4.094  12.732 -0.0275 -0.5541  0.3509
18182TIP3    H176037   4.389   4.070  12.776 -0.7800 -0.5743 -0.9730
18182TIP3    H276038   4.443   4.111  12.641  1.4044 -0.2851 -0.0453
18183TIP3   OH276039   4.065   4.359   3.662 -0.6000  0.4565 -0.0221
18183TIP3    H176040   3.970   4.351   3.648 -0.7210  0.0220  0.9553
18183TIP3    H276041   4.082   4.453   3.659 -0.9508  0.5041 -0.8402
18184TIP3   OH276042   5.955   1.981  12.740  0.0220 -0.3065 -0.0107
18184TIP3    H176043   5.951   2.058  12.796 -0.3074 -0.4924  0.2280
18184TIP3    H276044   5.926   1.909  12.797 -0.8754 -0.4104 -0.5687
18185TIP3   OH276045   0.975   4.257  14.551  0.1372  0.0588  0.2253
18185TIP3    H176046   0.893   4.206  14.554  0.8906 -1.4407 -1.9028
18185TIP3    H276047   0.971   4.302  14.467  1.3770  0.2026  0.2346
18186TIP3   OH276048   6.428   3.616  13.801  0.3039 -0.2568 -0.6562
18186TIP3    H176049   6.336   3.591  13.806  0.5156 -0.9032  1.6227
18186TIP3    H276050   6.433   3.698  13.850  0.8571  0.0218 -1.1785
18187TIP3   OH276051   3.792   2.287  12.594  0.2193  0.6189 -0.0701
18187TIP3    H176052   3.799   2.361  12.653 -2.0018  1.5588 -0.8874
18187TIP3    H276053   3.762   2.214  12.649  0.0206  0.9720  0.2909
18188TIP3   OH276054   1.050   5.523   2.270  0.2719  0.2722 -0.0632
18188TIP3    H176055   1.110   5.511   2.343  0.5095 -1.0917 -0.4637
18188TIP3    H276056   1.016   5.612   2.282  0.2081  0.0483  1.7751
18189TIP3   OH276057   1.414   3.695  14.307 -0.3936  0.1516  0.2450
18189TIP3    H176058   1.385   3.737  14.226 -1.0821  1.8983  1.3467
18189TIP3    H276059   1.507   3.716  14.312 -0.6117  1.0997  0.5024
18190TIP3   OH276060   2.201   0.077  14.589  0.1915 -0.4807 -0.0476
18190TIP3    H176061   2.165   0.022  14.659  0.2809  0.8147  1.0501
18190TIP3    H276062   2.266   0.132  14.632 -0.4456  1.0342 -0.9408
18191TIP3   OH276063   1.371   2.755  14.311 -0.3905  0.4696 -1.0538
18191TIP3    H176064   1.451   2.804  14.327 -0.7672  0.3737  1.7128
18191TIP3    H276065   1.398   2.663  14.314 -0.5588  0.4374 -0.1224
18192TIP3   OH276066   4.110   5.092  16.109 -0.2383 -0.5433  0.0738
18192TIP3    H176067   4.086   5.021  16.168 -0.0218 -1.1974 -0.6019
18192TIP3    H276068   4.037   5.098  16.047 -1.2204  1.2202  1.3412
18193TIP3   OH276069   2.367   6.222   4.074 -0.0901  0.0313 -0.0987
18193TIP3    H176070   2.368   6.190   4.164 -0.2530 -0.0536 -0.1279
18193TIP3    H276071   2.413   6.306   4.079 -0.8076  0.4136  0.2116
18194TIP3   OH276072   4.007   3.020  15.817  0.2023  0.5391  0.0790
18194TIP3    H176073   3.961   2.974  15.888  0.1172  0.6561  0.1008
18194TIP3    H276074   3.958   2.997  15.738  0.6231 -0.0339 -0.0244
18195TIP3   OH276075   3.573   1.213   1.130 -0.0565 -0.2562  0.0854
18195TIP3    H176076   3.484   1.243   1.149  0.2687 -0.0323  1.3533
18195TIP3    H276077   3.573   1.197   1.035 -0.6350  2.4345 -0.4518
18196TIP3   OH276078   0.428   5.030   3.817  0.4983 -0.2159  0.5190
18196TIP3    H176079   0.385   5.115   3.831  0.7432 -0.0710  0.4128
18196TIP3    H276080   0.484   5.045   3.741 -0.4312 -0.8365 -0.3126
18197TIP3   OH276081   0.371   0.518   1.515 -0.0059 -0.1497  0.0469
18197TIP3    H176082   0.393   0.429   1.543  0.2359 -0.7352 -1.8289
18197TIP3    H276083   0.317   0.553   1.585 -0.1960 -1.8220  0.7866
18198TIP3   OH276084   4.323   6.281   4.150 -0.3973 -0.2369 -0.3422
18198TIP3    H176085   4.327   6.298   4.055 -1.5657  1.2682 -0.1645
18198TIP3    H276086   4.236   6.311   4.176 -1.0269 -2.8544  0.8328
18199TIP3   OH276087   0.946   2.324   5.034  0.6169 -0.7090 -0.1004
18199TIP3    H176088   0.912   2.242   5.069 -0.4075 -1.3082 -2.2937
18199TIP3    H276089   0.893   2.392   5.076 -1.0227 -1.4339 -0.9142
18200TIP3   OH276090   4.132   3.853   4.858  0.2598  0.3337  0.0323
18200TIP3    H176091   4.037   3.855   4.870 -0.1224  0.1501 -2.3732
18200TIP3    H276092   4.145   3.787   4.789  1.9818  1.4670 -0.7718
18201TIP3   OH276093   0.787   1.866  13.137 -0.5384  0.2139  0.0959
18201TIP3    H176094   0.799   1.884  13.044  1.3185  1.0056  0.4408
18201TIP3    H276095   0.702   1.904  13.158  0.4839  3.1323 -0.5667
18202TIP3   OH276096   3.280   3.763  15.574 -0.2483 -1.1274 -0.6497
18202TIP3    H176097   3.311   3.673  15.565 -0.0053 -0.9520 -1.6769
18202TIP3    H276098   3.319   3.809  15.500  0.8900  0.1800  0.6937
18203TIP3   OH276099   5.014   5.327  12.446 -0.3316 -0.1857  0.4031
18203TIP3    H176100   4.941   5.387  12.461 -0.6436 -0.3707 -0.3428
18203TIP3    H276101   5.065   5.331  12.527 -1.2529 -0.1817  0.9952
18204TIP3   OH276102   0.376   1.899  12.512  0.1397 -0.1775  0.3152
18204TIP3    H176103   0.471   1.895  12.500 -0.0719  0.6951 -2.1712
18204TIP3    H276104   0.357   1.992  12.522 -0.5313 -0.2831  0.0536
18205TIP3   OH276105   5.628   0.424  12.370  0.1479 -0.4321  0.1082
18205TIP3    H176106   5.581   0.352  12.412 -1.7616 -0.6802 -2.2611
18205TIP3    H276107   5.565   0.495  12.366  1.4558  0.8199  0.8271
18206TIP3   OH276108   3.713   4.417   3.166 -0.4145 -0.6312 -0.4741
18206TIP3    H176109   3.643   4.452   3.111  0.3537 -0.7682 -1.5714
18206TIP3    H276110   3.694   4.323   3.173  0.2773 -0.8887 -1.7568
18207TIP3   OH276111   0.214   5.024   5.409 -0.0601 -0.6864 -0.3317
18207TIP3    H176112   0.180   4.945   5.449  0.5360 -0.1327  1.3383
18207TIP3    H276113   0.249   4.995   5.324  0.1101 -2.1821  0.2255
18208TIP3   OH276114   6.653   3.364   4.257 -0.2720  0.1058 -0.5325
18208TIP3    H176115   6.660   3.406   4.171 -0.7188  1.4736  0.0850
18208TIP3    H276116   6.615   3.278   4.238  0.1959  0.1449 -1.7660
18209TIP3   OH276117   0.392   5.998  14.951  0.1177 -0.2989 -0.0899
18209TIP3    H176118   0.314   6.054  14.952 -0.3061 -0.8559 -0.9660
18209TIP3    H276119   0.430   6.009  15.039 -0.0267  1.2408 -0.1908
18210TIP3   OH276120   4.072   5.623   2.963  0.2922 -0.3976  0.5534
18210TIP3    H176121   4.112   5.686   2.904  0.9750 -0.1447  1.2764
18210TIP3    H276122   3.999   5.670   3.003  0.5399 -0.1978  0.7726
18211TIP3   OH276123   0.867   6.239  14.996  0.2208 -0.4016 -0.4920
18211TIP3    H176124   0.903   6.236  15.085  0.2382  0.5944 -0.4583
18211TIP3    H276125   0.854   6.147  14.973  3.3718 -0.8880 -0.7577
18212TIP3   OH276126   4.832   3.009   4.667 -0.2315  0.5839  0.0652
18212TIP3    H176127   4.839   2.915   4.686  0.0180  0.2025 -1.7877
18212TIP3    H276128   4.739   3.022   4.648 -0.4937  0.9829  1.4822
18213TIP3   OH276129   2.540   4.567  13.512 -0.3461 -0.5122 -0.5455
18213TIP3    H176130   2.611   4.513  13.476  0.8733  1.7127 -1.6953
18213TIP3    H276131   2.470   4.559  13.448  0.5757  0.7479 -1.7938
18214TIP3   OH276132   6.814   6.374   0.807 -0.4674 -0.7079  0.2896
18214TIP3    H176133   6.819   6.443   0.873 -0.5320 -0.9865  0.5882
18214TIP3    H276134   6.826   6.419   0.724 -0.3926 -0.3534  0.4926
18215TIP3   OH276135   0.432   4.889  15.209  0.4537 -0.5601  0.2720
18215TIP3    H176136   0.381   4.846  15.279  1.7078  0.0193  1.6037
18215TIP3    H276137   0.513   4.915  15.252  1.8410 -1.3129 -1.7384
18216TIP3   OH276138   6.160   5.815   3.165  0.1458 -0.1974  0.1521
18216TIP3    H176139   6.137   5.756   3.236 -1.7516  0.5860  0.2347
18216TIP3    H276140   6.121   5.776   3.087 -0.8003  0.7211  0.1447
18217TIP3   OH276141   6.182   5.180  10.614 -0.2852  0.2957 -0.1302
18217TIP3    H176142   6.218   5.099  10.578  1.0756  1.1100 -0.6997
18217TIP3    H276143   6.211   5.181  10.705 -0.4726  0.0629 -0.0664
18218TIP3   OH276144   6.113   1.871  14.389 -0.1457 -0.1754  0.1614
18218TIP3    H176145   6.095   1.905  14.476  0.5269  0.2841  0.1261
18218TIP3    H276146   6.171   1.796  14.404 -0.8119 -0.6943  0.1705
18219TIP3   OH276147   0.347   2.409  16.842  0.2536  0.5434 -0.3630
18219TIP3    H176148   0.379   2.359  16.917  1.0388 -0.7476 -1.5299
18219TIP3    H276149   0.252   2.401  16.847  0.1760  1.7952  1.3458
18220TIP3   OH276150   5.823   1.120   2.852 -0.6860 -0.3005 -0.0009
18220TIP3    H176151   5.836   1.215   2.849 -0.2745 -0.3712 -0.7643
18220TIP3    H276152   5.907   1.083   2.824 -0.0490 -0.9676  2.5178
18221TIP3   OH276153   3.131   1.872   4.265 -0.0275  0.0259  0.4105
18221TIP3    H176154   3.098   1.782   4.262  0.3519 -0.1044 -0.0369
18221TIP3    H276155   3.093   1.909   4.344 -1.4771 -0.0197 -0.2247
18222TIP3   OH276156   4.796   2.400   0.493 -0.3894 -0.1894  0.7494
18222TIP3    H176157   4.731   2.397   0.422  0.5352  0.1645 -0.1360
18222TIP3    H276158   4.869   2.347   0.460  0.3752  0.6272  1.1033
18223TIP3   OH276159   3.265   6.767   6.628 -0.3721 -0.2032 -0.0640
18223TIP3    H176160   3.279   6.673   6.633 -0.0012 -0.2826 -1.8707
18223TIP3    H276161   3.353   6.804   6.622 -0.4832  0.3393  1.2831
18224TIP3   OH276162   1.669   4.835   0.321  0.6264 -0.2372 -0.2355
18224TIP3    H176163   1.740   4.875   0.272  1.3967 -1.1727  0.0892
18224TIP3    H276164   1.651   4.752   0.276  0.6555 -0.6275  0.4524
18225TIP3   OH276165   2.419   1.134   1.723  0.1189  0.1582 -0.4133
18225TIP3    H176166   2.384   1.168   1.805 -1.6169 -1.4379 -0.4342
18225TIP3    H276167   2.471   1.207   1.687 -0.3357  1.4033  1.3325
18226TIP3   OH276168   4.171   4.548  12.368  0.3069  0.3825 -0.3181
18226TIP3    H176169   4.090   4.502  12.347  0.0550  0.4136  0.5682
18226TIP3    H276170   4.143   4.633  12.400  0.7211  0.6384 -0.6237
18227TIP3   OH276171   1.634   3.064  16.212 -0.3640  0.1785  0.0694
18227TIP3    H176172   1.682   3.147  16.218 -0.2886  0.1919 -0.5818
18227TIP3    H276173   1.692   2.999  16.251 -1.1722  0.7035  2.2779
18228TIP3   OH276174   1.373   2.985  12.948 -0.0599  0.1486 -0.1478
18228TIP3    H176175   1.381   2.936  13.030 -0.8490  0.7152  0.2775
18228TIP3    H276176   1.417   3.068  12.966 -1.2763  0.7529  0.1102
18229TIP3   OH276177   3.557   3.608   2.233  0.0763 -0.1236  0.0950
18229TIP3    H176178   3.553   3.521   2.272  0.9916  0.0488  0.6040
18229TIP3    H276179   3.635   3.607   2.179 -0.3567  0.1293 -0.5523
18230TIP3   OH276180   5.440   4.386  12.688  0.1649 -0.1613 -0.4347
18230TIP3    H176181   5.426   4.378  12.782 -1.8123  1.1126 -0.5607
18230TIP3    H276182   5.433   4.297  12.655  0.6206 -0.5849  0.5790
18231TIP3   OH276183   0.283   4.552  13.563 -0.0680  0.6661 -0.0446
18231TIP3    H176184   0.333   4.619  13.516  0.8155 -0.5388 -0.9011
18231TIP3    H276185   0.195   4.559  13.527  0.8204 -0.9598 -2.8674
18232TIP3   OH276186   0.894   1.820  11.783  0.3304 -0.4680 -0.1506
18232TIP3    H176187   0.960   1.806  11.850  1.1748 -1.5593 -1.1636
18232TIP3    H276188   0.811   1.795  11.825  0.4298  1.3373  1.2702
18233TIP3   OH276189   2.105   4.650   4.755  0.8210  0.6565 -0.0731
18233TIP3    H176190   2.182   4.594   4.742  0.8786  0.5626  0.6474
18233TIP3    H276191   2.095   4.697   4.672  1.2453  0.1605 -0.4057
18234TIP3   OH276192   6.082   3.648  15.777 -0.6594 -0.1791  0.2604
18234TIP3    H176193   6.071   3.596  15.857  0.2096  0.1742  0.6206
18234TIP3    H276194   6.010   3.621  15.721  0.1485 -2.2719  0.1627
18235TIP3   OH276195   2.638   4.273   1.262 -0.0734 -0.4786 -0.1182
18235TIP3    H176196   2.704   4.238   1.322 -0.5055  0.7117  1.0974
18235TIP3    H276197   2.687   4.332   1.204  0.0163  0.0062  0.4469
18236TIP3   OH276198   0.810   6.275   3.346  0.1451 -0.2907  0.8424
18236TIP3    H176199   0.797   6.202   3.285 -3.5749  0.3771  0.6025
18236TIP3    H276200   0.819   6.351   3.289 -1.9928  0.1456  0.9892
18237TIP3   OH276201   0.334   4.107  16.470 -0.6128  0.4073 -0.3675
18237TIP3    H176202   0.383   4.036  16.511  0.4171  0.7548 -0.9354
18237TIP3    H276203   0.249   4.107  16.513  0.0001 -0.0256  0.8769
18238TIP3   OH276204   6.130   3.430  16.410 -0.1539 -1.1558 -0.5329
18238TIP3    H176205   6.222   3.424  16.438 -0.4379 -0.1789  0.6972
18238TIP3    H276206   6.080   3.408  16.489 -0.9912  1.4914 -0.2250
18239TIP3   OH276207   5.380   6.286   2.275 -0.3471  0.0792 -0.0386
18239TIP3    H176208   5.320   6.225   2.319 -1.0271  0.3277 -0.5972
18239TIP3    H276209   5.356   6.372   2.309  1.4988 -0.0596  1.7506
18240TIP3   OH276210   0.030   6.666  11.399  0.0113 -0.5529 -0.3496
18240TIP3    H176211  -0.053   6.622  11.386 -0.6890  1.1141 -2.0342
18240TIP3    H276212   0.096   6.603  11.369 -0.5871 -1.9270  1.1032
18241TIP3   OH276213   5.471   4.541  16.182  0.0662 -0.2644 -0.0393
18241TIP3    H176214   5.552   4.496  16.205 -0.6337 -1.2970  0.4801
18241TIP3    H276215   5.490   4.634  16.198  0.9727 -0.5457  0.6056
18242TIP3   OH276216   2.721   1.649   0.605 -0.1701  0.6685 -0.1591
18242TIP3    H176217   2.655   1.706   0.646  0.6171  1.6340 -0.1882
18242TIP3    H276218   2.678   1.616   0.526 -1.0850  0.1968  0.5102
18243TIP3   OH276219   4.152   0.607  10.993 -0.1663  0.5294 -0.3771
18243TIP3    H176220   4.243   0.609  10.965  0.2558 -0.2757  0.8908
18243TIP3    H276221   4.139   0.518  11.027 -1.3175  0.7531 -0.1907
18244TIP3   OH276222   0.340   1.134  12.276 -0.6141  0.2143 -0.3260
18244TIP3    H176223   0.274   1.170  12.335 -0.8344  0.6586 -0.8307
18244TIP3    H276224   0.422   1.176  12.303 -0.2948 -1.1820  1.0403
18245TIP3   OH276225   1.973   0.209  15.458 -0.3589  0.5984  0.1682
18245TIP3    H176226   1.956   0.161  15.377  0.6624 -1.5865  1.1598
18245TIP3    H276227   1.894   0.196  15.510  0.5840 -1.6976  1.1532
18246TIP3   OH276228   2.425   0.489  16.042  0.0392  0.0240 -0.7162
18246TIP3    H176229   2.421   0.515  15.950 -0.4986  1.2005 -0.3832
18246TIP3    H276230   2.437   0.571  16.090  0.8811 -0.6236  0.2402
18247TIP3   OH276231   5.020   0.822  13.406 -0.1780 -0.1630  0.6528
18247TIP3    H176232   5.068   0.856  13.330 -0.9367 -0.7313 -0.0946
18247TIP3    H276233   5.078   0.841  13.480  1.8217 -1.9469 -0.3430
18248TIP3   OH276234   2.052   2.893  16.470 -0.1629  0.5280 -0.4991
18248TIP3    H176235   1.990   2.821  16.470  1.1910 -0.6714  0.0101
18248TIP3    H276236   2.117   2.869  16.404  0.0685  1.5088 -0.6531
18249TIP3   OH276237   3.818   6.314   3.506 -0.3575 -0.2294  0.5562
18249TIP3    H176238   3.906   6.351   3.516 -0.1723 -0.2638 -0.8329
18249TIP3    H276239   3.775   6.332   3.590  0.6576  0.6365  0.9077
18250TIP3   OH276240   6.725   2.150  15.437  0.6291  0.1071 -0.2339
18250TIP3    H176241   6.771   2.218  15.487  0.7896  0.3276 -0.6818
18250TIP3    H276242   6.785   2.076  15.434  0.9700  0.4055 -0.8442
18251TIP3   OH276243   2.125   1.805   2.175 -1.1319 -0.2931  0.1217
18251TIP3    H176244   2.188   1.737   2.199  1.5340  1.7662 -0.4973
18251TIP3    H276245   2.099   1.843   2.259 -1.2093 -0.8831  0.3690
18252TIP3   OH276246   5.266   6.026   3.303  0.3441 -0.0031  0.1906
18252TIP3    H176247   5.216   5.989   3.230  2.5493 -0.8404 -0.9647
18252TIP3    H276248   5.233   5.979   3.380  0.4510 -1.7023 -0.7508
18253TIP3   OH276249   6.798   1.572   4.341  0.8241 -0.1215 -0.4817
18253TIP3    H176250   6.771   1.661   4.315  0.3308 -0.3150 -0.6418
18253TIP3    H276251   6.888   1.583   4.373  0.3352  0.6454  0.6987
18254TIP3   OH276252   6.159   4.752  11.865  0.1116  0.0562 -0.1588
18254TIP3    H176253   6.185   4.804  11.788 -1.2777 -2.3431 -2.4033
18254TIP3    H276254   6.241   4.716  11.898  1.0213  2.8735  1.0093
18255TIP3   OH276255   5.201   3.332  13.719  0.3394  0.0734 -0.6241
18255TIP3    H176256   5.218   3.406  13.662  0.7410  0.7988  0.3964
18255TIP3    H276257   5.159   3.371  13.796 -2.3207 -1.1364 -1.3283
18256TIP3   OH276258   0.667   0.679  15.258  0.1036  0.2544 -0.2129
18256TIP3    H176259   0.739   0.661  15.318  0.2494 -1.0080 -0.7216
18256TIP3    H276260   0.609   0.603  15.266 -0.3477  0.4995 -0.9730
18257TIP3   OH276261   3.321   6.429  11.912  0.1128 -0.2402  0.3465
18257TIP3    H176262   3.343   6.354  11.856 -1.7696 -1.4521  1.1055
18257TIP3    H276263   3.255   6.478  11.862 -1.5076 -1.2786  1.3537
18258TIP3   OH276264   4.397   3.071   1.263 -0.1339  0.5841 -0.2537
18258TIP3    H176265   4.453   2.998   1.289  0.7142  0.3423 -2.5512
18258TIP3    H276266   4.421   3.141   1.324 -0.9227 -0.9651  1.9560
18259TIP3   OH276267   2.099   6.719   2.927  0.0167  0.1412  0.4500
18259TIP3    H176268   2.181   6.674   2.947 -0.4692 -0.9315  0.0822
18259TIP3    H276269   2.040   6.650   2.895 -0.7419  1.0379 -0.1469
18260TIP3   OH276270   3.158   6.730  16.541 -0.4283  0.9025 -0.0946
18260TIP3    H176271   3.204   6.685  16.470 -0.3662  0.4835  0.2085
18260TIP3    H276272   3.174   6.823  16.525  0.6950  0.7553  0.1125
18261TIP3   OH276273   5.124   3.323   1.524  0.0904  0.3404 -0.2606
18261TIP3    H176274   5.200   3.278   1.560 -0.0924 -1.1050 -1.5544
18261TIP3    H276275   5.161   3.383   1.459  0.1839  0.0688 -0.4635
18262TIP3   OH276276   5.946   2.080   6.064  0.0718 -0.4645  0.1763
18262TIP3    H176277   5.903   2.149   6.012  1.9155  1.3983  0.9581
18262TIP3    H276278   6.002   2.035   6.001  0.3826  0.1032  0.0408
18263TIP3   OH276279   3.293   1.849   1.422  0.0559 -0.5832  0.2968
18263TIP3    H176280   3.264   1.758   1.424 -0.0652 -0.5366  2.0349
18263TIP3    H276281   3.231   1.893   1.363 -1.1753 -1.2183  1.0832
18264TIP3   OH276282   5.142   2.272  13.572 -0.2973 -0.0855  0.3123
18264TIP3    H176283   5.155   2.183  13.540 -0.3379 -0.3850  1.1089
18264TIP3    H276284   5.196   2.327  13.514  0.7848 -0.7769  0.6492
18265TIP3   OH276285   2.972   6.180  10.931 -0.2007 -0.3511 -0.0006
18265TIP3    H176286   3.028   6.194  10.855  0.3551 -0.0019  0.4652
18265TIP3    H276287   3.030   6.193  11.006 -0.9510  0.2408  0.4929
18266TIP3   OH276288   1.608   1.668  10.893  0.0742 -0.0248  0.0927
18266TIP3    H176289   1.535   1.653  10.953 -1.0520  0.5158 -1.0845
18266TIP3    H276290   1.580   1.627  10.811 -0.0972  2.3971 -1.1433
18267TIP3   OH276291   1.177   2.888   0.579 -0.0255 -0.2683  0.0010
18267TIP3    H176292   1.273   2.886   0.583  0.0043 -0.9340 -0.6827
18267TIP3    H276293   1.149   2.821   0.642 -0.1731  1.9485  2.4588
18268TIP3   OH276294   6.144   2.286  13.667  0.2363 -0.2581  0.0732
18268TIP3    H176295   6.072   2.350  13.667 -0.0525 -0.5467 -1.3843
18268TIP3    H276296   6.203   2.317  13.599  3.5602  2.1230  3.6288
18269TIP3   OH276297   0.144   5.046  15.368 -0.1514 -0.3547  0.4533
18269TIP3    H176298   0.180   4.968  15.325  1.5944  0.6984 -0.1033
18269TIP3    H276299   0.124   5.018  15.457  1.0696 -1.2879  0.4492
18270TIP3   OH276300   6.642   6.233   5.603 -0.0492 -0.8715 -0.2450
18270TIP3    H176301   6.662   6.262   5.514 -1.8267 -0.1944 -0.4630
18270TIP3    H276302   6.691   6.295   5.659 -0.8705  0.2669 -0.7478
18271TIP3   OH276303   3.678   2.009   0.978 -0.4092  0.0792 -0.0779
18271TIP3    H176304   3.677   1.961   0.895  1.1791 -0.2443  0.0549
18271TIP3    H276305   3.761   2.057   0.976 -0.1585 -0.2452  1.4942
18272TIP3   OH276306   3.590   1.564   5.467 -0.6284 -0.3104  0.3453
18272TIP3    H176307   3.624   1.578   5.556 -1.6362  1.7113  0.4767
18272TIP3    H276308   3.501   1.532   5.481 -0.5608 -0.6359  0.0400
18273TIP3   OH276309   6.432   4.073   2.539 -0.1734 -0.3566  0.6016
18273TIP3    H176310   6.345   4.055   2.506  0.2413 -2.0053  0.2975
18273TIP3    H276311   6.452   4.162   2.509 -1.3007 -0.3783 -0.2747
18274TIP3   OH276312   4.405   2.411   5.417  0.0524  0.0536  0.2067
18274TIP3    H176313   4.381   2.499   5.387  1.1119  0.4442  0.4836
18274TIP3    H276314   4.354   2.399   5.497  0.7183  0.8644  0.7739
18275TIP3   OH276315   0.766   1.163   1.911  0.1310  0.9163 -0.3868
18275TIP3    H176316   0.716   1.142   1.832 -0.7144 -0.7923  0.5411
18275TIP3    H276317   0.857   1.144   1.888 -0.1551  0.0367 -0.8313
18276TIP3   OH276318   6.194   1.416  12.347 -0.0080 -0.1005 -0.6914
18276TIP3    H176319   6.165   1.405  12.438 -0.2178 -2.1745 -0.9625
18276TIP3    H276320   6.114   1.441  12.300 -0.0465  0.2632 -0.4428
18277TIP3   OH276321   1.761   0.644   5.135 -0.1996  0.6829 -0.0289
18277TIP3    H176322   1.740   0.557   5.101  1.0465  0.9339 -1.5386
18277TIP3    H276323   1.680   0.693   5.127 -0.4786  0.1291 -0.7421
18278TIP3   OH276324   1.835   4.811   5.410  0.5769 -0.2236  0.1250
18278TIP3    H176325   1.930   4.822   5.412  0.5900 -0.3734  0.9865
18278TIP3    H276326   1.805   4.865   5.337  1.2838  0.1579  0.1134
18279TIP3   OH276327   5.242   0.027   3.370  0.1871 -0.0851 -0.3051
18279TIP3    H176328   5.312   0.076   3.327  1.0226 -0.7877  0.2238
18279TIP3    H276329   5.194  -0.013   3.298  0.6012  0.0454 -0.6612
18280TIP3   OH276330   0.502   1.643   6.074  0.2102 -0.2270 -0.5533
18280TIP3    H176331   0.488   1.591   6.153 -1.1165 -0.6868 -1.0620
18280TIP3    H276332   0.536   1.727   6.106  0.1772 -0.5843  0.4547
18281TIP3   OH276333   0.558   3.067   5.423 -0.3558  0.1081  0.5448
18281TIP3    H176334   0.520   2.986   5.456 -0.1660 -0.2465 -0.0913
18281TIP3    H276335   0.621   3.039   5.356  0.0738  0.7511  0.6640
18282TIP3   OH276336   2.383   2.559  15.933  0.1129  0.0445  0.8089
18282TIP3    H176337   2.350   2.469  15.927 -0.8893  0.4838 -1.5442
18282TIP3    H276338   2.478   2.549  15.940  0.0330 -1.1952  0.4167
18283TIP3   OH276339   5.566   4.851   0.482  0.6032 -0.2110 -0.0010
18283TIP3    H176340   5.504   4.911   0.442 -0.1444 -0.9043  0.0949
18283TIP3    H276341   5.515   4.804   0.548  1.5999  0.2945  1.1785
18284TIP3   OH276342   3.430   2.389   3.594 -0.5020 -0.0481 -0.2026
18284TIP3    H176343   3.483   2.313   3.570 -0.9775 -0.1118 -1.0915
18284TIP3    H276344   3.469   2.421   3.675 -0.1411 -1.0920  0.0519
18285TIP3   OH276345   5.872   1.659  14.073 -0.0584 -0.5421 -0.4624
18285TIP3    H176346   5.821   1.618  14.002 -3.8288  0.2413  1.5084
18285TIP3    H276347   5.891   1.747  14.041  1.4260 -1.2892 -1.7788
18286TIP3   OH276348   2.800   1.378  17.098  0.5157  0.2367 -0.4970
18286TIP3    H176349   2.785   1.377  17.003 -0.1746 -1.3551 -0.4077
18286TIP3    H276350   2.870   1.314  17.112 -0.2994 -0.5314  0.1774
18287TIP3   OH276351   4.359   0.397   2.129  0.9083  0.0071 -0.0071
18287TIP3    H176352   4.443   0.366   2.094  0.9595 -0.6825  0.7093
18287TIP3    H276353   4.293   0.346   2.082  0.8667  0.7145 -0.7396
18288TIP3   OH276354   4.397   2.829  16.143 -0.4675  1.0767 -0.2599
18288TIP3    H176355   4.442   2.745  16.143 -2.3389  0.0199  0.3992
18288TIP3    H276356   4.451   2.886  16.197 -0.0165 -0.1995  0.6730
18289TIP3   OH276357   2.927   3.413  14.252 -0.0188 -0.0987 -0.1966
18289TIP3    H176358   2.942   3.476  14.182  0.5283  2.4508  2.0246
18289TIP3    H276359   2.834   3.425  14.276  0.3669  0.7813  0.9751
18290TIP3   OH276360   1.622   2.019  13.226 -0.1680 -0.2112 -0.0104
18290TIP3    H176361   1.574   1.991  13.148 -1.3062  0.8537  0.2768
18290TIP3    H276362   1.558   2.013  13.297  0.2002  0.9274  0.4381
18291TIP3   OH276363   1.094   2.556   3.244  0.0090  0.1492  0.8496
18291TIP3    H176364   1.136   2.473   3.267  1.5363  0.6242 -0.0984
18291TIP3    H276365   1.127   2.618   3.309  1.5434  0.7100 -0.3902
18292TIP3   OH276366   6.398   6.431  11.389 -0.3503 -0.3901  0.1223
18292TIP3    H176367   6.311   6.469  11.387  0.0081  0.4152 -1.7892
18292TIP3    H276368   6.385   6.340  11.362 -0.6561 -0.4173  0.3576
18293TIP3   OH276369   2.029   1.980   5.470 -0.0377  0.6644 -0.4652
18293TIP3    H176370   2.086   2.003   5.397 -0.0951  1.9402 -0.1367
18293TIP3    H276371   2.088   1.946   5.537 -0.1035 -1.5784 -1.4779
18294TIP3   OH276372   6.076   1.058   0.166 -0.9675 -0.2357  0.1139
18294TIP3    H176373   6.110   1.033   0.252 -1.4288 -3.9466 -0.6069
18294TIP3    H276374   6.019   1.133   0.183 -0.3789 -0.3132  2.8838
18295TIP3   OH276375   1.292   1.277  12.196 -0.0058  0.2440 -0.4399
18295TIP3    H176376   1.260   1.367  12.186  2.2129  1.1617  0.2129
18295TIP3    H276377   1.351   1.264  12.122 -1.7133 -1.4153 -1.6114
18296TIP3   OH276378   4.889   1.049   4.364 -0.3050  0.5502  0.3940
18296TIP3    H176379   4.893   0.956   4.339  2.8529 -0.2068  3.1099
18296TIP3    H276380   4.969   1.087   4.328 -0.6695  1.8134  0.8635
18297TIP3   OH276381   1.791   6.368  15.697 -0.4828  0.5826 -0.0787
18297TIP3    H176382   1.819   6.328  15.615 -1.5050  3.8219 -2.1905
18297TIP3    H276383   1.697   6.351  15.702 -0.0563 -1.6578  1.7811
18298TIP3   OH276384   5.364   1.496  16.272 -0.1668  0.0230 -0.4162
18298TIP3    H176385   5.342   1.408  16.242  2.1474  0.2120 -3.0586
18298TIP3    H276386   5.395   1.541  16.194 -2.6440  3.7712  0.4911
18299TIP3   OH276387   0.206   0.202  11.519  0.1235  0.3575 -0.3600
18299TIP3    H176388   0.179   0.212  11.610  0.2663  1.6197 -0.4429
18299TIP3    H276389   0.130   0.230  11.468 -0.0038 -0.4697 -0.6384
18300TIP3   OH276390   1.477   0.832   0.435  0.2903  0.0277  0.0293
18300TIP3    H176391   1.499   0.884   0.512  2.0693  0.1207 -0.5141
18300TIP3    H276392   1.445   0.896   0.371  0.6049  0.1903  0.0350
18301TIP3   OH276393   3.705   4.732   6.251 -0.7293  0.5774  0.7885
18301TIP3    H176394   3.695   4.796   6.321 -0.0797  1.3460  0.1921
18301TIP3    H276395   3.788   4.688   6.271 -0.2443  1.2000  0.2028
18302TIP3   OH276396   2.492   6.409  16.970  0.2047  0.1520  0.0124
18302TIP3    H176397   2.448   6.347  17.028  0.8905 -0.3538  0.0095
18302TIP3    H276398   2.526   6.477  17.029  1.0826 -0.4710  0.2486
18303TIP3   OH276399   2.584   4.099  13.644  0.4002  0.0526 -0.0360
18303TIP3    H176400   2.530   4.063  13.574 -0.2417 -1.1435  1.0343
18303TIP3    H276401   2.665   4.049  13.640  0.0169 -0.6312  0.6260
18304TIP3   OH276402   5.072   5.185   3.507 -0.0088 -0.9677  0.3949
18304TIP3    H176403   4.980   5.191   3.532 -0.1374 -0.6939 -0.1313
18304TIP3    H276404   5.070   5.144   3.420  0.5213 -3.6436  1.5432
18305TIP3   OH276405   2.812   4.325   0.682  0.3210 -0.0361 -0.0564
18305TIP3    H176406   2.716   4.331   0.687  0.3648  0.7432 -0.0877
18305TIP3    H276407   2.835   4.377   0.605  0.8540  0.6965  0.5894
18306TIP3   OH276408   0.884   0.161   1.606  0.5024 -0.0494  0.0673
18306TIP3    H176409   0.880   0.246   1.562 -2.5244  0.7259  1.5432
18306TIP3    H276410   0.827   0.105   1.554 -2.0504  0.5180  1.9841
18307TIP3   OH276411   2.815   6.808  11.794  0.5316  0.1591 -0.1910
18307TIP3    H176412   2.869   6.885  11.807  1.7565 -0.4787 -1.2906
18307TIP3    H276413   2.843   6.772  11.710 -1.3032 -0.4529 -0.6056
18308TIP3   OH276414   0.805   5.888   0.165  0.4513 -0.5996  0.3243
18308TIP3    H176415   0.879   5.833   0.193  1.7403  0.7449 -0.2981
18308TIP3    H276416   0.817   5.899   0.071 -0.8449 -0.7584  0.1224
18309TIP3   OH276417   0.535   5.400  11.002 -0.1619 -0.3683 -0.2098
18309TIP3    H176418   0.472   5.471  10.988  1.5101  1.4380  0.9565
18309TIP3    H276419   0.503   5.329  10.946 -2.7733  0.7126 -0.2723
18310TIP3   OH276420   6.005   3.889  14.977 -0.4323 -0.5796  0.0089
18310TIP3    H176421   6.055   3.920  14.902  0.6603 -0.1361  0.8814
18310TIP3    H276422   6.047   3.931  15.052 -3.7531  2.0072  0.6349
18311TIP3   OH276423   4.771   4.492  11.439 -0.3039  0.4197 -0.8321
18311TIP3    H176424   4.838   4.426  11.420 -0.3086  0.6028 -1.5037
18311TIP3    H276425   4.818   4.575  11.442 -0.5224  0.5703 -1.4787
18312TIP3   OH276426   1.434   1.648   0.560 -0.0137  0.3275  0.1244
18312TIP3    H176427   1.495   1.671   0.630  2.0596  0.2520 -1.5532
18312TIP3    H276428   1.446   1.554   0.548  0.9151  0.6081 -1.3904
18313TIP3   OH276429   1.071   5.993  12.263 -0.3890 -0.1591  0.0569
18313TIP3    H176430   1.005   6.057  12.289 -0.7808 -0.5996  0.1648
18313TIP3    H276431   1.131   5.990  12.338  0.3201  0.9607 -0.4356
18314TIP3   OH276432   2.452   5.693  11.823 -0.2346  0.1931  0.2256
18314TIP3    H176433   2.494   5.721  11.904 -2.2184  1.0989  1.0171
18314TIP3    H276434   2.425   5.774  11.780  0.2220 -0.3034 -1.0494
18315TIP3   OH276435   4.909   0.817  12.438 -0.1935  0.1676  0.1784
18315TIP3    H176436   4.864   0.745  12.483 -0.3355  0.4246  0.4517
18315TIP3    H276437   4.982   0.775  12.392 -0.0990 -0.1073  0.5763
18316TIP3   OH276438   2.177   4.382   5.931 -0.1358  0.4161 -0.2478
18316TIP3    H176439   2.119   4.438   5.879 -1.2530  0.8513  1.3763
18316TIP3    H276440   2.119   4.342   5.997  0.8226 -1.8401 -0.6778
18317TIP3   OH276441   1.266   0.299   5.366  0.1162 -0.3694  0.0520
18317TIP3    H176442   1.227   0.287   5.452  1.5902 -0.6349  0.7227
18317TIP3    H276443   1.257   0.393   5.348 -1.4587 -0.5353 -0.1729
18318TIP3   OH276444   5.554   4.823  16.252 -0.3308  0.0331 -0.2690
18318TIP3    H176445   5.550   4.823  16.348  0.5281 -0.2792 -0.2192
18318TIP3    H276446   5.477   4.871  16.224 -0.5682  0.1575  0.5864
18319TIP3   OH276447   2.796   5.969  14.415  0.2259 -0.1214 -0.2392
18319TIP3    H176448   2.821   6.038  14.476  2.2105 -0.4256 -0.6217
18319TIP3    H276449   2.784   6.013  14.331 -0.5655  0.0266 -0.0544
18320TIP3   OH276450   6.417   4.176  13.087  0.1485  0.4747  0.6498
18320TIP3    H176451   6.453   4.158  13.000 -0.5334  1.4022  0.1500
18320TIP3    H276452   6.471   4.247  13.122 -0.1019  0.6873  0.6142
18321TIP3   OH276453   6.206   1.883  12.603 -0.1986 -0.9661  0.4481
18321TIP3    H176454   6.162   1.958  12.644 -1.9451 -2.2866  1.1387
18321TIP3    H276455   6.147   1.858  12.532  1.0895 -0.8335 -0.7030
18322TIP3   OH276456   6.273   0.001   1.457  0.4605 -0.3062 -0.1731
18322TIP3    H176457   6.247  -0.050   1.381 -0.3796 -0.7581  0.3996
18322TIP3    H276458   6.242  -0.050   1.532  0.1309  0.7412  0.4257
18323TIP3   OH276459   1.942   4.889   1.079 -0.3000  0.1140 -0.5292
18323TIP3    H176460   1.923   4.830   1.006  0.7656 -1.2471  0.2479
18323TIP3    H276461   1.862   4.942   1.088 -0.4125  0.3908 -2.7114
18324TIP3   OH276462   4.321   2.358   3.837  0.0795 -0.1508 -0.2454
18324TIP3    H176463   4.382   2.401   3.777 -0.4714 -1.2866 -1.6758
18324TIP3    H276464   4.306   2.271   3.798 -3.3837  0.4914 -0.7042
18325TIP3   OH276465   6.472   0.754   6.188  0.0888 -0.3622 -0.5874
18325TIP3    H176466   6.482   0.779   6.097  0.5687 -0.0410 -0.4530
18325TIP3    H276467   6.486   0.659   6.189 -2.8610 -0.8854 -1.2601
18326TIP3   OH276468   1.801   2.024   5.656  0.2325 -0.2721 -0.1527
18326TIP3    H176469   1.826   2.088   5.722  0.9589 -0.9313  0.2270
18326TIP3    H276470   1.721   1.984   5.689 -0.4629  0.7296 -0.5979
18327TIP3   OH276471   3.522   2.702   5.837  0.1115 -1.0632 -0.2868
18327TIP3    H176472   3.591   2.727   5.899  1.2902 -1.2872 -1.4662
18327TIP3    H276473   3.549   2.742   5.754 -0.2874 -2.5879 -1.1777
18328TIP3   OH276474   3.093   0.789  15.103 -0.0944 -0.0507 -0.1529
18328TIP3    H176475   3.142   0.730  15.160  0.3769 -0.5826 -1.0862
18328TIP3    H276476   3.009   0.800  15.147 -0.4413 -1.9383 -0.2554
18329TIP3   OH276477   2.983   5.677  15.800 -0.9914 -0.0404 -0.2816
18329TIP3    H176478   2.933   5.658  15.880 -1.3417  0.2691 -0.4183
18329TIP3    H276479   3.060   5.622  15.806  0.6629  2.2335  1.8577
18330TIP3   OH276480   3.778   2.343  10.970 -0.4331 -0.1895 -0.3727
18330TIP3    H176481   3.870   2.363  10.982 -0.7780  1.4267 -0.1310
18330TIP3    H276482   3.773   2.248  10.969  1.4680 -0.3318 -2.1544
18331TIP3   OH276483   0.617   0.647   3.962  0.4523 -0.4357 -0.1827
18331TIP3    H176484   0.711   0.639   3.979  0.6041 -0.3118 -0.8966
18331TIP3    H276485   0.578   0.670   4.046  0.8798 -1.8593  0.4319
18332TIP3   OH276486   1.088   3.685  13.857 -0.1105 -0.2502  0.4366
18332TIP3    H176487   1.164   3.627  13.847  0.3347  0.5950 -1.4051
18332TIP3    H276488   1.082   3.731  13.774 -2.2328  0.2273  0.8093
18333TIP3   OH276489   2.625   3.870  16.056 -0.3185 -0.2719  0.1589
18333TIP3    H176490   2.545   3.853  16.005 -1.2277  1.1397  1.0308
18333TIP3    H276491   2.625   3.802  16.123 -0.3976 -0.6992 -0.2656
18334TIP3   OH276492   4.771   2.976  13.658  0.2882  0.2063 -0.1866
18334TIP3    H176493   4.791   2.892  13.699  0.8607  0.6383  0.4447
18334TIP3    H276494   4.764   3.038  13.731  1.2318  0.9744 -0.7103
18335TIP3   OH276495   1.498   0.646  14.415 -0.0239  0.6259 -0.3728
18335TIP3    H176496   1.537   0.689  14.339  2.3832  2.2787  1.6262
18335TIP3    H276497   1.567   0.590  14.449 -1.3926 -0.8586  0.0814
18336TIP3   OH276498   1.834   0.185   0.604  0.2030  0.3679 -0.2132
18336TIP3    H176499   1.829   0.233   0.522  1.4883  2.2806  0.7572
18336TIP3    H276500   1.750   0.199   0.646 -0.8276 -1.4088 -1.5514
18337TIP3   OH276501   5.215   0.341  12.151 -0.1725  1.1520  0.2875
18337TIP3    H176502   5.161   0.371  12.224 -0.1226  1.0528  0.3645
18337TIP3    H276503   5.160   0.276  12.106 -0.5226  1.7989 -0.2383
18338TIP3   OH276504   2.507   4.739   3.875 -0.1523 -0.4511 -0.0102
18338TIP3    H176505   2.571   4.669   3.891  1.0006  0.5698 -0.0060
18338TIP3    H276506   2.541   4.786   3.799  0.1420  1.2263  1.0784
18339TIP3   OH276507   4.904   4.798  11.759  0.1585  0.3768  0.3768
18339TIP3    H176508   4.857   4.823  11.680 -1.2193 -0.9725  0.7325
18339TIP3    H276509   4.977   4.744  11.728  0.3186  0.8309 -0.0391
18340TIP3   OH276510   3.692   2.972  11.588  0.2799  0.2009 -0.3261
18340TIP3    H176511   3.751   2.950  11.660  1.3468 -0.3172 -1.3245
18340TIP3    H276512   3.610   2.998  11.631 -0.5402 -3.9472  1.0731
18341TIP3   OH276513   6.632   4.998  15.477  0.3956  0.2548 -0.1486
18341TIP3    H176514   6.553   4.972  15.524  2.1637  0.0708  2.9923
18341TIP3    H276515   6.692   4.924  15.488  0.3343 -0.7844 -4.7023
18342TIP3   OH276516   2.001   2.973   1.789 -0.3768 -0.0066  0.3993
18342TIP3    H176517   1.957   3.053   1.760 -0.1538 -0.2530 -0.6631
18342TIP3    H276518   1.988   2.972   1.884 -0.0080  1.5193  0.4957
18343TIP3   OH276519   4.442   5.902   2.925  0.4789 -0.0946  0.3004
18343TIP3    H176520   4.466   5.812   2.948  1.1959  0.5484  2.3054
18343TIP3    H276521   4.357   5.916   2.966  0.0578 -0.0580 -0.5731
18344TIP3   OH276522   4.119   2.307  17.116 -0.6072 -0.1052 -0.4016
18344TIP3    H176523   4.083   2.292  17.029 -1.4307  0.2685 -0.1367
18344TIP3    H276524   4.115   2.221  17.160 -1.1433 -0.0712 -0.3870
18345TIP3   OH276525   2.271   0.721  16.177  0.1532 -0.8519  0.2663
18345TIP3    H176526   2.328   0.796  16.188  0.3502 -0.8050 -0.9210
18345TIP3    H276527   2.218   0.718  16.257 -0.6362  1.2151 -0.1333
18346TIP3   OH276528   6.086   3.734   3.398 -0.4976 -0.7676 -0.2774
18346TIP3    H176529   6.009   3.759   3.449 -0.8357 -0.8564 -0.7274
18346TIP3    H276530   6.140   3.813   3.395 -1.2440 -0.2633 -1.1331
18347TIP3   OH276531   6.676   0.954   5.225  0.1094  0.1984  0.1495
18347TIP3    H176532   6.623   0.923   5.299  1.6320 -1.8170  0.5038
18347TIP3    H276533   6.702   1.043   5.249 -1.0231  0.2919  1.1159
18348TIP3   OH276534   4.946   5.554  15.537 -0.2973 -0.1088  0.1439
18348TIP3    H176535   4.933   5.587  15.626 -1.6081 -2.4802  0.9284
18348TIP3    H276536   4.992   5.471  15.550  0.0358 -0.1918 -1.4505
18349TIP3   OH276537   3.960   5.194   0.706 -0.1690  0.0333 -0.1723
18349TIP3    H176538   4.053   5.171   0.704 -0.1138  0.2288  0.0591
18349TIP3    H276539   3.950   5.263   0.641 -0.0977  0.2115  0.0071
18350TIP3   OH276540   4.036   5.451   3.360  0.0711 -0.0475 -0.7842
18350TIP3    H176541   3.988   5.519   3.408 -0.1457 -0.8049  0.1181
18350TIP3    H276542   3.977   5.425   3.290  0.6308  1.4952 -1.8775
18351TIP3   OH276543   4.725   0.181  16.982  0.4675 -0.1289  0.3218
18351TIP3    H176544   4.638   0.221  16.988  0.3410 -0.1676 -0.9803
18351TIP3    H276545   4.715   0.096  17.024 -0.7163 -1.0284 -1.6432
18352TIP3   OH276546   0.956   5.203   2.153  0.5106 -0.1886 -0.1699
18352TIP3    H176547   1.034   5.251   2.180 -0.3615  0.8438  0.6488
18352TIP3    H276548   0.988   5.118   2.124  1.8973  0.1005  0.4411
18353TIP3   OH276549   0.473   2.327   3.904  0.0313 -0.0766  0.3053
18353TIP3    H176550   0.561   2.296   3.883 -0.5183 -2.5771  1.3911
18353TIP3    H276551   0.481   2.360   3.993  0.3512  2.0356 -0.4474
18354TIP3   OH276552   3.540   5.490  13.007 -0.2512 -0.1825 -0.1585
18354TIP3    H176553   3.605   5.422  13.020  0.8022  0.6745 -0.7866
18354TIP3    H276554   3.458   5.451  13.038  0.7342 -0.8927  1.7325
18355TIP3   OH276555   4.872   0.934  14.830  0.0975  0.3891  0.4337
18355TIP3    H176556   4.785   0.926  14.867 -0.5786  0.2138 -1.1137
18355TIP3    H276557   4.860   0.988  14.752  1.7313  2.1256  1.3049
18356TIP3   OH276558   1.509   0.415  15.689  0.3018  0.3674  0.8230
18356TIP3    H176559   1.431   0.378  15.649  0.2818  0.3736  0.8563
18356TIP3    H276560   1.561   0.447  15.615  0.5249 -0.1259  0.7623
18357TIP3   OH276561   2.442   6.432  11.867 -0.1203 -0.0712  0.6177
18357TIP3    H176562   2.419   6.513  11.821 -1.3617 -0.6500  0.1661
18357TIP3    H276563   2.414   6.447  11.957 -0.7486 -0.1444  0.4410
18358TIP3   OH276564   3.612   1.120  11.458  1.0545  0.4553 -0.1892
18358TIP3    H176565   3.701   1.128  11.424  0.7929  2.0684 -0.5686
18358TIP3    H276566   3.556   1.113  11.380  0.7386  0.8768 -0.0089
18359TIP3   OH276567   0.731   6.051   3.840  0.0532  0.0724 -0.6556
18359TIP3    H176568   0.709   5.992   3.768 -0.8158 -0.8430  0.3346
18359TIP3    H276569   0.647   6.082   3.873  0.4906  2.9217 -1.9443
18360TIP3   OH276570   4.021   4.207  11.839 -0.4672  0.1208 -0.4358
18360TIP3    H176571   3.951   4.149  11.868 -0.2015  0.4308  0.8455
18360TIP3    H276572   4.089   4.148  11.806  0.9531 -0.5579  3.3058
18361TIP3   OH276573   4.932   2.475   2.994 -0.3377 -0.0988 -0.0322
18361TIP3    H176574   4.943   2.570   2.994  1.8261 -0.2782 -0.8738
18361TIP3    H276575   4.872   2.458   2.921  0.4388  0.5501 -0.8415
18362TIP3   OH276576   5.507   4.483   4.751 -0.4212  0.0228  0.4002
18362TIP3    H176577   5.480   4.425   4.679 -0.2640  0.5453 -0.0858
18362TIP3    H276578   5.424   4.519   4.784 -0.5191 -0.4508  0.6915
18363TIP3   OH276579   1.406   2.557  15.668 -0.2304 -0.4539  0.2447
18363TIP3    H176580   1.322   2.585  15.704  1.2761 -0.1851  4.0350
18363TIP3    H276581   1.429   2.479  15.719 -0.0706 -3.3111 -3.7466
18364TIP3   OH276582   5.960   2.825   2.604 -0.0195  0.0334  0.6774
18364TIP3    H176583   5.921   2.787   2.682  0.3447 -0.1956  0.7547
18364TIP3    H276584   5.887   2.864   2.556  0.0617  2.4664  2.3672
18365TIP3   OH276585   0.824   3.563  11.041 -0.3939 -0.2976 -0.2171
18365TIP3    H176586   0.877   3.551  11.120  2.1247 -0.4664 -1.8245
18365TIP3    H276587   0.844   3.487  10.987 -0.9853  0.4836 -1.5959
18366TIP3   OH276588   2.030   2.752   6.413  0.0614  0.5164  0.1554
18366TIP3    H176589   2.030   2.822   6.478  2.7886 -0.1167  0.9721
18366TIP3    H276590   1.998   2.675   6.460 -1.5331  0.8202 -0.3503
18367TIP3   OH276591   1.264   0.470  16.197  0.2392 -0.6330  0.0439
18367TIP3    H176592   1.328   0.505  16.134 -1.6510  1.4136 -0.9045
18367TIP3    H276593   1.314   0.459  16.278  1.6035  2.1608 -0.2694
18368TIP3   OH276594   6.302   5.401  13.906 -0.3540 -0.5576  0.0551
18368TIP3    H176595   6.214   5.378  13.935 -0.4469 -0.9779 -0.5456
18368TIP3    H276596   6.317   5.489  13.941 -0.9701 -0.5248  0.2422
18369TIP3   OH276597   2.892   1.686   1.956 -0.9140  0.1245  0.0337
18369TIP3    H176598   2.853   1.674   2.043  0.0414  1.3481  0.6526
18369TIP3    H276599   2.966   1.745   1.970 -1.4389  1.3106 -1.7950
18370TIP3   OH276600   6.806   3.535   5.102  0.0989 -0.0671  0.0219
18370TIP3    H176601   6.817   3.456   5.155  2.5121 -1.3871 -2.2262
18370TIP3    H276602   6.889   3.582   5.111  0.3874 -0.0718 -2.0546
18371TIP3   OH276603   6.079   4.818  15.943 -0.6610  0.4138  0.1548
18371TIP3    H176604   6.066   4.740  15.889 -0.2774  1.4353 -1.5107
18371TIP3    H276605   6.167   4.809  15.979  0.3952  1.1629 -2.0483
18372TIP3   OH276606   6.449   6.422   5.673  0.1931 -0.0155  0.0587
18372TIP3    H176607   6.477   6.345   5.623 -2.7776  0.9458 -3.4961
18372TIP3    H276608   6.399   6.386   5.746  0.6042 -1.4640 -0.3435
18373TIP3   OH276609   3.794   2.821  13.091 -0.1187 -0.4920 -0.7231
18373TIP3    H176610   3.715   2.866  13.121  0.8686  0.0094  1.3241
18373TIP3    H276611   3.767   2.729  13.081 -1.2447 -0.1144 -1.2838
18374TIP3   OH276612   2.809   0.480   5.211 -0.0229  0.1562  0.2788
18374TIP3    H176613   2.792   0.398   5.257 -0.8279  1.5360  2.5714
18374TIP3    H276614   2.723   0.521   5.203  0.5463  1.4351  0.4919
18375TIP3   OH276615   1.555   5.986   1.068 -0.4228 -0.1138 -0.1245
18375TIP3    H176616   1.553   5.995   0.973  0.7236  1.1103 -0.0617
18375TIP3    H276617   1.626   5.925   1.086 -0.7293 -0.4524 -0.0587
18376TIP3   OH276618   2.867   4.569  14.251 -0.4079  0.2704 -0.3573
18376TIP3    H176619   2.881   4.660  14.278 -0.8123  0.3574 -0.4247
18376TIP3    H276620   2.789   4.542  14.299 -0.6786  0.1775 -0.8401
18377TIP3   OH276621   6.372   3.294   0.659  0.4916  0.1302  0.4401
18377TIP3    H176622   6.413   3.319   0.576 -1.3191 -0.3844 -0.6696
18377TIP3    H276623   6.335   3.376   0.693 -3.1892 -0.3516 -1.9026
18378TIP3   OH276624   4.166   1.783  10.390 -0.3501  0.4721  0.0934
18378TIP3    H176625   4.094   1.785  10.453  0.1858  0.1616  0.7176
18378TIP3    H276626   4.220   1.708  10.416 -0.5063 -0.1088 -1.1649
18379TIP3   OH276627   3.591   0.913  12.144 -0.2724  0.7341 -0.0696
18379TIP3    H176628   3.676   0.901  12.187 -0.3264  0.6828  0.0232
18379TIP3    H276629   3.567   0.826  12.114 -0.9941  0.4513  1.2169
18380TIP3   OH276630   3.042   1.525  15.256 -0.5972  0.3527 -0.1522
18380TIP3    H176631   2.961   1.556  15.217 -0.7573  0.6138  0.3754
18380TIP3    H276632   3.065   1.592  15.320 -0.7666 -0.4532  0.7719
18381TIP3   OH276633   1.106   0.738   1.626  0.2454 -0.6779  0.4120
18381TIP3    H176634   1.125   0.770   1.714  0.0550 -0.5919  0.4232
18381TIP3    H276635   1.172   0.671   1.609  1.4002  0.5222 -0.0692
18382TIP3   OH276636   5.892   0.046  17.064 -0.4514 -0.7766  0.0847
18382TIP3    H176637   5.880   0.016  17.154  1.9523 -3.4941 -0.3652
18382TIP3    H276638   5.987   0.047  17.051 -0.6392  1.5003 -1.8825
18383TIP3   OH276639   0.895   2.860  14.249  0.7330  0.2164 -0.3166
18383TIP3    H176640   0.862   2.889  14.334  0.2050  0.1733 -0.5040
18383TIP3    H276641   0.952   2.932  14.220  0.5172  0.4548 -0.1522
18384TIP3   OH276642   1.258   0.949  16.175 -0.6015 -0.0868  0.1229
18384TIP3    H176643   1.209   0.884  16.226  0.0388  0.2111  1.1563
18384TIP3    H276644   1.348   0.918  16.176 -0.3134  0.7214  0.5101
18385TIP3   OH276645   6.561   0.945  15.685 -0.1605  0.4870  0.6314
18385TIP3    H176646   6.648   0.906  15.681 -0.8659 -1.0601 -0.7731
18385TIP3    H276647   6.568   1.012  15.754  2.3752  1.0965 -0.1099
18386TIP3   OH276648   3.927   6.272  16.792 -0.2350  0.3363 -0.1449
18386TIP3    H176649   3.980   6.232  16.724 -1.4732  0.4076 -1.1778
18386TIP3    H276650   3.858   6.208  16.810  1.2015 -0.6115  2.5521
18387TIP3   OH276651   4.414   5.051  11.537 -0.3230  0.1061  0.2563
18387TIP3    H176652   4.477   4.996  11.584  1.3863  1.0173 -0.8805
18387TIP3    H276653   4.384   5.115  11.603 -0.1832 -0.4226  0.8427
18388TIP3   OH276654   2.258   1.966   1.262  0.2082 -0.0468 -0.0326
18388TIP3    H176655   2.214   1.890   1.224 -1.2894 -0.1111  1.6680
18388TIP3    H276656   2.223   2.041   1.213 -2.9921  0.0383  2.0515
18389TIP3   OH276657   1.124   6.010   2.073  0.3335  0.2437 -0.3280
18389TIP3    H176658   1.195   5.988   2.134 -0.4311 -3.8334 -0.6523
18389TIP3    H276659   1.164   6.071   2.011  3.6928 -1.9290 -0.5639
18390TIP3   OH276660   1.213   1.486  11.650 -0.0090 -0.0654 -0.0968
18390TIP3    H176661   1.210   1.448  11.738 -0.0290 -1.0969 -0.5318
18390TIP3    H276662   1.121   1.500  11.627 -0.0199 -0.1436 -0.1006
18391TIP3   OH276663   4.963   5.035  16.547  0.1233  0.9761 -0.5284
18391TIP3    H176664   4.966   4.960  16.487  0.4386  0.6460 -0.1147
18391TIP3    H276665   5.055   5.054  16.566  0.0577  1.7859 -1.0075
18392TIP3   OH276666   2.482   3.913  14.877  0.4509 -0.2143  0.4370
18392TIP3    H176667   2.505   3.820  14.888 -0.8789 -0.6124 -0.0073
18392TIP3    H276668   2.435   3.936  14.957  0.7491  0.0855  0.5302
18393TIP3   OH276669   0.540   0.613   2.003 -0.4376  0.3201 -0.1693
18393TIP3    H176670   0.596   0.554   2.054  1.6400  1.0951 -1.4182
18393TIP3    H276671   0.539   0.577   1.915 -2.7205 -0.1557 -0.0013
18394TIP3   OH276672   1.397   5.094  11.436 -0.1319  0.3952  0.0249
18394TIP3    H176673   1.447   5.136  11.505 -1.6582 -1.8348  2.7209
18394TIP3    H276674   1.306   5.119  11.453 -0.4277  1.3364 -2.4544
18395TIP3   OH276675   2.640   0.741  12.362  0.0143 -0.1600  0.4713
18395TIP3    H176676   2.584   0.671  12.397 -0.4513  0.4767  1.0460
18395TIP3    H276677   2.592   0.822  12.382 -0.4014  0.2437 -1.8912
18396TIP3   OH276678   1.150   4.220   0.320  0.3945 -0.4848 -0.4533
18396TIP3    H176679   1.075   4.275   0.298  1.3329  1.1266  0.1399
18396TIP3    H276680   1.115   4.131   0.325 -1.0666 -0.0568 -2.0998
18397TIP3   OH276681   6.068   4.168  15.881  0.1577  0.5872 -0.5656
18397TIP3    H176682   5.998   4.232  15.866 -0.4522 -0.2893 -1.6057
18397TIP3    H276683   6.048   4.096  15.821  2.7590  0.9156 -1.9352
18398TIP3   OH276684   5.678   0.224  17.061 -0.7131 -0.0438 -0.0533
18398TIP3    H176685   5.753   0.164  17.063  0.3079  1.1113 -1.6429
18398TIP3    H276686   5.605   0.170  17.031  0.0424 -0.6519 -0.8502
18399TIP3   OH276687   5.085   1.648  14.003  0.5994  0.4221  0.1307
18399TIP3    H176688   5.144   1.632  14.077  0.1012  0.1663  0.4784
18399TIP3    H276689   4.998   1.629  14.038  0.4688 -0.9594 -0.8913
18400TIP3   OH276690   1.762   0.943   2.400  0.0419  0.4886 -0.3610
18400TIP3    H176691   1.784   0.982   2.485  0.0348  1.2139 -0.6882
18400TIP3    H276692   1.669   0.962   2.389 -0.5980 -1.7858  0.6037
18401TIP3   OH276693   2.100   0.416   1.517 -0.5807 -0.0086  1.0058
18401TIP3    H176694   2.152   0.493   1.538 -0.6184  0.0992  0.7142
18401TIP3    H276695   2.084   0.374   1.601 -0.6623  0.3681  1.1816
18402TIP3   OH276696   3.159   1.791   3.020  0.1191 -0.2708  0.8090
18402TIP3    H176697   3.068   1.818   3.020  0.1204 -0.1869  2.3910
18402TIP3    H276698   3.200   1.843   3.089  1.1330 -1.0176  0.7956
18403TIP3   OH276699   0.847   3.195   0.615  0.5809 -0.1807 -0.5348
18403TIP3    H176700   0.936   3.189   0.580  0.7698  0.9170 -0.2908
18403TIP3    H276701   0.860   3.222   0.706  0.0422 -1.5112 -0.0321
18404TIP3   OH276702   5.590   2.488  10.068  0.0182 -0.4117 -0.0122
18404TIP3    H176703   5.635   2.533   9.997 -0.4376 -1.8937 -1.2942
18404TIP3    H276704   5.583   2.554  10.137 -1.2686  1.7654 -2.0439
18405TIP3   OH276705   2.792   3.075  13.320  0.6920 -0.4323  0.2122
18405TIP3    H176706   2.808   3.164  13.350 -1.1951 -0.4091  1.3442
18405TIP3    H276707   2.813   3.019  13.395  1.6588 -0.9360 -0.4165
18406TIP3   OH276708   4.988   2.648  15.750  0.4150  0.2043  0.0836
18406TIP3    H176709   5.036   2.572  15.716  0.5869  1.2499 -2.2070
18406TIP3    H276710   5.052   2.719  15.747 -0.6820  1.1998 -1.2485
18407TIP3   OH276711   6.558   2.465  10.964 -0.0294  0.6329  0.1356
18407TIP3    H176712   6.478   2.446  11.012  0.0617  0.2165  0.1235
18407TIP3    H276713   6.598   2.379  10.948 -0.5350  0.6873 -1.5237
18408TIP3   OH276714   0.017   0.632  15.758  0.3098 -0.3172 -0.1728
18408TIP3    H176715   0.042   0.546  15.792  0.4164  0.0457  0.6900
18408TIP3    H276716  -0.048   0.665  15.821 -0.0317  0.0706 -0.7098
18409TIP3   OH276717   1.539   6.840  12.473  0.1773  0.2574 -0.5346
18409TIP3    H176718   1.623   6.877  12.500  0.4581  0.6374 -1.8664
18409TIP3    H276719   1.552   6.745  12.480  1.3760  0.2156 -2.4404
18410TIP3   OH276720   5.633   5.546   2.957 -0.5573  0.5917  0.1321
18410TIP3    H176721   5.647   5.458   2.990  0.6665  0.3450 -0.9545
18410TIP3    H276722   5.699   5.557   2.889 -0.0419  2.6760  0.8777
18411TIP3   OH276723   0.576   4.088  10.750 -0.0273 -0.5252  0.5117
18411TIP3    H176724   0.619   4.128  10.674 -3.4276 -0.2250 -1.4347
18411TIP3    H276725   0.546   4.161  10.803 -0.2550 -0.6704  0.5842
18412TIP3   OH276726   5.112   5.174  10.769  0.1426  0.4409 -0.3949
18412TIP3    H176727   5.161   5.092  10.757 -0.2652  0.0647  0.3815
18412TIP3    H276728   5.121   5.193  10.863  0.1873  1.2581 -0.5647
18413TIP3   OH276729   4.914   4.435  11.757 -0.1542 -0.1311 -0.5807
18413TIP3    H176730   4.974   4.501  11.721  0.8202  1.7243  3.7826
18413TIP3    H276731   4.964   4.354  11.754  0.3761  0.2076 -1.9782
18414TIP3   OH276732   0.653   5.441  13.344  0.3601  0.1250 -0.2683
18414TIP3    H176733   0.729   5.390  13.315  0.5346  0.9192 -1.2674
18414TIP3    H276734   0.577   5.386  13.324  0.6236 -0.4087  0.1647
18415TIP3   OH276735   0.390   2.151   1.330 -0.3262  0.4993  0.3437
18415TIP3    H176736   0.460   2.203   1.293 -1.3110  0.3015 -1.9942
18415TIP3    H276737   0.432   2.098   1.398  1.8062  0.3430 -0.9989
18416TIP3   OH276738   4.785   3.527   5.033 -0.0855 -0.6302  0.3485
18416TIP3    H176739   4.760   3.591   4.967  4.1344 -0.1225 -1.0872
18416TIP3    H276740   4.786   3.576   5.115 -0.3628  0.1683 -0.1121
18417TIP3   OH276741   3.393   1.642   2.420 -0.0129  0.1498 -0.1357
18417TIP3    H176742   3.400   1.564   2.366 -2.4146  0.6250 -1.2840
18417TIP3    H276743   3.302   1.642   2.450  0.1011  2.1761  0.3604
18418TIP3   OH276744   2.507   0.716   0.074 -0.0008  0.2108 -0.2629
18418TIP3    H176745   2.576   0.743   0.013  0.0963 -2.2552 -1.3992
18418TIP3    H276746   2.547   0.643   0.123 -0.9312  0.5173  0.9887
18419TIP3   OH276747   5.383   6.527   1.618  0.2755  0.5430 -0.1189
18419TIP3    H176748   5.377   6.580   1.698  1.3374 -1.0009  1.0389
18419TIP3    H276749   5.461   6.473   1.631  0.1809 -0.1071 -1.9993
18420TIP3   OH276750   6.002   1.683   2.873  0.6654 -0.5155 -0.3687
18420TIP3    H176751   5.910   1.687   2.899  0.6284  1.2591 -0.5951
18420TIP3    H276752   6.032   1.596   2.899 -1.3430 -1.5155 -1.2455
18421TIP3   OH276753   6.472   3.945   3.353  0.0023  0.2794 -0.1799
18421TIP3    H176754   6.453   3.943   3.259 -0.6149  2.4023 -0.1422
18421TIP3    H276755   6.539   3.878   3.365 -0.1732 -0.2886 -2.0725
18422TIP3   OH276756   6.784   5.601  14.863  0.6114  0.4209 -0.1695
18422TIP3    H176757   6.811   5.538  14.795  0.1927  0.1712 -0.1128
18422TIP3    H276758   6.864   5.648  14.886  1.0342 -0.4243  0.1282
18423TIP3   OH276759   6.087   6.682   0.701  0.3250 -0.3465  0.3392
18423TIP3    H176760   6.002   6.695   0.743 -0.1636 -0.5990 -0.5553
18423TIP3    H276761   6.095   6.587   0.692 -0.0588 -0.2595 -1.0866
18424TIP3   OH276762   1.229   1.628  14.150 -0.1226  0.0804  0.3479
18424TIP3    H176763   1.276   1.549  14.177  0.2900 -0.2197 -1.1302
18424TIP3    H276764   1.260   1.645  14.061 -1.0324  1.2778  0.2306
18425TIP3   OH276765   2.974   1.319   4.776 -0.5226 -0.4550  0.4614
18425TIP3    H176766   2.963   1.274   4.693  0.5875 -0.7537  0.4492
18425TIP3    H276767   3.053   1.279   4.814 -0.7074  0.0451  1.4016
18426TIP3   OH276768   3.662   6.296  15.188  0.6648 -0.0303 -0.0777
18426TIP3    H176769   3.578   6.253  15.200  0.1870  0.2368 -2.1280
18426TIP3    H276770   3.695   6.262  15.104  1.7805  1.1533 -0.1488
18427TIP3   OH276771   4.645   0.722   3.175  0.0822 -0.3733 -0.0640
18427TIP3    H176772   4.688   0.685   3.252  1.4736  1.5470  0.1681
18427TIP3    H276773   4.580   0.783   3.211  1.0661  0.8911 -0.3568
18428TIP3   OH276774   3.015   6.701   2.524 -0.2821 -0.2994 -0.4066
18428TIP3    H176775   2.971   6.695   2.439 -1.0745  1.4155 -0.1551
18428TIP3    H276776   3.000   6.615   2.565 -2.2697 -0.2172 -0.8690
18429TIP3   OH276777   5.798   2.875   1.133  0.0356 -0.2688  0.0471
18429TIP3    H176778   5.814   2.783   1.114  0.5539 -0.0161 -0.7723
18429TIP3    H276779   5.880   2.919   1.113 -1.2267  0.9204 -3.2457
18430TIP3   OH276780   3.650   2.988  14.987 -0.5532 -0.1560 -0.3579
18430TIP3    H176781   3.589   3.052  15.023  0.9648  1.6893 -0.8796
18430TIP3    H276782   3.596   2.928  14.936 -2.2592 -0.4679  1.6971
18431TIP3   OH276783   6.098   3.170   5.239 -0.0134  0.0403 -0.2619
18431TIP3    H176784   6.120   3.261   5.257  3.8834 -0.5882 -0.8963
18431TIP3    H276785   6.100   3.128   5.325  0.5063  0.1846 -0.1975
18432TIP3   OH276786   5.385   4.036   4.593  0.7769  0.2485  0.0504
18432TIP3    H176787   5.427   4.039   4.507  1.2367  0.7839  0.2862
18432TIP3    H276788   5.379   4.127   4.620 -0.4272  0.1773  0.0872
18433TIP3   OH276789   5.621   5.666   3.673 -0.4269 -0.1047 -0.0732
18433TIP3    H176790   5.646   5.731   3.739  1.5702 -1.1503  0.2553
18433TIP3    H276791   5.667   5.694   3.594 -0.8951 -0.2175 -0.3924
18434TIP3   OH276792   2.175   6.852  13.417  0.2060 -0.9828  0.0932
18434TIP3    H176793   2.104   6.804  13.460 -1.8465 -1.4197 -3.4209
18434TIP3    H276794   2.176   6.818  13.327  1.9324  2.1621 -1.2167
18435TIP3   OH276795   1.839   5.026   6.546  0.2873 -0.5626 -0.0665
18435TIP3    H176796   1.862   5.107   6.590 -0.8235 -0.1963 -0.1408
18435TIP3    H276797   1.746   5.015   6.563  0.0811 -0.9959 -1.3874
18436TIP3   OH276798   3.731   2.601  12.553  0.4311 -0.4412 -0.0399
18436TIP3    H176799   3.673   2.542  12.505  1.4973  0.2962 -2.3978
18436TIP3    H276800   3.673   2.655  12.604 -0.7929 -1.3086 -0.4621
18437TIP3   OH276801   6.250   4.862  12.128 -0.2150  0.0054 -0.6294
18437TIP3    H176802   6.263   4.928  12.060 -1.8042  1.6835  0.5796
18437TIP3    H276803   6.332   4.861  12.177  0.8330 -1.0002 -2.3276
18438TIP3   OH276804   5.071   3.719   2.956 -0.6065 -0.3461  0.3725
18438TIP3    H176805   5.165   3.733   2.968 -0.5954  0.1842 -0.2726
18438TIP3    H276806   5.064   3.644   2.897 -0.4305  2.1551 -3.1603
18439TIP3   OH276807   1.233   3.515  13.422 -0.3109 -0.0008 -0.3724
18439TIP3    H176808   1.185   3.434  13.404  0.1594 -1.2432  3.0995
18439TIP3    H276809   1.319   3.486  13.453  0.7493  1.9598 -1.2766
18440TIP3   OH276810   5.983   5.638   5.875  0.1193  0.7213  0.1230
18440TIP3    H176811   6.055   5.587   5.912  0.1851  1.6017  1.2427
18440TIP3    H276812   5.956   5.588   5.798 -1.2906 -2.2360  2.3482
18441TIP3   OH276813   0.079   3.099  11.819  0.1538 -0.4854 -0.1584
18441TIP3    H176814   0.063   3.006  11.806 -1.4794 -0.4072  1.0374
18441TIP3    H276815  -0.005   3.141  11.804  0.9213  0.8685 -0.9439
18442TIP3   OH276816   0.102   2.474  15.277 -0.3187 -0.6090  0.0656
18442TIP3    H176817   0.132   2.560  15.305 -0.8584 -0.2599 -0.4014
18442TIP3    H276818   0.077   2.429  15.357 -0.7273 -0.0586  0.2510
18443TIP3   OH276819   0.100   3.390  12.657 -0.6127 -0.7672  0.1894
18443TIP3    H176820   0.026   3.426  12.608 -1.3372 -1.0150  1.0583
18443TIP3    H276821   0.128   3.461  12.714 -0.6040 -0.8746  0.3201
18444TIP3   OH276822   1.900   2.694   4.474 -0.6175 -0.2144  0.2587
18444TIP3    H176823   1.821   2.649   4.443 -1.2436  1.7489 -1.1819
18444TIP3    H276824   1.967   2.674   4.408  0.0558 -1.6419  1.3290
18445TIP3   OH276825   4.760   2.146  12.756 -0.2816  0.2027  0.0078
18445TIP3    H176826   4.825   2.167  12.689 -0.5106 -0.7422 -0.5252
18445TIP3    H276827   4.691   2.211  12.744 -0.6138 -0.3436 -1.0909
18446TIP3   OH276828   2.797   5.365  13.292 -0.8316 -0.4195  0.4420
18446TIP3    H176829   2.718   5.312  13.280 -0.8601 -0.3587  0.3589
18446TIP3    H276830   2.783   5.441  13.235 -1.1973  0.1221  1.2434
18447TIP3   OH276831   5.145   6.756  11.700 -0.5985  0.4401  0.0422
18447TIP3    H176832   5.104   6.695  11.761 -2.9367  0.8967 -0.9212
18447TIP3    H276833   5.180   6.700  11.630 -0.5708  0.0732  0.3469
18448TIP3   OH276834   0.079   4.411  13.291 -0.2046  0.3578 -0.2224
18448TIP3    H176835   0.013   4.480  13.288 -0.4315  0.2490  1.4924
18448TIP3    H276836   0.069   4.371  13.378 -0.0210 -1.7777 -1.1022
18449TIP3   OH276837   1.763   0.671  11.618  0.2804 -0.4603 -0.2390
18449TIP3    H176838   1.717   0.722  11.552 -2.8673 -1.1912  1.2256
18449TIP3    H276839   1.760   0.726  11.697  1.7299 -0.6591 -0.0165
18450TIP3   OH276840   5.007   1.848  16.490  0.4943 -0.0515 -0.0344
18450TIP3    H176841   5.057   1.865  16.411 -0.9722  1.6576 -0.6753
18450TIP3    H276842   5.072   1.851  16.561  1.3815  1.9786 -0.8349
18451TIP3   OH276843   0.137   0.596   1.673  0.4354  0.2305 -0.3755
18451TIP3    H176844   0.114   0.563   1.760 -1.5859 -0.0375 -0.9665
18451TIP3    H276845   0.100   0.533   1.612  0.1922  1.3791 -1.4708
18452TIP3   OH276846   4.186   1.740   5.129 -0.0973 -0.4536  0.4822
18452TIP3    H176847   4.160   1.663   5.181  0.9967 -1.2725 -0.1327
18452TIP3    H276848   4.142   1.727   5.045  0.1520 -0.4515  0.3512
18453TIP3   OH276849   5.694   4.308   6.277 -0.5661 -0.1930  0.4253
18453TIP3    H176850   5.740   4.391   6.269 -1.9402  0.8267  2.3192
18453TIP3    H276851   5.602   4.330   6.263 -0.9400 -1.4261  0.8210
18454TIP3   OH276852   1.249   3.078   4.565  0.1398  0.9096  0.5177
18454TIP3    H176853   1.163   3.119   4.580  0.0854 -0.2380  4.2364
18454TIP3    H276854   1.232   3.012   4.498 -1.5849  1.6040  0.2176
18455TIP3   OH276855   3.081   1.436   0.763 -0.2964  0.4105  0.3184
18455TIP3    H176856   3.065   1.494   0.838 -0.4602  0.2421  0.4159
18455TIP3    H276857   3.061   1.490   0.686  2.5485  1.4800  0.2424
18456TIP3   OH276858   2.994   2.236  16.768  0.1124 -0.4473  0.2170
18456TIP3    H176859   3.044   2.164  16.729  1.2684 -1.2303  2.8948
18456TIP3    H276860   2.912   2.196  16.795 -0.0912 -0.2555 -0.1114
18457TIP3   OH276861   5.559   2.638   3.462 -0.1996  0.3991 -0.4713
18457TIP3    H176862   5.625   2.607   3.524 -1.1167 -0.0440  0.3336
18457TIP3    H276863   5.501   2.562   3.450 -0.6716  0.8345 -0.9929
18458TIP3   OH276864   4.567   3.637  13.734 -0.3042  0.4817 -0.3158
18458TIP3    H176865   4.652   3.613  13.696  1.5893  0.7173  3.3698
18458TIP3    H276866   4.582   3.721  13.776 -1.6370 -0.4655  2.2844
18459TIP3   OH276867   6.456   1.345  13.665 -0.0773 -0.1836  0.9951
18459TIP3    H176868   6.431   1.321  13.754 -0.3641  1.7742  1.5012
18459TIP3    H276869   6.420   1.433  13.653  0.9974  0.0898 -0.6184
18460TIP3   OH276870   1.489   0.098   2.854  0.0899  0.4796  0.4934
18460TIP3    H176871   1.523   0.011   2.833 -1.4186  0.4328 -2.2657
18460TIP3    H276872   1.564   0.145   2.890  2.3481 -0.5203 -2.4393
18461TIP3   OH276873   1.753   3.115  16.881  0.5802  0.3104  0.3829
18461TIP3    H176874   1.717   3.114  16.792  0.1790 -0.0542  0.5426
18461TIP3    H276875   1.838   3.157  16.873 -1.0200  3.9783  0.4080
18462TIP3   OH276876   3.314   6.204  13.089  0.1113 -0.0640 -0.2913
18462TIP3    H176877   3.281   6.292  13.104 -1.1226 -0.5367 -0.1099
18462TIP3    H276878   3.236   6.151  13.073  0.9080 -0.8418 -1.9564
18463TIP3   OH276879   1.217   1.321   2.377 -0.3101  0.1222 -0.1403
18463TIP3    H176880   1.289   1.369   2.418 -0.1132 -1.7758  1.9733
18463TIP3    H276881   1.139   1.347   2.427 -0.1172 -1.9875  1.4304
18464TIP3   OH276882   0.796   5.034  13.605  0.3415  0.0049  0.2531
18464TIP3    H176883   0.792   5.055  13.512 -0.3024 -0.1258  0.2421
18464TIP3    H276884   0.730   4.965  13.616  0.6877 -0.2512  0.7330
18465TIP3   OH276885   0.418   2.221   0.400 -0.0297  0.0075 -0.0122
18465TIP3    H176886   0.428   2.144   0.343  0.9450 -1.1524  1.6703
18465TIP3    H276887   0.487   2.281   0.372  1.3468 -1.1389  0.8124
18466TIP3   OH276888   2.796   0.075   4.966  0.2353 -0.1780  0.2489
18466TIP3    H176889   2.711   0.054   4.926  0.4647  0.0117 -0.3511
18466TIP3    H276890   2.789   0.167   4.991  0.9991  0.4734 -1.7684
18467TIP3   OH276891   0.490   2.108   1.591  0.2416 -0.3772  0.2860
18467TIP3    H176892   0.574   2.064   1.607 -0.3397 -1.1059  1.4419
18467TIP3    H276893   0.428   2.062   1.647 -1.3819 -1.2155 -2.0534
18468TIP3   OH276894   2.654   2.693   2.392  0.0215 -0.4065 -0.4562
18468TIP3    H176895   2.707   2.772   2.382  0.5587 -0.7705 -0.5289
18468TIP3    H276896   2.706   2.637   2.450  1.3197 -2.1238 -3.0827
18469TIP3   OH276897   3.390   6.461  14.870  0.4398 -0.2474 -0.6671
18469TIP3    H176898   3.384   6.480  14.964 -0.0509  0.1167 -0.7655
18469TIP3    H276899   3.299   6.453  14.842  0.6107 -1.7470 -0.8491
18470TIP3   OH276900   6.439   0.154  17.070  0.0231  0.0214 -0.8328
18470TIP3    H176901   6.478   0.067  17.067  0.7708  0.3618 -1.1759
18470TIP3    H276902   6.435   0.182  16.978 -0.8165  0.0848 -0.7806
18471TIP3   OH276903   6.444   5.424  11.065 -0.5790 -0.3457  0.1175
18471TIP3    H176904   6.520   5.472  11.099 -0.9265 -1.3687  2.5395
18471TIP3    H276905   6.462   5.413  10.972  1.4297  0.8951  0.3020
18472TIP3   OH276906   1.296   6.403  11.938  0.2765  0.5754  0.0481
18472TIP3    H176907   1.379   6.447  11.958 -0.0452  0.8159  0.9240
18472TIP3    H276908   1.316   6.310  11.942  0.5731  0.6352 -0.0299
18473TIP3   OH276909   3.824   4.165  11.612  0.1423  0.2856  0.7643
18473TIP3    H176910   3.836   4.258  11.631  1.8636  0.0023  1.2847
18473TIP3    H276911   3.913   4.132  11.595 -0.4673 -1.1874  0.2187
18474TIP3   OH276912   0.795   5.036  15.636 -0.2574  0.3472  0.2211
18474TIP3    H176913   0.765   4.954  15.676 -0.3978  0.0955 -0.3782
18474TIP3    H276914   0.850   5.007  15.563  1.9147  0.7827  1.6094
18475TIP3   OH276915   2.926   4.496   4.619 -0.1617  0.2708 -0.1349
18475TIP3    H176916   2.969   4.448   4.690  0.6558 -0.0213 -0.8102
18475TIP3    H276917   2.838   4.458   4.615  0.3618 -0.9672 -0.4439
18476TIP3   OH276918   5.591   1.825   2.516  0.0112  0.3428 -0.3643
18476TIP3    H176919   5.536   1.748   2.535 -1.8661  1.7861  0.3140
18476TIP3    H276920   5.555   1.895   2.570  1.7100  1.7128 -0.9194
18477TIP3   OH276921   2.245   0.835  13.735 -0.5796  0.1273  0.0056
18477TIP3    H176922   2.297   0.914  13.718  0.1660 -0.4313 -0.3516
18477TIP3    H276923   2.156   0.868  13.746 -0.3054  1.0101 -0.2755
18478TIP3   OH276924   2.595   3.924   0.781 -0.0302 -0.9176  0.1749
18478TIP3    H176925   2.681   3.952   0.752 -1.9140  3.0404 -2.3766
18478TIP3    H276926   2.572   3.985   0.851 -1.0175 -1.5251  0.4025
18479TIP3   OH276927   1.322   3.081  13.248  0.0441 -0.1366 -0.6811
18479TIP3    H176928   1.275   3.148  13.199 -0.1654  1.1121  1.0928
18479TIP3    H276929   1.372   3.131  13.313 -0.3617 -1.7000  0.8988
18480TIP3   OH276930   5.673   0.555   4.938 -0.8531 -0.0196  0.6624
18480TIP3    H176931   5.750   0.499   4.927 -0.1419  1.4047 -3.2199
18480TIP3    H276932   5.603   0.508   4.894 -0.5674  1.3726 -1.4271
18481TIP3   OH276933   5.717   1.455   3.189  0.0137  0.4223 -1.1275
18481TIP3    H176934   5.672   1.388   3.241  1.2617  0.6768  0.3489
18481TIP3    H276935   5.705   1.426   3.098 -2.3337  0.0247 -0.7674
18482TIP3   OH276936   6.814   6.731  16.578 -0.2735  0.0483 -0.4424
18482TIP3    H176937   6.849   6.808  16.532 -0.2840 -0.1471 -0.7795
18482TIP3    H276938   6.822   6.753  16.671  0.1511  0.2704 -0.5285
18483TIP3   OH276939   0.359   6.291  15.528 -0.1699 -0.6065 -0.0326
18483TIP3    H176940   0.413   6.270  15.452  0.7299  0.3335  0.3170
18483TIP3    H276941   0.295   6.354  15.496  0.8953  0.6425  0.1776
18484TIP3   OH276942   0.492   5.631   6.673  0.0417 -0.3921  0.3538
18484TIP3    H176943   0.549   5.672   6.738 -0.5054  0.3255  0.3924
18484TIP3    H276944   0.485   5.696   6.603  1.3653 -1.5171 -0.8867
18485TIP3   OH276945   0.411   1.448   0.922  0.0687 -0.2963  0.2497
18485TIP3    H176946   0.418   1.534   0.963  0.3705  0.4060 -1.2489
18485TIP3    H276947   0.481   1.397   0.963 -0.7217 -0.1542  1.8513
18486TIP3   OH276948   4.268   3.059  10.796  0.1675  0.1762 -0.2158
18486TIP3    H176949   4.210   2.985  10.779  1.9685 -1.3733  0.0483
18486TIP3    H276950   4.284   3.096  10.709 -0.8979  0.4081 -0.3324
18487TIP3   OH276951   3.278   2.258   1.587 -0.3162  0.3191 -0.2430
18487TIP3    H176952   3.266   2.259   1.492  0.5759  0.3351 -0.3618
18487TIP3    H276953   3.304   2.168   1.607  0.1425  0.4828 -0.0972
18488TIP3   OH276954   2.707   3.267  11.554 -0.1150  0.4629 -0.2828
18488TIP3    H176955   2.795   3.287  11.523  0.0461  1.5251  0.8015
18488TIP3    H276956   2.657   3.247  11.474  1.3474 -1.2978 -0.8353
18489TIP3   OH276957   5.805   4.052  13.442 -0.0928 -0.2318 -0.3949
18489TIP3    H176958   5.769   3.982  13.388 -1.7602  0.4354 -0.2016
18489TIP3    H276959   5.859   4.006  13.507 -1.4187 -1.4037 -0.0506
18490TIP3   OH276960   2.122   3.429   0.019  0.2151 -0.2759  0.2219
18490TIP3    H176961   2.149   3.337   0.028 -0.7956 -0.5260  0.8269
18490TIP3    H276962   2.052   3.440   0.083  0.0171  0.8031 -0.1593
18491TIP3   OH276963   6.253   6.738   4.963  0.1666  0.1919  0.4367
18491TIP3    H176964   6.192   6.666   4.977  1.1991 -0.4797  1.7569
18491TIP3    H276965   6.328   6.698   4.920 -0.4948  1.1165 -1.6969
18492TIP3   OH276966   0.738   6.833  13.393  0.0570 -0.0079 -0.6473
18492TIP3    H176967   0.758   6.747  13.428 -1.3852 -0.6097 -1.2246
18492TIP3    H276968   0.711   6.817  13.303 -0.6576  0.9916 -0.6289
18493TIP3   OH276969   6.518   3.934   3.623  0.7323 -0.0873 -0.5773
18493TIP3    H176970   6.610   3.933   3.596  0.0917  0.8575 -3.0650
18493TIP3    H276971   6.474   3.989   3.558 -1.6850 -0.8496  0.2921
18494TIP3   OH276972   6.483   3.627   3.580  0.1019 -0.0938 -0.1464
18494TIP3    H176973   6.484   3.722   3.583 -1.2730  0.0006 -1.4127
18494TIP3    H276974   6.419   3.606   3.512 -0.0979 -1.9301  0.5499
18495TIP3   OH276975   6.280   4.316  14.645 -0.4210  0.4398 -0.6562
18495TIP3    H176976   6.288   4.411  14.648 -0.7366  0.5214 -1.8899
18495TIP3    H276977   6.265   4.296  14.552  0.7760 -0.9014 -0.5895
18496TIP3   OH276978   1.299   6.115   5.276  0.0220  0.2970  0.1865
18496TIP3    H176979   1.239   6.189   5.285 -0.4203  0.1382 -1.2064
18496TIP3    H276980   1.246   6.045   5.238  1.1142  0.2100 -1.2418
18497TIP3   OH276981   3.067   1.070  16.787  0.2278  0.5659 -0.2010
18497TIP3    H176982   2.982   1.091  16.749  0.6187 -2.5839 -3.3948
18497TIP3    H276983   3.129   1.124  16.738  0.3890 -0.7239 -1.5053
18498TIP3   OH276984   2.175   5.032   2.798  0.1263  0.0501  0.0412
18498TIP3    H176985   2.103   5.015   2.737 -0.8517  0.2940  1.1109
18498TIP3    H276986   2.208   4.945   2.821  0.7649 -0.0410 -1.0993
18499TIP3   OH276987   0.807   4.815   3.836  0.1988 -0.3557 -0.1363
18499TIP3    H176988   0.766   4.901   3.825 -0.6855 -0.6059  1.0822
18499TIP3    H276989   0.735   4.752   3.826  0.2325 -0.8018  2.0541
18500TIP3   OH276990   5.324   1.762  14.455 -0.3720 -0.3355  0.0758
18500TIP3    H176991   5.374   1.680  14.462  1.1682  0.4843 -0.6925
18500TIP3    H276992   5.294   1.780  14.544  0.4654 -1.0273  0.5115
18501TIP3   OH276993   4.473   1.278  10.739  0.6730 -0.0873  0.3524
18501TIP3    H176994   4.415   1.239  10.673  2.6893 -1.5595 -0.6420
18501TIP3    H276995   4.463   1.372  10.726 -0.3942 -0.3191 -0.7593
18502TIP3   OH276996   0.481   5.765  14.002  0.0826  0.0765 -0.2224
18502TIP3    H176997   0.532   5.840  14.033 -0.9014  0.9779 -0.7108
18502TIP3    H276998   0.415   5.752  14.070 -1.3060  1.2762 -1.2475
18503TIP3   OH276999   1.686   2.944  14.906  0.1294  0.0550  0.6670
18503TIP3    H177000   1.642   2.989  14.977 -0.1204  1.1289 -0.1392
18503TIP3    H277001   1.615   2.910  14.851  0.2360  1.7066 -0.5841
18504TIP3   OH277002   6.343   4.885  13.110 -0.1342  0.4777 -0.6810
18504TIP3    H177003   6.368   4.976  13.096  0.6145  0.0770 -2.2275
18504TIP3    H277004   6.270   4.889  13.172 -0.8001  2.2127 -1.5030
18505TIP3   OH277005   0.120   3.165  14.802 -0.1630  0.8198  0.6875
18505TIP3    H177006   0.207   3.193  14.827  0.1205  0.5612  0.0343
18505TIP3    H277007   0.072   3.246  14.785 -0.3458  0.9966  1.9519
18506TIP3   OH277008   1.999   6.041  11.904  0.2602  0.6347  0.0581
18506TIP3    H177009   1.928   6.037  11.968  0.1109  2.0638  0.0118
18506TIP3    H277010   1.966   6.099  11.836  0.3197 -1.0555 -1.4815
18507TIP3   OH277011   0.505   4.321  15.305 -0.7029  0.2852  0.2625
18507TIP3    H177012   0.595   4.330  15.338 -0.2653 -0.0717 -0.7905
18507TIP3    H277013   0.469   4.248  15.355  0.6412 -1.6291 -1.4262
18508TIP3   OH277014   5.278   2.351  13.030 -0.2113 -0.0856  0.2474
18508TIP3    H177015   5.321   2.268  13.010  0.0516  0.4291 -1.5157
18508TIP3    H277016   5.342   2.418  13.004 -1.4563  0.6734 -0.9741
18509TIP3   OH277017   1.771   4.772   3.368 -0.3658 -0.4025  0.3409
18509TIP3    H177018   1.727   4.791   3.285 -0.8648 -2.5023  0.0661
18509TIP3    H277019   1.863   4.793   3.352 -0.2477 -1.8392 -1.1623
18510TIP3   OH277020   4.340   3.133  11.840  0.4593 -0.2457  0.0780
18510TIP3    H177021   4.269   3.171  11.893  0.9551 -0.2812  0.7904
18510TIP3    H277022   4.387   3.209  11.805  2.2625 -0.0510  2.5798
18511TIP3   OH277023   5.589   4.328   1.614  0.5471 -0.4257  0.0492
18511TIP3    H177024   5.647   4.360   1.545 -0.3773 -1.9230 -1.5055
18511TIP3    H277025   5.632   4.249   1.646 -0.2151 -1.1127 -0.5751
18512TIP3   OH277026   3.306   2.336   4.033  0.9004  0.1993 -0.3319
18512TIP3    H177027   3.353   2.252   4.033  2.1420  0.8683 -0.2821
18512TIP3    H277028   3.274   2.344   4.123  0.3267 -0.4568 -0.4699
18513TIP3   OH277029   1.676   0.534   1.075 -0.0181 -0.1333 -0.3404
18513TIP3    H177030   1.734   0.469   1.036 -0.2057  0.5312 -1.8182
18513TIP3    H277031   1.591   0.491   1.079 -0.0428 -0.1418 -0.8854
18514TIP3   OH277032   3.568   2.544  14.301  1.2764  0.3298 -0.2506
18514TIP3    H177033   3.609   2.553  14.215  0.0599  0.4937 -0.8305
18514TIP3    H277034   3.633   2.497  14.354  1.7918 -0.3241 -1.4328
18515TIP3   OH277035   2.503   0.685  14.456  0.2547 -0.1129  0.0616
18515TIP3    H177036   2.595   0.693  14.428  0.2091 -0.3157 -0.1490
18515TIP3    H277037   2.504   0.710  14.548  0.3818  0.7350 -0.1623
18516TIP3   OH277038   1.904   1.281  16.869 -0.1041  0.3147 -0.0751
18516TIP3    H177039   1.863   1.368  16.875  0.4370  0.6087 -0.5812
18516TIP3    H277040   1.998   1.298  16.874  0.0333 -0.1739 -0.8515
18517TIP3   OH277041   3.632   2.719  16.131  0.3938 -1.2077  0.4324
18517TIP3    H177042   3.599   2.756  16.213 -1.1209  0.0279 -0.6919
18517TIP3    H277043   3.696   2.784  16.100 -0.3044 -0.8245 -0.2156
18518TIP3   OH277044   6.257   1.599  16.173  0.3088 -0.4419  0.3885
18518TIP3    H177045   6.173   1.608  16.128 -0.6684  0.1248  2.2301
18518TIP3    H277046   6.311   1.669  16.137  1.0489 -2.4425 -2.8186
18519TIP3   OH277047   3.884   0.107  12.486 -0.0206  0.2849  0.0912
18519TIP3    H177048   3.947   0.178  12.494  0.2249  0.4671 -2.5182
18519TIP3    H277049   3.937   0.029  12.468 -0.4200  0.1768 -0.7003
18520TIP3   OH277050   1.649   1.749  12.623  0.8424 -0.6496  0.1139
18520TIP3    H177051   1.555   1.746  12.606  0.5689 -0.6138  1.5628
18520TIP3    H277052   1.686   1.685  12.562 -0.1338 -0.8157 -0.3208
18521TIP3   OH277053   4.778   6.167   0.209 -0.2955  0.2809  0.2124
18521TIP3    H177054   4.817   6.092   0.255  1.3308  2.5817  2.9390
18521TIP3    H277055   4.691   6.176   0.249 -0.3042  0.1359  0.2290
18522TIP3   OH277056   2.092   4.596  13.127 -0.2303 -0.4856 -0.0430
18522TIP3    H177057   2.073   4.521  13.182 -1.6586 -1.0154 -1.1711
18522TIP3    H277058   2.128   4.559  13.047 -0.9989 -0.0108 -0.6327
18523TIP3   OH277059   3.702   2.992   3.223  0.3951 -0.0643  0.2528
18523TIP3    H177060   3.736   3.062   3.279  0.9395 -0.1650  0.0489
18523TIP3    H277061   3.779   2.948   3.189  0.0620 -1.2663  0.9878
18524TIP3   OH277062   2.975   4.752   4.320 -0.4810  0.1471  0.3987
18524TIP3    H177063   2.946   4.825   4.375  0.1603  0.9249 -0.2750
18524TIP3    H277064   2.908   4.746   4.251  0.7816  1.8613 -1.0841
18525TIP3   OH277065   3.818   4.161  13.797  0.3019  0.3139 -0.1796
18525TIP3    H177066   3.781   4.146  13.710 -0.6163  1.1348  0.0496
18525TIP3    H277067   3.905   4.121  13.793  0.6329  1.1086 -1.7691
18526TIP3   OH277068   6.688   6.840  13.019  0.3441  0.3329  0.2646
18526TIP3    H177069   6.640   6.758  13.032 -0.2887  0.7801  0.7776
18526TIP3    H277070   6.759   6.836  13.083 -0.2186  0.5871  0.9089
18527TIP3   OH277071   1.073   3.133  14.854 -0.0473 -0.1414 -0.0288
18527TIP3    H177072   0.983   3.147  14.825  0.2937 -0.0113 -1.0630
18527TIP3    H277073   1.094   3.044  14.825  0.4589  0.1640 -0.6259
18528TIP3   OH277074   4.134   3.671   4.661  0.0503 -0.0792  0.0507
18528TIP3    H177075   4.206   3.674   4.597 -0.4238 -1.8162 -0.6177
18528TIP3    H277076   4.062   3.716   4.618  0.3080  0.4752  0.1802
18529TIP3   OH277077   3.172   3.796   3.084  0.2279 -0.0185 -0.5010
18529TIP3    H177078   3.151   3.867   3.023  0.0640  1.3155  1.0405
18529TIP3    H277079   3.265   3.805   3.101  0.2243 -0.2164 -0.3695
18530TIP3   OH277080   6.380   6.391  16.760 -0.6977  0.0436 -0.4260
18530TIP3    H177081   6.458   6.446  16.766 -0.2939 -0.5467 -0.1696
18530TIP3    H277082   6.314   6.447  16.718 -0.6937  1.1686  0.9587
18531TIP3   OH277083   3.398   0.651  16.596  0.1797  0.0892  0.0872
18531TIP3    H177084   3.354   0.732  16.570 -0.8761  0.0489  1.6557
18531TIP3    H277085   3.480   0.681  16.636  0.4115  0.2972 -0.5288
18532TIP3   OH277086   1.902   4.894  10.976 -0.6845 -0.3977 -0.4072
18532TIP3    H177087   1.977   4.912  10.919  0.5620 -0.8794  1.0112
18532TIP3    H277088   1.890   4.799  10.970  1.3684 -0.9447  2.2783
18533TIP3   OH277089   5.481   5.459  14.519  0.1866  0.2680  0.5333
18533TIP3    H177090   5.527   5.526  14.469  0.8798  0.5053  1.4799
18533TIP3    H277091   5.400   5.501  14.547 -0.0487  0.2397 -0.0781
18534TIP3   OH277092   2.664   1.076  14.278  0.0524  0.7349 -0.2593
18534TIP3    H177093   2.747   1.029  14.288  0.3841  1.6076  1.4312
18534TIP3    H277094   2.690   1.166  14.261 -0.5494  0.9984  0.2092
18535TIP3   OH277095   5.536   5.662   2.476 -0.1151 -0.3096 -0.8337
18535TIP3    H177096   5.581   5.584   2.508 -0.7916 -1.3150 -2.2332
18535TIP3    H277097   5.444   5.648   2.499 -0.1270  0.4806 -0.3591
18536TIP3   OH277098   4.947   2.146   1.053  0.3123  0.0236 -0.0573
18536TIP3    H177099   4.862   2.184   1.075  1.3608  2.1679  0.6487
18536TIP3    H277100   5.005   2.222   1.041  2.0860 -1.3477 -0.6968
18537TIP3   OH277101   1.927   4.968   0.268 -0.1367  0.2383 -0.0047
18537TIP3    H177102   1.976   4.923   0.338 -1.1264 -1.3124 -0.2689
18537TIP3    H277103   1.994   5.018   0.222  1.0293 -0.9278  0.3390
18538TIP3   OH277104   0.221   3.879   0.541 -0.1736  0.1270 -0.4684
18538TIP3    H177105   0.235   3.954   0.483  0.0284  0.1619 -0.3777
18538TIP3    H277106   0.135   3.846   0.518 -0.4506  0.6514 -0.2096
18539TIP3   OH277107   6.402   3.367   3.652 -0.2766 -0.1011 -0.0627
18539TIP3    H177108   6.306   3.366   3.659 -0.2002  1.2609  1.9656
18539TIP3    H277109   6.424   3.456   3.626  0.4548 -0.3852 -0.4453
18540TIP3   OH277110   6.238   3.063  10.011  0.0838 -0.1789  0.1537
18540TIP3    H177111   6.150   3.038   9.985  0.5460 -0.8734 -0.8447
18540TIP3    H277112   6.272   3.112   9.936 -0.5529  2.9828  1.7755
18541TIP3   OH277113   6.127   5.912   4.442  0.5162 -0.2032 -0.3570
18541TIP3    H177114   6.037   5.944   4.451  0.6493 -0.0361  0.4173
18541TIP3    H277115   6.122   5.820   4.465  0.5622 -0.1735 -0.2324
18542TIP3   OH277116   1.594   1.173  13.840 -0.3547 -0.1084 -0.2000
18542TIP3    H177117   1.613   1.117  13.916 -1.5150  0.1436  0.2929
18542TIP3    H277118   1.524   1.231  13.870 -1.3810 -0.5245 -1.7167
18543TIP3   OH277119   5.468   3.236  13.741 -0.2412 -0.2278  0.6724
18543TIP3    H177120   5.377   3.264  13.732 -0.5009 -1.3074 -0.1800
18543TIP3    H277121   5.520   3.311  13.711 -0.8521  0.2289  0.7493
18544TIP3   OH277122   1.822   0.852   5.461  0.0414 -0.3999  0.4696
18544TIP3    H177123   1.906   0.890   5.435  1.1104 -1.0525  2.6502
18544TIP3    H277124   1.761   0.926   5.459  0.8309  0.2580 -0.4420
18545TIP3   OH277125   1.308   6.294   0.838  0.2883  0.7457  0.0479
18545TIP3    H177126   1.400   6.319   0.840  0.9906 -1.5629  0.6558
18545TIP3    H277127   1.310   6.199   0.823 -2.0369  0.7871 -0.8958
18546TIP3   OH277128   4.969   0.925   3.630  0.1539 -0.0279 -0.3242
18546TIP3    H177129   4.908   0.984   3.586 -1.2379 -1.5515 -0.5489
18546TIP3    H277130   4.930   0.910   3.716 -1.5689 -3.3522 -1.4798
18547TIP3   OH277131   0.545   0.478  16.347  0.4217  0.3633 -1.1262
18547TIP3    H177132   0.574   0.505  16.260  2.6603  2.0270  0.0462
18547TIP3    H277133   0.624   0.446  16.390 -0.9647 -2.1999 -0.2406
18548TIP3   OH277134   2.927   2.818   0.134 -0.0765  0.8293 -0.4035
18548TIP3    H177135   2.960   2.766   0.207 -0.0916  1.7587  0.2862
18548TIP3    H277136   3.005   2.842   0.085 -0.1082 -0.1808 -0.9684
18549TIP3   OH277137   6.756   5.410  13.839  0.3894  0.3554 -0.6512
18549TIP3    H177138   6.822   5.479  13.829  1.2578 -0.3962 -0.2838
18549TIP3    H277139   6.771   5.376  13.928 -0.8559  0.5312 -0.3641
18550TIP3   OH277140   6.793   1.580  10.617 -0.2199  0.1851  0.6821
18550TIP3    H177141   6.710   1.577  10.570 -0.8113 -2.4472  1.6503
18550TIP3    H277142   6.782   1.651  10.680 -0.2593  2.2763 -1.5768
18551TIP3   OH277143   0.149   5.471   1.544 -0.2226 -0.4829 -0.7214
18551TIP3    H177144   0.094   5.427   1.608 -0.5330 -1.0352 -1.3546
18551TIP3    H277145   0.100   5.550   1.520  1.0636  1.1543  1.6203
18552TIP3   OH277146   4.652   0.026  11.750  0.4845  0.3429  0.3534
18552TIP3    H177147   4.691   0.085  11.814  1.7755  1.1825 -1.1147
18552TIP3    H277148   4.560   0.049  11.747  0.9376  2.2528 -0.0879
18553TIP3   OH277149   1.124   1.589  16.815 -0.2507  0.3903 -0.0915
18553TIP3    H177150   1.177   1.550  16.884  1.2363  1.5545 -0.5050
18553TIP3    H277151   1.188   1.612  16.747 -1.2982  1.8534 -0.6164
18554TIP3   OH277152   0.302   2.085   5.088 -0.6787 -0.8707 -0.0962
18554TIP3    H177153   0.382   2.037   5.106 -1.1955 -1.7741 -0.1900
18554TIP3    H277154   0.310   2.165   5.141  0.5677 -0.6361 -0.6100
18555TIP3   OH277155   3.643   3.554  14.284 -0.2886  0.4837 -0.2563
18555TIP3    H177156   3.659   3.561  14.378  0.0072  0.9577 -0.3387
18555TIP3    H277157   3.662   3.462  14.263 -1.2705  0.1422  0.3104
18556TIP3   OH277158   4.171   3.504  11.096 -0.3980 -0.3307  0.0746
18556TIP3    H177159   4.184   3.596  11.072  0.6320 -0.5466 -0.2347
18556TIP3    H277160   4.077   3.489  11.083 -0.8744  1.0630  1.5435
18557TIP3   OH277161   1.466   5.631   5.659  0.1702  0.9415  0.3695
18557TIP3    H177162   1.496   5.572   5.589  2.5366  1.2335  1.0469
18557TIP3    H277163   1.444   5.713   5.614 -0.0642  0.5531 -0.2272
18558TIP3   OH277164   5.682   3.762  11.599  0.4904  1.2491 -0.6166
18558TIP3    H177165   5.645   3.707  11.530 -0.2411  0.8627  0.0663
18558TIP3    H277166   5.776   3.753  11.588  0.4008  1.4523 -1.7619
18559TIP3   OH277167   2.678   4.420  13.284 -0.1658  0.0640  0.0439
18559TIP3    H177168   2.604   4.361  13.272  0.7605 -0.6866 -2.7213
18559TIP3    H277169   2.721   4.389  13.364 -0.7082 -1.8810 -0.3817
18560TIP3   OH277170   2.687   5.904  16.618 -1.3386 -1.1437  0.1154
18560TIP3    H177171   2.775   5.941  16.620 -1.2606 -1.3220 -0.0734
18560TIP3    H277172   2.647   5.940  16.539 -1.6132 -0.6535  0.4693
18561TIP3   OH277173   3.222   1.329  16.109  0.4994  0.3312  0.0898
18561TIP3    H177174   3.146   1.384  16.127 -1.2364 -1.7408 -0.3553
18561TIP3    H277175   3.265   1.319  16.194  1.1157  2.6175  0.1060
18562TIP3   OH277176   2.583   4.919  16.986 -0.4253  0.0130  0.0444
18562TIP3    H177177   2.633   4.980  17.041  0.4341  0.1905 -0.9048
18562TIP3    H277178   2.646   4.850  16.965 -0.6660  0.0776 -0.9163
18563TIP3   OH277179   0.602   0.678   4.883  0.3088  0.5438 -0.3022
18563TIP3    H177180   0.523   0.630   4.858 -0.2663  0.9148  0.7426
18563TIP3    H277181   0.673   0.629   4.842 -0.2038 -1.6034  1.2135
18564TIP3   OH277182   5.492   1.601  16.028  0.6377  0.0159 -0.3917
18564TIP3    H177183   5.419   1.655  15.998  2.2085  3.3364  1.2169
18564TIP3    H277184   5.564   1.662  16.039  3.0836 -2.7419  0.1614
18565TIP3   OH277185   1.231   1.445  13.683 -0.3482 -0.1820 -0.0452
18565TIP3    H177186   1.144   1.404  13.682  0.1666 -1.2829 -1.4808
18565TIP3    H277187   1.249   1.459  13.776 -1.1685 -1.8509  0.3965
18566TIP3   OH277188   5.309   6.464  12.737  0.2119  0.1658 -0.1345
18566TIP3    H177189   5.217   6.467  12.763  0.5499  0.4208  1.1114
18566TIP3    H277190   5.316   6.387  12.681 -0.0015 -2.3729  3.0073
18567TIP3   OH277191   2.905   2.306   1.414 -0.3426  0.0088  0.3244
18567TIP3    H177192   2.991   2.295   1.373  0.3121 -2.5609  2.1389
18567TIP3    H277193   2.842   2.281   1.346  0.4620 -0.1915 -0.3564
18568TIP3   OH277194   3.263   2.756  16.362 -0.0307 -0.2598  0.2647
18568TIP3    H177195   3.176   2.793  16.351 -0.4181 -0.7927  1.3364
18568TIP3    H277196   3.299   2.800  16.439  0.9537  0.4909 -0.6080
18569TIP3   OH277197   6.527   1.434  10.705  0.2540  0.4659  0.3860
18569TIP3    H177198   6.461   1.380  10.661 -0.0028  1.3016 -0.3102
18569TIP3    H277199   6.517   1.414  10.798 -0.0266 -0.4533  0.1690
18570TIP3   OH277200   5.293   3.681  15.836  0.2840  0.1383  0.3214
18570TIP3    H177201   5.235   3.662  15.910  0.2245 -0.0288  0.2328
18570TIP3    H277202   5.293   3.600  15.785  0.1477  0.3299  0.0186
18571TIP3   OH277203   4.468   1.810  15.645  0.1633  0.7652  0.3400
18571TIP3    H177204   4.432   1.898  15.654  0.5147  1.5343 -3.7579
18571TIP3    H277205   4.553   1.822  15.603  0.6579 -1.5001  0.5240
18572TIP3   OH277206   1.723   6.785   5.901 -0.3311  0.6000  0.0609
18572TIP3    H177207   1.774   6.865   5.889  2.7677 -0.9664  1.6109
18572TIP3    H277208   1.655   6.809   5.963 -0.3701  2.3486 -0.6020
18573TIP3   OH277209   5.302   5.180   6.584  0.1100 -0.1006 -0.2586
18573TIP3    H177210   5.347   5.097   6.597  0.3937 -0.0650 -0.9680
18573TIP3    H277211   5.347   5.242   6.641  0.6602 -0.1724 -0.6119
18574TIP3   OH277212   4.753   1.639  11.394  0.7422 -0.0450  0.2904
18574TIP3    H177213   4.830   1.675  11.349 -0.2707  0.6262 -0.9730
18574TIP3    H277214   4.767   1.661  11.486  2.2296 -0.2729  0.1523
18575TIP3   OH277215   5.548   4.523   3.226 -0.2713  0.6380 -0.1064
18575TIP3    H177216   5.474   4.582   3.242  1.2346  2.5125  0.3466
18575TIP3    H277217   5.616   4.553   3.286  0.4108 -1.9973  0.5800
18576TIP3   OH277218   5.262   5.591   3.092  0.0540 -0.3720  0.1412
18576TIP3    H177219   5.338   5.590   3.151  0.2164  0.2183 -0.0535
18576TIP3    H277220   5.232   5.682   3.094 -0.9965 -0.7235  0.6551
18577TIP3   OH277221   6.600   6.045   2.675  0.2242  0.4384  0.3789
18577TIP3    H177222   6.513   6.067   2.644  0.3189  0.2621 -0.0173
18577TIP3    H277223   6.595   5.951   2.696  0.2951  0.4476  0.4386
18578TIP3   OH277224   3.602   0.758   3.898 -0.1131  0.1086  0.1612
18578TIP3    H177225   3.596   0.663   3.909  1.2996 -0.0902 -0.5636
18578TIP3    H277226   3.684   0.781   3.941 -0.0920  0.9056 -0.3043
18579TIP3   OH277227   4.700   3.357  12.823 -0.3281 -0.1857 -0.0696
18579TIP3    H177228   4.701   3.342  12.729 -0.2440 -1.3811  0.1002
18579TIP3    H277229   4.614   3.327  12.852  0.0109 -0.7720  0.3589
18580TIP3   OH277230   1.274   6.722   4.726 -0.1736 -0.0413 -0.5569
18580TIP3    H177231   1.320   6.789   4.676  0.3279  0.1398  0.1345
18580TIP3    H277232   1.197   6.701   4.672 -0.2121  0.9077 -0.8988
18581TIP3   OH277233   1.081   4.566  15.160 -0.4228  0.0969 -0.0205
18581TIP3    H177234   1.142   4.521  15.218 -0.9686 -0.5562  0.0582
18581TIP3    H277235   1.117   4.554  15.072 -1.4137 -1.9383 -0.1870
18582TIP3   OH277236   5.839   1.088   1.292  0.1677  0.1494  0.6718
18582TIP3    H177237   5.904   1.098   1.362 -0.7515  1.5907  1.3664
18582TIP3    H277238   5.885   1.115   1.213  0.9032 -0.4702  0.8783
18583TIP3   OH277239   1.826   6.812  16.768  0.3671  0.1515  0.2820
18583TIP3    H177240   1.850   6.816  16.676 -1.3771  0.4341 -0.2078
18583TIP3    H277241   1.851   6.724  16.797 -1.1361 -0.7921 -1.1162
18584TIP3   OH277242   4.049   1.867  13.020  0.0989  0.2158 -0.1108
18584TIP3    H177243   3.995   1.836  13.093 -0.6788 -2.1656 -1.5829
18584TIP3    H277244   4.105   1.934  13.059 -1.8822  0.7157  2.1408
18585TIP3   OH277245   6.019   6.581   5.180  0.3671 -0.4175 -0.0409
18585TIP3    H177246   6.068   6.654   5.217  0.3405  0.9564 -2.4798
18585TIP3    H277247   6.078   6.542   5.116 -0.3025 -1.3363 -0.1197
18586TIP3   OH277248   6.506   5.122   1.390  0.4456 -0.3742  0.7492
18586TIP3    H177249   6.439   5.070   1.346 -0.6724  0.1099  1.7915
18586TIP3    H277250   6.539   5.065   1.459  0.5766 -0.3555  0.7018
18587TIP3   OH277251   3.519   4.114  15.538  0.1380 -0.1242  0.6122
18587TIP3    H177252   3.567   4.052  15.595  0.6562 -0.1666  0.1343
18587TIP3    H277253   3.553   4.200  15.562 -0.0320 -0.0897  0.7369
18588TIP3   OH277254   0.872   4.065   4.838  0.7897 -0.3056  0.1668
18588TIP3    H177255   0.904   4.155   4.836  1.3855 -0.5225 -0.5048
18588TIP3    H277256   0.924   4.022   4.905  2.4812 -0.8411 -1.4066
18589TIP3   OH277257   6.446   2.970   4.801  0.3311 -0.0395  0.3017
18589TIP3    H177258   6.480   3.012   4.880  1.6288  0.2742 -0.3891
18589TIP3    H277259   6.386   3.034   4.764 -0.5276 -0.3144  1.1804
18590TIP3   OH277260   3.885   0.547   4.240 -0.3678 -0.1343 -0.3461
18590TIP3    H177261   3.937   0.479   4.283 -2.5667 -1.2798  0.6803
18590TIP3    H277262   3.816   0.499   4.194 -1.2114  1.3567 -0.7176
18591TIP3   OH277263   1.699   4.251   0.895 -0.2533 -0.1359 -0.4424
18591TIP3    H177264   1.625   4.251   0.955  1.0345  1.6685  1.2927
18591TIP3    H277265   1.665   4.287   0.813 -1.0585  1.7335  0.6803
18592TIP3   OH277266   5.120   2.216  16.553 -0.2043 -0.2428 -0.2357
18592TIP3    H177267   5.171   2.140  16.527 -0.6495 -0.1465 -1.4972
18592TIP3    H277268   5.089   2.253  16.470 -0.3885  1.0348  0.3721
18593TIP3   OH277269   3.416   2.473   0.250 -0.2274  0.1868  0.7648
18593TIP3    H177270   3.413   2.391   0.201 -2.3151  0.9371 -0.4913
18593TIP3    H277271   3.425   2.446   0.342 -2.1015 -1.5397  0.5085
18594TIP3   OH277272   0.332   3.181  13.565  0.5323 -0.3328 -0.3924
18594TIP3    H177273   0.268   3.156  13.498  1.2298 -1.2737 -0.7254
18594TIP3    H277274   0.324   3.113  13.632  0.5393  0.0583  0.0125
18595TIP3   OH277275   6.284   5.708  16.349 -0.1011 -0.4088 -0.0465
18595TIP3    H177276   6.233   5.764  16.292  0.1287 -0.5452 -0.3912
18595TIP3    H277277   6.356   5.676  16.294 -1.1619 -2.4152 -0.3844
18596TIP3   OH277278   1.149   2.142  12.690  0.0805 -0.0308  0.1005
18596TIP3    H177279   1.077   2.122  12.750  0.6572 -1.4445  0.3521
18596TIP3    H277280   1.186   2.223  12.723 -1.0342  0.4212  0.2999
18597TIP3   OH277281   0.393   0.857   2.168 -0.1608 -0.3427 -0.2452
18597TIP3    H177282   0.419   0.766   2.153  1.2189  0.1566 -1.1403
18597TIP3    H277283   0.441   0.906   2.101 -0.2789  1.1289  0.7099
18598TIP3   OH277284   1.946   1.559  15.188 -0.5536 -0.1661  0.4275
18598TIP3    H177285   1.916   1.478  15.229  0.9403 -0.9698 -0.0018
18598TIP3    H277286   2.018   1.589  15.244  2.0053 -1.6678 -1.8642
18599TIP3   OH277287   2.827   0.650   1.441  0.4022  0.0360 -0.1691
18599TIP3    H177288   2.798   0.598   1.366 -0.4010  0.1582  0.0461
18599TIP3    H277289   2.746   0.688   1.477  0.7068 -0.4895  1.1173
18600TIP3   OH277290   1.973   0.920  11.624 -0.0547 -0.0048  0.7366
18600TIP3    H177291   1.898   0.977  11.609  0.0385  0.4196  1.8018
18600TIP3    H277292   1.944   0.834  11.594  0.7033  0.9746 -3.5707
18601TIP3   OH277293   2.370   0.075   4.668 -0.1804 -0.1967 -0.4341
18601TIP3    H177294   2.293   0.072   4.612 -0.1283 -2.1797 -0.4716
18601TIP3    H277295   2.443   0.053   4.610  0.8008  3.4419 -0.8342
18602TIP3   OH277296   5.803   5.052   3.145 -0.5597 -0.0467  0.3163
18602TIP3    H177297   5.749   4.995   3.090 -0.8303  0.9443 -0.4782
18602TIP3    H277298   5.892   5.039   3.112 -0.4993 -0.6084  0.6814
18603TIP3   OH277299   6.706   1.171   5.476 -0.4838 -0.1076  0.0514
18603TIP3    H177300   6.768   1.128   5.534 -0.1925  0.8180  0.4374
18603TIP3    H277301   6.627   1.183   5.529 -0.4382  0.1647  0.0581
18604TIP3   OH277302   5.096   4.155   2.905 -0.2763  0.4250 -0.0226
18604TIP3    H177303   5.129   4.211   2.975 -0.4014  1.2407 -0.6022
18604TIP3    H277304   5.010   4.127   2.936  0.2604 -0.4242  0.7870
18605TIP3   OH277305   4.255   3.675  10.580  0.0518 -0.1094  0.1650
18605TIP3    H177306   4.222   3.758  10.613  0.6826  0.0180  0.4886
18605TIP3    H277307   4.213   3.609  10.634 -1.3489 -0.0914 -0.8292
18606TIP3   OH277308   2.440   4.201   4.019  1.0535  0.3312 -0.1949
18606TIP3    H177309   2.393   4.282   3.999 -0.8882 -1.2220 -2.5406
18606TIP3    H277310   2.515   4.229   4.072  0.9841  3.7535 -1.6406
18607TIP3   OH277311   0.770   4.263   1.015 -0.4705 -0.2791  0.5486
18607TIP3    H177312   0.799   4.344   1.057 -0.2524 -0.4305  0.6878
18607TIP3    H277313   0.700   4.291   0.956  0.6987  0.2565 -0.6354
18608TIP3   OH277314   1.259   5.230  11.969 -0.3676  0.3389  0.0641
18608TIP3    H177315   1.187   5.205  12.026 -0.6627 -1.5449 -1.0444
18608TIP3    H277316   1.232   5.313  11.930 -1.0303  0.6354  1.1396
18609TIP3   OH277317   6.779   5.042  11.083  0.1500  0.0414 -0.0406
18609TIP3    H177318   6.863   5.064  11.123  0.3800  0.6543 -0.8324
18609TIP3    H277319   6.801   5.018  10.993 -0.3183 -1.6633  0.2743
18610TIP3   OH277320   5.403   3.338  11.528 -0.7092 -0.1520 -0.4600
18610TIP3    H177321   5.462   3.303  11.595 -0.1940  0.5649 -0.5271
18610TIP3    H277322   5.318   3.300  11.549 -0.6029  0.2040  0.7214
18611TIP3   OH277323   3.876   3.525  14.593  0.0757 -0.0347  0.2916
18611TIP3    H177324   3.796   3.577  14.600 -0.9662 -1.5214  0.0066
18611TIP3    H277325   3.879   3.474  14.674  0.5340 -0.2759  0.1286
18612TIP3   OH277326   0.061   5.379   1.963  0.0706 -0.0759  0.1161
18612TIP3    H177327   0.028   5.401   1.876  0.0929  0.8829  0.3411
18612TIP3    H277328   0.086   5.287   1.956 -0.1168 -0.0686 -0.8302
18613TIP3   OH277329   5.053   1.411  13.151  0.1469 -0.2559 -0.0780
18613TIP3    H177330   5.014   1.410  13.238  1.4927  1.9565  0.6377
18613TIP3    H277331   5.117   1.340  13.151  1.2991  0.7226  1.3720
18614TIP3   OH277332   1.024   0.547  13.677 -0.0042  0.4340  0.3471
18614TIP3    H177333   0.973   0.613  13.630 -0.8176  0.5127  1.3080
18614TIP3    H277334   1.090   0.517  13.613 -1.0589  0.5359 -0.8195
18615TIP3   OH277335   6.495   5.219   2.214  0.6745 -0.1905 -0.3880
18615TIP3    H177336   6.536   5.202   2.129  2.0922 -2.5367  0.6722
18615TIP3    H277337   6.422   5.157   2.217  0.9324 -0.4636  0.3001
18616TIP3   OH277338   6.151   1.942  13.459 -0.3278  0.2514  0.2468
18616TIP3    H177339   6.234   1.920  13.502 -0.3455  0.2142  0.2622
18616TIP3    H277340   6.164   1.914  13.368  0.5972  2.5371 -0.3865
18617TIP3   OH277341   0.151   3.308  14.140 -0.1042 -0.1370 -0.4179
18617TIP3    H177342   0.059   3.300  14.114 -0.5251  1.1242  0.5652
18617TIP3    H277343   0.175   3.221  14.172 -1.5212 -0.0528  0.9871
18618TIP3   OH277344   4.615   1.690  13.010 -0.0598  0.0991 -0.5510
18618TIP3    H177345   4.600   1.754  12.941  1.6741  0.3412 -0.7462
18618TIP3    H277346   4.570   1.725  13.086 -2.0148 -0.1791 -1.5328
18619TIP3   OH277347   3.481   3.535   4.432  0.0900  0.1293  0.7012
18619TIP3    H177348   3.454   3.449   4.463  1.6739 -0.2718  1.0533
18619TIP3    H277349   3.401   3.574   4.396 -1.4323 -0.1562  3.4871
18620TIP3   OH277350   2.744   5.276   5.149 -0.8065  0.3900  0.2081
18620TIP3    H177351   2.686   5.352   5.149 -1.5494 -0.1597 -0.5789
18620TIP3    H277352   2.819   5.303   5.202 -0.3029  2.2524 -1.3496
18621TIP3   OH277353   4.042   4.395   3.236 -0.2790  0.5582 -0.6903
18621TIP3    H177354   4.116   4.368   3.290 -0.3354  0.5732 -0.6047
18621TIP3    H277355   4.073   4.470   3.187 -1.0573  2.3039  1.3382
18622TIP3   OH277356   4.478   2.245  14.799  0.1760 -0.0969 -0.1105
18622TIP3    H177357   4.476   2.234  14.895 -0.2388 -0.1935 -0.1271
18622TIP3    H277358   4.555   2.299  14.783  1.3527 -1.6304  0.1137
18623TIP3   OH277359   0.657   6.405   3.751  0.3335 -0.0114 -0.1105
18623TIP3    H177360   0.663   6.321   3.707 -0.4922 -0.3115  0.3368
18623TIP3    H277361   0.717   6.462   3.702  1.6549 -1.0974  0.1813
18624TIP3   OH277362   0.340   3.181  16.674 -0.0894  0.0456 -0.3237
18624TIP3    H177363   0.358   3.106  16.616 -0.4410 -0.6648  0.4637
18624TIP3    H277364   0.298   3.245  16.617 -1.5666 -1.1338 -0.6262
18625TIP3   OH277365   3.095   0.662  12.766 -0.8780  0.0306  0.0691
18625TIP3    H177366   3.176   0.686  12.720 -0.4511  1.1774  1.3655
18625TIP3    H277367   3.037   0.737  12.753 -1.8767 -0.8893 -1.0668
18626TIP3   OH277368   6.843   6.478   0.558 -0.1611 -0.1153 -0.4281
18626TIP3    H177369   6.883   6.412   0.502  0.0842 -0.3312 -0.0100
18626TIP3    H277370   6.766   6.508   0.510  0.8497  0.7889 -1.5518
18627TIP3   OH277371   1.372   4.235  14.256  0.0691 -0.3860 -0.1359
18627TIP3    H177372   1.390   4.320  14.296 -0.7506 -0.2813  0.0337
18627TIP3    H277373   1.428   4.232  14.179  0.0422  0.3487 -0.1903
18628TIP3   OH277374   5.078   0.443  15.381  0.2142  0.5483 -0.1035
18628TIP3    H177375   5.112   0.370  15.328 -1.1589  0.3836 -0.8054
18628TIP3    H277376   5.099   0.521  15.330  0.8174  0.5713  0.1736
18629TIP3   OH277377   3.865   6.759   3.091  0.6060  0.1087  0.4560
18629TIP3    H177378   3.920   6.762   3.013 -1.2948  2.6670 -0.9771
18629TIP3    H277379   3.836   6.668   3.097  0.1095 -0.0312 -2.4535
18630TIP3   OH277380   0.170   0.508  14.873  0.3879 -0.0525  0.3714
18630TIP3    H177381   0.257   0.546  14.867  1.0423 -1.2945  1.4667
18630TIP3    H277382   0.185   0.414  14.876 -0.9224 -0.2544  1.5157
18631TIP3   OH277383   6.735   0.943  11.422 -0.1666  0.4620 -0.1741
18631TIP3    H177384   6.654   0.902  11.391 -0.5785  0.1719  1.2430
18631TIP3    H277385   6.706   1.021  11.468  0.4831  1.2252 -1.0124
18632TIP3   OH277386   4.007   3.348   4.607  0.0788  0.4916 -0.5263
18632TIP3    H177387   3.923   3.369   4.566 -0.3462 -1.0624 -0.5029
18632TIP3    H277388   4.053   3.295   4.542  0.3525 -0.0555  0.1125
18633TIP3   OH277389   3.668   2.033  13.376  0.8886  0.1100  0.1896
18633TIP3    H177390   3.593   2.008  13.430 -0.0940  1.9112 -0.2292
18633TIP3    H277391   3.711   1.951  13.354 -1.9348 -1.2034 -0.9251
18634TIP3   OH277392   1.460   0.431   4.457  0.2540  0.3819  0.4395
18634TIP3    H177393   1.394   0.411   4.523 -0.0842 -0.0106 -0.0122
18634TIP3    H277394   1.495   0.346   4.431 -0.5223  0.4154 -0.7990
18635TIP3   OH277395   1.376   4.428  14.429  0.1368  0.0445  0.3994
18635TIP3    H177396   1.376   4.441  14.524  0.1474 -2.7770  0.8631
18635TIP3    H277397   1.459   4.465  14.399  0.3620  0.5075  1.5550
18636TIP3   OH277398   0.757   1.447   4.123  0.2369 -0.3974  0.7919
18636TIP3    H177399   0.816   1.518   4.099 -0.4600 -0.3456 -0.8931
18636TIP3    H277400   0.675   1.490   4.147  0.1912 -0.5791  0.9687
18637TIP3   OH277401   1.362   6.738  13.912 -0.5475  0.2549  0.2017
18637TIP3    H177402   1.350   6.729  14.007 -0.6230 -0.3415  0.1395
18637TIP3    H277403   1.358   6.832  13.896  0.4055  0.4291  0.9100
18638TIP3   OH277404   2.079   2.998   2.787  0.9468 -0.9139 -0.1543
18638TIP3    H177405   2.050   3.030   2.702 -0.8022 -1.9559 -0.0095
18638TIP3    H277406   2.161   3.044   2.804  0.3054  0.8421 -1.4828
18639TIP3   OH277407   6.758   0.918   4.917  0.6622  0.2545  0.0528
18639TIP3    H177408   6.705   0.853   4.872  1.6637  0.0723 -0.8934
18639TIP3    H277409   6.706   0.942   4.994  0.6614 -2.3265  0.9436
18640TIP3   OH277410   3.203   0.189   1.569 -0.4872  0.2596  0.2591
18640TIP3    H177411   3.133   0.130   1.543 -1.8597  1.9608 -0.0435
18640TIP3    H277412   3.267   0.183   1.498 -1.3229  0.2711 -0.5029
18641TIP3   OH277413   3.936   2.871  11.300  0.4364 -0.5175 -0.1567
18641TIP3    H177414   3.850   2.848  11.336  0.6689  0.4733  1.1034
18641TIP3    H277415   3.916   2.922  11.221 -0.2182  1.2491  1.0809
18642TIP3   OH277416   1.896   6.575   5.363 -0.0380  0.1792  0.5550
18642TIP3    H177417   1.894   6.646   5.426  0.0748  0.0333  0.7251
18642TIP3    H277418   1.978   6.529   5.381 -0.3231 -0.2581  0.7412
18643TIP3   OH277419   3.340   0.197   2.229  0.1819 -0.0833  0.2151
18643TIP3    H177420   3.325   0.108   2.196  2.4519 -0.8884  1.1101
18643TIP3    H277421   3.277   0.206   2.301  0.5230 -1.3633  0.7169
18644TIP3   OH277422   6.727   1.009  14.352 -0.3991  0.5010 -0.0818
18644TIP3    H177423   6.786   1.004  14.427 -0.3657  2.8324  0.1031
18644TIP3    H277424   6.783   0.990  14.276  0.6690  2.7489  0.0853
18645TIP3   OH277425   6.150   1.353  13.101 -0.4296  0.5484 -0.1088
18645TIP3    H177426   6.147   1.371  13.195 -0.4489  1.1595 -0.2206
18645TIP3    H277427   6.112   1.266  13.092 -0.9465  0.7168  0.3925
18646TIP3   OH277428   3.277   5.676   5.646 -0.1915  0.1621 -0.0046
18646TIP3    H177429   3.351   5.710   5.695  0.5781  1.2058 -1.7884
18646TIP3    H277430   3.211   5.746   5.648  0.1424  0.5332 -1.0216
18647TIP3   OH277431   5.090   1.484   3.175  0.3210 -0.0300  0.3410
18647TIP3    H177432   5.074   1.571   3.140  0.0913 -0.5207 -0.8052
18647TIP3    H277433   5.064   1.424   3.105 -2.1749 -1.1453  2.0893
18648TIP3   OH277434   0.635   1.020  14.416  0.0678  0.0755 -0.0873
18648TIP3    H177435   0.722   0.996  14.382 -0.8070 -1.8658 -1.0944
18648TIP3    H277436   0.580   1.027  14.338 -0.4994  2.3919  0.4383
18649TIP3   OH277437   6.608   2.249  14.130  0.1734 -0.0867  0.0350
18649TIP3    H177438   6.601   2.244  14.226 -1.8461  0.3957 -0.0427
18649TIP3    H277439   6.609   2.343  14.112 -1.7328 -0.1408 -0.5044
18650TIP3   OH277440   1.295   0.682   2.052 -0.2696  0.2489 -0.1431
18650TIP3    H177441   1.307   0.723   2.137  1.1882 -0.7276  0.1548
18650TIP3    H277442   1.296   0.588   2.069 -2.2449  0.0196 -0.9773
18651TIP3   OH277443   6.593   2.766   0.773 -0.2918  0.0667 -0.2640
18651TIP3    H177444   6.668   2.801   0.725 -0.1493  0.2425  0.0803
18651TIP3    H277445   6.564   2.839   0.828 -0.6510 -0.0341 -0.3149
18652TIP3   OH277446   3.973   1.547   2.243 -0.4247  0.0929  0.1546
18652TIP3    H177447   3.897   1.491   2.234 -0.6326  0.4475 -0.3472
18652TIP3    H277448   3.949   1.609   2.312 -0.7354  0.4339 -0.2577
18653TIP3   OH277449   2.645   2.703  12.582  0.0227  0.8225  0.0726
18653TIP3    H177450   2.661   2.609  12.568 -0.2684  0.4244  2.1028
18653TIP3    H277451   2.732   2.741  12.593  0.0783  0.1844  2.4090
18654TIP3   OH277452   3.591   3.255   1.603 -0.2126 -0.4717  0.4233
18654TIP3    H177453   3.514   3.236   1.549 -0.4967  2.1279 -0.2396
18654TIP3    H277454   3.556   3.270   1.691 -0.5642  0.8448  0.0947
18655TIP3   OH277455   3.044   0.013  12.648  0.0286  0.5184 -0.0249
18655TIP3    H177456   3.070   0.092  12.695 -0.0257  1.3125 -1.2906
18655TIP3    H277457   2.973   0.041  12.591  0.4152 -0.2970 -0.9372
18656TIP3   OH277458   0.332   2.375  15.146  0.2770  0.0119 -0.6152
18656TIP3    H177459   0.251   2.401  15.189 -0.0241 -0.4877 -0.8694
18656TIP3    H277460   0.319   2.398  15.054  0.9298  1.1023 -0.4549
18657TIP3   OH277461   3.679   3.197   3.409 -0.6670  0.0369  0.3024
18657TIP3    H177462   3.600   3.247   3.386  0.6639  2.2836  0.3326
18657TIP3    H277463   3.703   3.229   3.495 -0.7738 -2.0857  1.1774
18658TIP3   OH277464   4.816   4.158   3.964  0.0072 -0.3008 -0.8161
18658TIP3    H177465   4.830   4.097   4.036  1.0838 -1.8941 -2.3189
18658TIP3    H277466   4.897   4.156   3.914 -0.0391  2.1422 -1.1363
18659TIP3   OH277467   1.913   2.454   0.037  0.0864 -0.1350  0.1140
18659TIP3    H177468   1.899   2.379   0.094 -1.0749  0.7560  1.0434
18659TIP3    H277469   2.007   2.473   0.043  0.0829 -0.4498  1.2193
18660TIP3   OH277470   1.951   6.644   1.675 -0.0210  0.3274 -0.0728
18660TIP3    H177471   1.884   6.650   1.743  1.8843  1.8196  1.8168
18660TIP3    H277472   1.904   6.614   1.597 -2.8429  1.2223  1.1533
18661TIP3   OH277473   4.736   3.026  12.487  0.3670 -0.4320  0.1066
18661TIP3    H177474   4.684   2.946  12.498  1.7103 -1.2365  0.8460
18661TIP3    H277475   4.824   3.002  12.515  0.5944  1.5756  1.3291
18662TIP3   OH277476   0.322   0.650   0.799  0.0508  0.0267 -0.2519
18662TIP3    H177477   0.237   0.606   0.807  0.7511 -1.8290 -2.0125
18662TIP3    H277478   0.371   0.621   0.875 -0.5816  0.3867  0.3045
18663TIP3   OH277479   2.581   4.269   1.581 -0.6160 -0.1819 -0.1048
18663TIP3    H177480   2.496   4.226   1.570 -0.6849  0.1548 -0.9622
18663TIP3    H277481   2.608   4.293   1.492 -0.0736  0.5786  0.2486
18664TIP3   OH277482   2.812   2.863  16.316  0.2489 -0.8626  0.2690
18664TIP3    H177483   2.854   2.820  16.390  2.8818 -1.4811 -1.4219
18664TIP3    H277484   2.885   2.886  16.258 -1.7484 -1.5191 -2.6952
18665TIP3   OH277485   2.342   6.145   1.129 -0.9817  0.4523 -0.1119
18665TIP3    H177486   2.420   6.102   1.165 -1.2155 -0.5943 -0.7830
18665TIP3    H277487   2.373   6.185   1.047 -1.1131  0.1327 -0.3214
18666TIP3   OH277488   3.773   1.512   3.886  0.2918  0.5326 -0.6372
18666TIP3    H177489   3.735   1.499   3.799 -0.0466 -0.6405 -0.3242
18666TIP3    H277490   3.737   1.596   3.915  0.0883  0.7393 -1.4522
18667TIP3   OH277491   5.668   3.997  15.434 -0.1164 -0.0801  0.0585
18667TIP3    H177492   5.738   4.032  15.379 -1.0190  1.2473 -0.3019
18667TIP3    H277493   5.588   4.034  15.396 -1.0054 -1.5150  0.4931
18668TIP3   OH277494   0.420   6.096   3.826 -0.0960 -0.2198 -0.4055
18668TIP3    H177495   0.380   6.145   3.754  0.2395 -0.8907 -1.0698
18668TIP3    H277496   0.382   6.133   3.905 -1.5787 -0.4306 -0.9813
18669TIP3   OH277497   4.208   3.665   0.126 -0.1486 -0.0654  0.7892
18669TIP3    H177498   4.215   3.681   0.032  0.6128  0.4668  0.9305
18669TIP3    H277499   4.229   3.749   0.167  1.9877 -0.8556  1.4929
18670TIP3   OH277500   2.151   1.958   0.091  0.3367 -0.1963 -0.4631
18670TIP3    H177501   2.089   1.900   0.134 -0.7577  1.4192  0.2255
18670TIP3    H277502   2.163   1.920   0.004 -3.2749  0.4723 -1.4273
18671TIP3   OH277503   2.129   5.707  12.077 -0.2583  0.0674  0.0714
18671TIP3    H177504   2.105   5.616  12.093  0.9469 -0.2053  0.3906
18671TIP3    H277505   2.155   5.709  11.985 -3.1285  0.7553 -0.8434
18672TIP3   OH277506   0.085   5.137   1.815  0.4637 -0.5544  0.2014
18672TIP3    H177507   0.034   5.206   1.774  1.6660  1.0663  1.3107
18672TIP3    H277508   0.070   5.060   1.759  0.2315  0.9424 -1.9327
18673TIP3   OH277509   0.179   0.680  12.801  0.1427 -0.4408  0.1734
18673TIP3    H177510   0.117   0.619  12.762 -0.4694  0.4270 -0.2312
18673TIP3    H277511   0.215   0.728  12.727  0.6525 -0.3335  0.4860
18674TIP3   OH277512   1.591   2.851   5.475  0.1579 -0.0619  0.3560
18674TIP3    H177513   1.614   2.762   5.448  2.1765  0.5603 -0.1598
18674TIP3    H277514   1.554   2.891   5.396 -1.9807 -0.7785  0.9316
18675TIP3   OH277515   4.908   1.302  12.207  0.0341 -0.1228  0.3770
18675TIP3    H177516   4.841   1.238  12.182  1.2745 -1.0996 -0.5683
18675TIP3    H277517   4.983   1.248  12.235  0.9112  0.9242  0.0877
18676TIP3   OH277518   2.092   1.344   5.544 -0.3907  1.0769  0.0102
18676TIP3    H177519   2.115   1.344   5.451 -1.1812 -1.7665 -0.2685
18676TIP3    H277520   2.000   1.368   5.546 -0.6870 -0.0321 -0.0661
18677TIP3   OH277521   6.256   4.184   1.102  0.0880  0.0448  0.2444
18677TIP3    H177522   6.245   4.201   1.009 -0.3140 -0.1626  0.2533
18677TIP3    H277523   6.312   4.256   1.133 -1.5611  1.3810  0.2823
18678TIP3   OH277524   3.388   2.673   5.346 -0.3201 -0.0418 -0.1966
18678TIP3    H177525   3.430   2.600   5.392 -0.2655 -0.5571 -1.0337
18678TIP3    H277526   3.297   2.671   5.377  0.1655  0.8577  1.3514
18679TIP3   OH277527   6.124   0.621  14.977  0.0726  0.4013  0.3349
18679TIP3    H177528   6.161   0.629  15.065  0.8069  2.7965 -0.1317
18679TIP3    H277529   6.030   0.629  14.989  0.0864 -0.2157  0.9613
18680TIP3   OH277530   6.454   4.226  10.433 -0.2944  0.0581  0.8210
18680TIP3    H177531   6.547   4.224  10.455 -0.4439 -2.3592  1.4946
18680TIP3    H277532   6.442   4.153  10.373 -1.7635  0.3785  0.6832
18681TIP3   OH277533   6.247   0.443  14.197 -0.7496 -0.4952  0.3771
18681TIP3    H177534   6.215   0.426  14.108  1.2239  2.0640 -0.9524
18681TIP3    H277535   6.240   0.538  14.208 -1.0563 -0.7514  3.0571
18682TIP3   OH277536   3.494   2.751   4.147 -0.6091  0.7556 -0.2379
18682TIP3    H177537   3.460   2.811   4.081 -1.3661  0.2596 -0.3183
18682TIP3    H277538   3.430   2.755   4.219  0.4609  1.6669  0.7000
18683TIP3   OH277539   3.077   2.037  12.317  0.6132 -0.1544  0.3801
18683TIP3    H177540   2.997   2.036  12.265  0.9079 -1.1846 -0.0677
18683TIP3    H277541   3.117   2.122  12.298  0.6313 -0.4449 -0.9659
18684TIP3   OH277542   4.907   6.567   1.971  0.1643 -0.2600 -0.0277
18684TIP3    H177543   4.878   6.477   1.986 -1.4699  0.7409  3.9294
18684TIP3    H277544   4.828   6.615   1.949  0.9150  0.3847 -1.4370
18685TIP3   OH277545   5.133   1.464   2.865  0.3211 -0.1923  0.2826
18685TIP3    H177546   5.181   1.545   2.879 -0.2710 -0.1120  2.1952
18685TIP3    H277547   5.201   1.397   2.857  0.8195  0.4714 -1.5403
18686TIP3   OH277548   5.478   5.613  15.832 -0.0316  0.6803 -0.3167
18686TIP3    H177549   5.516   5.571  15.754  1.9820  1.6011  0.1111
18686TIP3    H277550   5.453   5.540  15.888 -0.0845  0.0207 -1.1701
18687TIP3   OH277551   0.404   5.472   0.109 -0.5508 -0.6903 -0.3731
18687TIP3    H177552   0.349   5.438   0.179  0.3371 -0.0624  0.6546
18687TIP3    H277553   0.344   5.523   0.054 -1.0240 -0.0397  0.7080
18688TIP3   OH277554   6.047   1.792   2.223  0.0184  0.7186  0.2053
18688TIP3    H177555   5.988   1.724   2.258  0.2203  0.4926  0.1080
18688TIP3    H277556   6.057   1.854   2.295  0.8188  0.0026  0.7316
18689TIP3   OH277557   0.668   0.770  15.639  0.2626  0.6330 -0.7357
18689TIP3    H177558   0.669   0.676  15.623 -1.7252  0.5750 -0.7449
18689TIP3    H277559   0.577   0.795  15.628  0.5309  2.3441  0.5397
18690TIP3   OH277560   5.221   3.415  16.428 -0.0765 -1.2007  0.0036
18690TIP3    H177561   5.245   3.451  16.513 -3.8500  1.0790  0.3589
18690TIP3    H277562   5.219   3.491  16.370  0.0715 -2.3312 -1.5632
18691TIP3   OH277563   1.671   4.145   5.615  0.5529 -0.2021 -0.1574
18691TIP3    H177564   1.620   4.090   5.556  1.0148 -0.1979 -0.5653
18691TIP3    H277565   1.637   4.124   5.702  0.2137 -0.5827 -0.3764
18692TIP3   OH277566   4.263   1.170  15.166  0.4175 -0.0907  0.2470
18692TIP3    H177567   4.168   1.178  15.178  0.6378  0.2769  2.1022
18692TIP3    H277568   4.291   1.110  15.236  1.2709 -2.2703 -1.8138
18693TIP3   OH277569   1.915   4.235   4.840  0.2900  0.1317 -0.7061
18693TIP3    H177570   2.008   4.230   4.860  0.3002  0.2103 -0.7315
18693TIP3    H277571   1.875   4.164   4.890  0.2071  0.8010  0.1929
18694TIP3   OH277572   0.925   3.639  15.017  0.0096 -0.0370 -0.2910
18694TIP3    H177573   0.979   3.705  14.975  1.7683  0.0904  2.0111
18694TIP3    H277574   0.852   3.688  15.055 -0.0121  0.2209 -0.6589
18695TIP3   OH277575   2.490   2.905   3.336  0.2177  0.7881 -0.3362
18695TIP3    H177576   2.569   2.921   3.386 -0.0654  0.8661  0.0931
18695TIP3    H277577   2.460   2.992   3.309  0.2631  0.7611 -0.4746
18696TIP3   OH277578   2.701   4.832   2.653  0.4115  0.5899  1.0293
18696TIP3    H177579   2.722   4.798   2.740 -0.1984  0.0381  0.9683
18696TIP3    H277580   2.661   4.758   2.607 -0.5309  1.2498  0.7502
18697TIP3   OH277581   2.004   2.515   3.104 -0.2948 -0.0218  0.0389
18697TIP3    H177582   1.946   2.569   3.158  0.8453 -0.8576  2.1828
18697TIP3    H277583   2.075   2.575   3.080 -1.5874  0.8079 -2.0158
18698TIP3   OH277584   5.014   4.963   4.852 -0.2029 -0.0603  0.0326
18698TIP3    H177585   5.103   4.998   4.846  0.3390 -1.3385  0.3116
18698TIP3    H277586   4.959   5.032   4.814  1.0703  0.1029 -1.6695
18699TIP3   OH277587   0.098   4.560  16.138 -0.5462  0.3353 -0.1981
18699TIP3    H177588   0.104   4.530  16.047 -1.2834 -0.8338  0.1212
18699TIP3    H277589   0.011   4.599  16.144 -1.5892 -1.9670  0.6546
18700TIP3   OH277590   4.508   6.342   0.507 -0.0592 -0.2497 -0.3068
18700TIP3    H177591   4.479   6.274   0.568 -0.0452  0.6829  0.7711
18700TIP3    H277592   4.603   6.335   0.506 -0.0801 -0.5153 -0.5221
18701TIP3   OH277593   4.476   4.000  14.114 -0.0779 -0.2963  0.1148
18701TIP3    H177594   4.535   4.054  14.061  0.9211 -1.6374 -0.2096
18701TIP3    H277595   4.523   3.986  14.196 -1.2043  0.9628  1.0243
18702TIP3   OH277596   6.377   1.467  11.407 -0.0392  0.2100  0.3137
18702TIP3    H177597   6.292   1.510  11.398  0.7449  1.4476 -2.7334
18702TIP3    H277598   6.428   1.525  11.463 -0.1111  1.4752 -0.8786
18703TIP3   OH277599   4.014   5.940   2.077  0.6090 -0.1038  0.7278
18703TIP3    H177600   4.040   5.848   2.076  0.4508 -0.1461 -0.1991
18703TIP3    H277601   4.091   5.987   2.047  0.8051  0.1118  1.5299
18704TIP3   OH277602   3.746   0.264   2.832  0.2177 -0.3628 -0.2515
18704TIP3    H177603   3.743   0.256   2.927  0.2157  0.5389 -0.1751
18704TIP3    H277604   3.742   0.173   2.800 -1.3145 -0.5907  0.5461
18705TIP3   OH277605   3.611   1.754  12.936 -0.3412  0.2402  0.0338
18705TIP3    H177606   3.651   1.696  13.001  0.6656 -0.4896 -1.1999
18705TIP3    H277607   3.526   1.715  12.918 -0.4499  0.2084  0.6012
18706TIP3   OH277608   2.034   4.309   0.838 -0.1708  0.0297  0.5592
18706TIP3    H177609   2.115   4.318   0.887  1.3197 -0.1073 -1.7151
18706TIP3    H277610   1.997   4.226   0.867  0.9981 -0.3681  0.9593
18707TIP3   OH277611   5.663   6.782   0.313 -0.1396  0.0459  0.0237
18707TIP3    H177612   5.591   6.832   0.274 -0.0528 -0.5576 -0.9407
18707TIP3    H277613   5.626   6.745   0.394 -0.8900 -0.1846 -0.4165
18708TIP3   OH277614   0.035   2.352  12.884  0.1112  0.1849 -0.3642
18708TIP3    H177615   0.092   2.423  12.915  0.0494  0.2369 -0.3698
18708TIP3    H277616   0.035   2.361  12.789  1.2445 -0.6926 -0.4673
18709TIP3   OH277617   4.759   4.490  15.818  0.5517  0.0122 -0.5162
18709TIP3    H177618   4.714   4.434  15.881  1.2044 -1.1655 -1.0589
18709TIP3    H277619   4.846   4.504  15.855  0.7234 -0.1552 -0.8505
18710TIP3   OH277620   6.523   4.678   2.421  0.3674  0.2368  0.2698
18710TIP3    H177621   6.600   4.622   2.434  2.0717  2.5210  0.5821
18710TIP3    H277622   6.474   4.670   2.503 -0.8847 -2.7378 -0.6230
18711TIP3   OH277623   3.720   4.896  13.692  0.1442 -0.0266  0.2122
18711TIP3    H177624   3.736   4.956  13.618 -0.7276  0.9411  0.7773
18711TIP3    H277625   3.681   4.952  13.759 -0.0207 -1.1040  1.0264
18712TIP3   OH277626   4.583   2.771  12.864  0.0127  0.1915  0.6995
18712TIP3    H177627   4.645   2.762  12.936 -0.4811  1.2996  1.2824
18712TIP3    H277628   4.606   2.854  12.823 -0.7792  0.3892  0.6413
18713TIP3   OH277629   0.072   1.916   2.716 -0.1777 -0.6775  0.0007
18713TIP3    H177630  -0.009   1.868   2.701  0.7196 -1.9940 -0.9318
18713TIP3    H277631   0.141   1.854   2.693  1.1146  0.2585  1.1720
18714TIP3   OH277632   5.651   5.818   0.698 -0.2807  0.5083 -0.1888
18714TIP3    H177633   5.673   5.893   0.643  0.2868 -0.3377 -1.1613
18714TIP3    H277634   5.557   5.804   0.683 -0.0664  0.0864 -1.2314
18715TIP3   OH277635   2.445   4.966   2.630  0.1955 -0.3254  0.5127
18715TIP3    H177636   2.492   4.928   2.556 -1.6788 -1.1886 -0.2942
18715TIP3    H277637   2.372   4.906   2.646 -0.7866  1.0761  1.5493
18716TIP3   OH277638   1.952   2.295  16.065 -0.6785 -0.2182  0.0394
18716TIP3    H177639   1.979   2.233  15.997 -0.9255  0.8276 -1.0465
18716TIP3    H277640   1.856   2.294  16.062 -0.6773  0.6788 -0.4271
18717TIP3   OH277641   0.972   4.486  14.761 -0.4353  0.4133 -0.1376
18717TIP3    H177642   1.024   4.553  14.717  0.0399  0.5460  0.5985
18717TIP3    H277643   0.976   4.410  14.703 -0.2373  0.7400 -0.5538
18718TIP3   OH277644   5.156   0.324  16.806 -0.4755  0.3157 -0.0700
18718TIP3    H177645   5.094   0.255  16.827 -1.1765  0.6634 -0.9211
18718TIP3    H277646   5.242   0.284  16.817 -0.8738 -1.0169 -1.5302
18719TIP3   OH277647   0.818   0.315   0.127 -0.4600 -0.6283 -0.5913
18719TIP3    H177648   0.767   0.392   0.153 -1.5475 -0.8463 -1.9442
18719TIP3    H277649   0.857   0.283   0.208 -0.7541  0.7916  0.1481
18720TIP3   OH277650   2.793   0.789  12.676 -0.3164  0.0212  0.5314
18720TIP3    H177651   2.770   0.855  12.610 -2.6922  1.1487  2.3183
18720TIP3    H277652   2.709   0.751  12.703  0.6860 -1.3037  1.9999
18721TIP3   OH277653   5.267   5.666   5.086  0.1108 -0.0588  0.1682
18721TIP3    H177654   5.298   5.710   5.166  0.6844 -0.4316  0.1624
18721TIP3    H277655   5.202   5.603   5.118 -0.1409  0.2545  0.2681
18722TIP3   OH277656   2.352   3.516   4.587 -0.3408 -0.3107 -0.0850
18722TIP3    H177657   2.326   3.594   4.635 -0.3092  0.5448 -1.4109
18722TIP3    H277658   2.411   3.469   4.647  1.7286  1.9727 -0.1616
18723TIP3   OH277659   3.950   0.554  13.566 -0.0037  0.5065  0.0384
18723TIP3    H177660   3.897   0.583  13.492 -0.7341 -1.7368 -0.4071
18723TIP3    H277661   4.014   0.493  13.528  1.7515  1.7542  0.8373
18724TIP3   OH277662   0.376   3.302  11.218  0.5806 -0.1548 -0.2910
18724TIP3    H177663   0.405   3.335  11.303 -1.9063 -0.7861  0.8857
18724TIP3    H277664   0.394   3.208  11.222  0.8948 -0.1120 -0.6652
18725TIP3   OH277665   3.901   5.265   5.393  0.1408 -0.4718 -1.0188
18725TIP3    H177666   3.841   5.293   5.463  0.5338  0.5913 -1.0875
18725TIP3    H277667   3.960   5.203   5.436 -0.0468 -0.3484 -0.5737
18726TIP3   OH277668   5.305   0.464  10.643  0.1231  0.2941  0.3570
18726TIP3    H177669   5.362   0.450  10.719 -1.4106 -0.2396  1.4586
18726TIP3    H277670   5.311   0.558  10.626  0.4641  0.4303  1.1760
18727TIP3   OH277671   1.960   0.590  14.400  0.1248  0.0785 -0.3420
18727TIP3    H177672   1.896   0.552  14.340  0.1783 -0.0074 -0.3440
18727TIP3    H277673   2.045   0.567  14.362  0.1928 -1.4169  0.6592
18728TIP3   OH277674   0.382   0.359  12.292 -0.2172 -0.1830  0.8459
18728TIP3    H177675   0.451   0.402  12.342  0.6644 -0.2792 -0.2504
18728TIP3    H277676   0.412   0.364  12.201 -1.0253 -1.3870  0.4965
18729TIP3   OH277677   4.627   1.461  13.972 -0.2159 -0.3384 -0.4070
18729TIP3    H177678   4.678   1.406  14.032 -0.2226 -0.3760 -0.4355
18729TIP3    H277679   4.692   1.504  13.917 -0.2151 -0.3940 -0.4495
18730TIP3   OH277680   4.135   5.283   2.129 -0.0134  0.0652 -0.2520
18730TIP3    H177681   4.053   5.321   2.160  1.7886  4.5073 -0.2501
18730TIP3    H277682   4.112   5.237   2.049 -2.6264  0.2537  0.3147
18731TIP3   OH277683   1.391   0.759   3.900 -0.1644 -0.0229  0.0280
18731TIP3    H177684   1.482   0.741   3.921  0.9680  4.3368 -0.1658
18731TIP3    H277685   1.390   0.769   3.804 -1.2168 -1.4410 -0.1370
18732TIP3   OH277686   3.692   2.520  16.486  0.1592 -0.3364 -0.4145
18732TIP3    H177687   3.627   2.581  16.451  2.7834  2.1674 -1.3248
18732TIP3    H277688   3.642   2.463  16.544 -2.5627  2.5283  0.3488
18733TIP3   OH277689   3.736   2.864  13.539 -0.4105  0.1283 -0.1781
18733TIP3    H177690   3.794   2.809  13.487  0.7738  0.2034  1.0028
18733TIP3    H277691   3.784   2.946  13.549  0.5142 -0.6770  2.9699
18734TIP3   OH277692   3.773   1.678   1.806  0.5228 -0.3713 -0.3266
18734TIP3    H177693   3.865   1.693   1.782  0.5723 -2.2397 -1.4630
18734TIP3    H277694   3.776   1.663   1.900  1.1734  0.9933 -0.1018
18735TIP3   OH277695   5.367   1.836  14.974 -0.6306  0.3613 -0.2596
18735TIP3    H177696   5.293   1.853  15.032 -0.3326  1.0442 -0.0700
18735TIP3    H277697   5.398   1.749  15.000 -0.2774  0.8032  0.8648
18736TIP3   OH277698   5.193   4.744   2.279  0.8993  0.1358 -0.7414
18736TIP3    H177699   5.177   4.838   2.278  0.2291  0.1182  1.6846
18736TIP3    H277700   5.173   4.717   2.368 -0.3814 -2.5758 -1.7324
18737TIP3   OH277701   6.733   6.531   5.679 -0.3899 -0.1011 -0.1504
18737TIP3    H177702   6.675   6.526   5.756 -0.4288 -0.5939 -0.2106
18737TIP3    H277703   6.674   6.551   5.606 -0.9681 -3.4311 -0.7370
18738TIP3   OH277704   3.157   5.017   3.734  0.4486  0.1480 -0.4661
18738TIP3    H177705   3.147   4.944   3.795 -0.0254 -0.4495 -1.2542
18738TIP3    H277706   3.091   5.002   3.667 -0.5307  1.9539  0.0075
18739TIP3   OH277707   1.739   1.991  12.240  0.3008 -0.2482 -0.1386
18739TIP3    H177708   1.797   2.058  12.275 -2.1965  1.9683  0.0230
18739TIP3    H277709   1.715   2.023  12.153  0.8342 -2.1421 -1.0394
18740TIP3   OH277710   2.062   1.203  16.185 -0.5910  0.0190 -0.0505
18740TIP3    H177711   2.072   1.296  16.206  0.6286 -0.0406 -0.2601
18740TIP3    H277712   1.968   1.189  16.179 -0.8092  1.9846 -3.1800
18741TIP3   OH277713   5.328   3.813   5.351  0.0057 -0.5705 -0.0870
18741TIP3    H177714   5.362   3.833   5.264  1.8372  0.8480  0.8883
18741TIP3    H277715   5.330   3.717   5.357 -0.6370 -0.7094 -1.7497
18742TIP3   OH277716   5.852   5.288   4.552 -0.3079  0.1211 -0.1256
18742TIP3    H177717   5.808   5.229   4.491 -0.1100 -1.3076  1.0833
18742TIP3    H277718   5.945   5.268   4.542 -0.1167  1.1348 -0.6000
18743TIP3   OH277719   2.277   2.780   5.681  0.0395 -0.2405 -0.5371
18743TIP3    H177720   2.321   2.839   5.620 -1.6915  2.5090  0.6599
18743TIP3    H277721   2.185   2.804   5.676 -0.5703 -1.9852  1.0102
18744TIP3   OH277722   6.336   6.510  14.085 -0.2673  0.3872 -0.4419
18744TIP3    H177723   6.396   6.435  14.086  0.0887  0.6677 -0.2176
18744TIP3    H277724   6.344   6.547  14.173 -2.1272 -0.6237  0.2031
18745TIP3   OH277725   1.493   5.368  14.584  0.2386 -0.0312  0.7548
18745TIP3    H177726   1.493   5.463  14.597 -0.4050  0.4733 -2.1255
18745TIP3    H277727   1.401   5.344  14.574  0.4541 -0.7302  0.3004
18746TIP3   OH277728   2.354   4.080  14.203  0.7282  0.6428  0.2659
18746TIP3    H177729   2.311   4.135  14.268  1.1708 -0.1605  1.2699
18746TIP3    H277730   2.301   4.001  14.199  1.6898 -0.0741  1.0170
18747TIP3   OH277731   1.269   5.375   1.199 -0.0208 -0.1925 -0.3026
18747TIP3    H177732   1.281   5.396   1.106 -0.6974 -0.2388 -0.4023
18747TIP3    H277733   1.191   5.423   1.225 -1.2210 -2.0205 -0.3626
18748TIP3   OH277734   6.029   3.658   1.976  0.1769 -0.0174 -0.1284
18748TIP3    H177735   5.941   3.687   1.997 -0.1125  0.0728 -1.4276
18748TIP3    H277736   6.086   3.730   2.003 -0.1071 -0.1536  0.8829
18749TIP3   OH277737   5.574   1.267  11.275  0.0186  0.2012  0.0499
18749TIP3    H177738   5.553   1.347  11.226 -0.2471  0.1482  0.0751
18749TIP3    H277739   5.624   1.298  11.351 -0.7405  0.4306  0.4693
18750TIP3   OH277740   2.518   2.293  12.572 -0.3433 -0.1497 -0.3732
18750TIP3    H177741   2.524   2.199  12.557  0.2509 -0.3497  0.9996
18750TIP3    H277742   2.467   2.326  12.498  0.9568 -1.2819 -1.8312
18751TIP3   OH277743   6.287   6.812  15.807  0.1767 -0.0573 -0.4450
18751TIP3    H177744   6.260   6.881  15.746  2.3003  0.8406 -0.4519
18751TIP3    H277745   6.296   6.857  15.891  0.0112 -0.6997 -0.0767
18752TIP3   OH277746   0.003   3.715   1.390  0.2108 -0.1638  0.3947
18752TIP3    H177747  -0.067   3.661   1.429  0.1605  0.3663  1.0592
18752TIP3    H277748   0.069   3.651   1.363 -0.3938 -0.6506  0.0295
18753TIP3   OH277749   4.348   1.293   2.393  0.5002 -0.0915 -0.0485
18753TIP3    H177750   4.357   1.209   2.437 -0.7730  0.1991  0.8215
18753TIP3    H277751   4.254   1.310   2.392  0.5294  0.2736 -2.2697
18754TIP3   OH277752   4.101   1.708   3.995 -0.3042  0.2188 -0.7508
18754TIP3    H177753   4.096   1.646   3.922 -0.7387 -0.9941  0.2636
18754TIP3    H277754   4.094   1.653   4.073  0.0236  1.4925  0.2096
18755TIP3   OH277755   6.758   1.815   3.131  0.0750  0.3315  0.1907
18755TIP3    H177756   6.832   1.770   3.090 -0.1768  0.0413  0.0528
18755TIP3    H277757   6.695   1.826   3.059  0.1126  0.8552  0.2338
18756TIP3   OH277758   3.304   3.895   5.703 -0.2043 -0.4577 -0.1667
18756TIP3    H177759   3.265   3.853   5.780 -1.1905  0.1263 -0.3312
18756TIP3    H277760   3.287   3.988   5.715 -2.9171 -0.5379 -2.4189
18757TIP3   OH277761   4.171   1.192   0.293  0.1684  0.0577 -0.1181
18757TIP3    H177762   4.214   1.277   0.306 -2.2145  1.2375  0.5170
18757TIP3    H277763   4.223   1.131   0.346  1.8991  1.0830 -0.5435
18758TIP3   OH277764   0.713   0.295  15.552  0.0099  0.2909 -0.2236
18758TIP3    H177765   0.697   0.350  15.628 -1.1377 -0.3171 -0.0087
18758TIP3    H277766   0.717   0.206  15.586 -1.9911 -0.1540 -1.0096
18759TIP3   OH277767   6.550   2.215   3.328  0.3998  0.1786 -0.4739
18759TIP3    H177768   6.609   2.183   3.260 -0.4008  0.1274 -1.1543
18759TIP3    H277769   6.467   2.233   3.283 -0.1338  0.1882  0.4697
18760TIP3   OH277770   1.306   2.195   5.910  0.2950  0.3709 -0.3704
18760TIP3    H177771   1.341   2.262   5.970  1.0870  0.4938 -0.9536
18760TIP3    H277772   1.212   2.197   5.925  0.0474  2.9956 -1.7301
18761TIP3   OH277773   1.637   4.729   0.048  0.3884 -0.1484  0.5937
18761TIP3    H177774   1.617   4.800  -0.013  0.1101  0.0390  0.9012
18761TIP3    H277775   1.706   4.678   0.004 -2.0910 -2.0150 -1.4729
18762TIP3   OH277776   0.195   6.784  11.905 -0.5507 -0.2494 -0.0753
18762TIP3    H177777   0.166   6.781  11.814 -0.6259 -1.3685 -0.0341
18762TIP3    H277778   0.288   6.759  11.901 -0.4451  0.1101  0.1143
18763TIP3   OH277779   0.996   3.482   4.098 -0.1960  0.1736  0.2931
18763TIP3    H177780   0.981   3.501   4.005  0.4432  1.2545  0.3933
18763TIP3    H277781   1.084   3.515   4.116 -0.3256  0.0195  1.2951
18764TIP3   OH277782   5.900   3.254  13.559  0.4980  0.2337 -0.7863
18764TIP3    H177783   5.914   3.290  13.647  1.6672 -0.7728 -0.5390
18764TIP3    H277784   5.884   3.161  13.574 -0.5265  0.2733 -1.5629
18765TIP3   OH277785   3.941   2.095   0.919 -0.5334 -0.3144  0.3071
18765TIP3    H177786   4.021   2.139   0.890 -1.3190  0.5402 -0.6587
18765TIP3    H277787   3.935   2.017   0.864 -0.5755 -0.1607  0.0926
18766TIP3   OH277788   0.127   3.491   0.443 -0.7762  0.3191  0.2787
18766TIP3    H177789   0.170   3.553   0.384  0.9589 -0.8981  0.2022
18766TIP3    H277790   0.184   3.486   0.519 -0.7350 -1.3403  0.1777
18767TIP3   OH277791   0.241   5.046   6.475  0.3294 -0.4538 -0.0759
18767TIP3    H177792   0.186   5.125   6.470 -0.7020 -1.2191 -2.0344
18767TIP3    H277793   0.210   4.991   6.403  2.8904 -1.4633 -0.5218
18768TIP3   OH277794   5.363   6.070   6.398 -0.4970  0.0942  0.1758
18768TIP3    H177795   5.270   6.068   6.374 -0.7328  0.7039  0.9880
18768TIP3    H277796   5.363   6.104   6.488  0.3464 -2.0190  1.0534
18769TIP3   OH277797   3.330   5.507  13.384  0.3846  0.2411 -0.3303
18769TIP3    H177798   3.235   5.494  13.387  0.2491  1.3761  0.9248
18769TIP3    H277799   3.341   5.586  13.330  0.7491 -0.7456 -1.7773
18770TIP3   OH277800   2.841   2.871  15.500 -0.5234  0.6819  0.0874
18770TIP3    H177801   2.931   2.870  15.534  0.2070  2.4444 -1.6149
18770TIP3    H277802   2.851   2.858  15.406 -2.0778  0.7604 -0.1094
18771TIP3   OH277803   4.384   0.604  10.701 -0.2522 -0.2723  0.1205
18771TIP3    H177804   4.294   0.592  10.673 -0.1669  0.0677 -0.3043
18771TIP3    H277805   4.435   0.599  10.620  0.0635  0.0111  0.3005
18772TIP3   OH277806   1.224   1.306   5.470 -0.3098 -0.7325 -0.1985
18772TIP3    H177807   1.135   1.320   5.436 -0.4229 -0.9344  0.0152
18772TIP3    H277808   1.221   1.338   5.560 -0.4756 -1.7891  0.1845
18773TIP3   OH277809   2.416   2.955  13.511  0.3270  0.0576  0.5171
18773TIP3    H177810   2.340   2.989  13.559  1.2187  0.9382  1.3605
18773TIP3    H277811   2.396   2.863  13.496 -1.0503  0.3456  0.4246
18774TIP3   OH277812   0.680   6.087   0.582 -0.4935 -0.1089  0.0979
18774TIP3    H177813   0.611   6.139   0.623  1.1230  2.0024  0.3542
18774TIP3    H277814   0.735   6.152   0.537  0.6423 -1.8229 -1.1017
18775TIP3   OH277815   0.336   3.968   0.103 -0.4153 -0.3089  0.1453
18775TIP3    H177816   0.248   3.941   0.131 -0.3078 -1.6290 -0.6976
18775TIP3    H277817   0.395   3.912   0.153 -0.1506 -1.0870 -0.9993
18776TIP3   OH277818   4.703   5.684  12.159  0.1455 -0.3487 -0.1080
18776TIP3    H177819   4.792   5.665  12.189  0.4151  0.1688 -0.5626
18776TIP3    H277820   4.715   5.734  12.078 -0.5215  1.1274  0.6519
18777TIP3   OH277821   5.359   2.910  16.642 -0.1621 -0.3492  0.1431
18777TIP3    H177822   5.427   2.851  16.609 -0.2331 -1.0827  1.2460
18777TIP3    H277823   5.294   2.852  16.682 -0.1344  0.4715  1.4455
18778TIP3   OH277824   0.040   0.948   2.491 -0.2590  0.7929  0.2802
18778TIP3    H177825   0.065   0.902   2.411 -0.9093  0.1975  0.4015
18778TIP3    H277826   0.042   1.040   2.468 -0.7906  0.6132 -0.5456
18779TIP3   OH277827   0.476   1.551  13.307 -0.0610  0.5537 -0.2281
18779TIP3    H177828   0.499   1.585  13.220 -0.7733  2.1210  0.1624
18779TIP3    H277829   0.419   1.476  13.288  0.2338  0.5372 -1.1147
18780TIP3   OH277830   2.210   6.057  17.063  0.0075 -0.4114  0.5931
18780TIP3    H177831   2.253   5.978  17.030  0.8113  0.4719 -0.5726
18780TIP3    H277832   2.283   6.116  17.083 -0.5483 -0.2466  2.2463
18781TIP3   OH277833   1.462   3.531  15.114 -0.1909 -0.1460 -0.3402
18781TIP3    H177834   1.530   3.476  15.075 -1.4272 -1.2774 -0.9552
18781TIP3    H277835   1.402   3.550  15.042 -0.3494  1.1723  0.1035
18782TIP3   OH277836   3.800   1.559   0.100 -0.1981  0.0347  0.3623
18782TIP3    H177837   3.782   1.483   0.044 -1.2023 -1.0079  2.0161
18782TIP3    H277838   3.814   1.631   0.039  2.1070 -1.7133 -1.3183
18783TIP3   OH277839   2.766   3.658  11.712 -0.1413  0.2318  0.2519
18783TIP3    H177840   2.855   3.682  11.737 -0.1186 -0.2615  0.6577
18783TIP3    H277841   2.756   3.567  11.740 -0.8626  0.3657  0.4747
18784TIP3   OH277842   2.780   5.582   5.474  0.2312  0.0753  0.8207
18784TIP3    H177843   2.714   5.527   5.516  0.4696 -1.4972 -0.7249
18784TIP3    H277844   2.743   5.604   5.389  1.6803 -0.9325 -0.1251
18785TIP3   OH277845   0.516   1.962  12.994  0.1672  0.6985  0.2088
18785TIP3    H177846   0.434   1.997  12.958  0.9377  1.9072 -0.4582
18785TIP3    H277847   0.555   1.914  12.921  0.0278  0.0583  0.5486
18786TIP3   OH277848   5.013   2.551  12.036  0.6223  0.2123 -0.7507
18786TIP3    H177849   5.032   2.548  12.130 -1.8934  0.4510 -0.1554
18786TIP3    H277850   4.992   2.460  12.013  0.3443  0.3024 -0.8586
18787TIP3   OH277851   3.552   1.987   3.404  0.4752  0.4753  0.8182
18787TIP3    H177852   3.561   2.051   3.333 -1.9543  0.2675  0.2247
18787TIP3    H277853   3.592   1.907   3.369  1.1992  0.9358  0.5544
18788TIP3   OH277854   6.054   2.029   0.752 -0.2527 -0.3565  0.0526
18788TIP3    H177855   6.122   2.043   0.686 -1.9566 -1.0542 -1.9554
18788TIP3    H277856   5.994   2.103   0.740 -0.9712 -0.8901  0.3181
18789TIP3   OH277857   3.983   0.488   2.206  0.1285  0.3962 -0.0590
18789TIP3    H177858   4.018   0.470   2.293  1.1528 -0.0015 -0.5420
18789TIP3    H277859   3.997   0.407   2.157 -2.0134 -0.0114 -0.1220
18790TIP3   OH277860   2.843   0.146  11.283  0.0570 -0.3175  0.2050
18790TIP3    H177861   2.897   0.206  11.233  3.0401 -0.3701  3.0467
18790TIP3    H277862   2.890   0.063  11.281 -0.4988 -0.7090  1.8446
18791TIP3   OH277863   2.403   0.338  11.594 -0.5328 -0.0248 -0.0065
18791TIP3    H177864   2.410   0.420  11.642 -2.2091 -0.6054  1.3192
18791TIP3    H277865   2.317   0.303  11.617 -0.5753 -1.3270 -1.8939
18792TIP3   OH277866   2.315   6.138   1.404  0.7680  0.0838 -0.1825
18792TIP3    H177867   2.299   6.127   1.310  0.6148  0.8222 -0.2483
18792TIP3    H277868   2.352   6.226   1.411  1.1449 -0.1180  0.4082
18793TIP3   OH277869   0.970   5.562  12.306  0.0752 -0.6248  0.2979
18793TIP3    H177870   0.945   5.509  12.231 -2.8837  1.3804 -0.2992
18793TIP3    H277871   0.893   5.564  12.362  0.1241  2.5762  0.4756
18794TIP3   OH277872   1.394   5.851   1.360 -0.0421 -0.4665  0.1800
18794TIP3    H177873   1.402   5.879   1.451  1.5610  1.4095 -0.4670
18794TIP3    H277874   1.474   5.800   1.344  0.4479  0.5062 -0.5673
18795TIP3   OH277875   6.276   5.931  12.491 -0.1469 -0.0981 -0.5026
18795TIP3    H177876   6.301   5.946  12.582  0.0120 -0.5313 -0.4773
18795TIP3    H277877   6.324   5.998  12.442  0.9023 -0.7804 -0.4310
18796TIP3   OH277878   6.645   6.605  14.095  0.4037 -0.8328 -0.2919
18796TIP3    H177879   6.582   6.593  14.024 -1.4484 -2.8106  1.5348
18796TIP3    H277880   6.651   6.519  14.137  1.2300  0.2789  2.0468
18797TIP3   OH277881   0.007   2.213   4.775 -0.7937 -0.2107 -0.3536
18797TIP3    H177882  -0.064   2.231   4.713 -1.4241 -1.5519 -0.0600
18797TIP3    H277883   0.018   2.295   4.824 -0.4298  0.8022 -2.0532
18798TIP3   OH277884   1.306   6.254   2.337 -0.3192  0.2280  0.1320
18798TIP3    H177885   1.213   6.258   2.360 -0.8722 -0.6435 -1.8034
18798TIP3    H277886   1.347   6.318   2.396 -2.2272  1.1497  0.5564
18799TIP3   OH277887   1.516   0.876  12.741 -0.2662  0.1675  0.1732
18799TIP3    H177888   1.510   0.971  12.737  0.1003  0.1604 -0.9789
18799TIP3    H277889   1.427   0.845  12.726 -0.7275  0.3244  2.2541
18800TIP3   OH277890   4.640   5.195   0.803 -0.2671 -0.0064 -0.7431
18800TIP3    H177891   4.675   5.250   0.732 -2.2122 -0.0043 -1.7500
18800TIP3    H277892   4.711   5.134   0.823  1.1706  1.4863 -1.0548
18801TIP3   OH277893   2.229   1.100   5.648 -0.2126 -0.1444  0.5539
18801TIP3    H177894   2.174   1.177   5.634  0.7817  0.3827 -0.6861
18801TIP3    H277895   2.168   1.030   5.671 -1.1759  0.8966  1.2555
18802TIP3   OH277896   4.544   4.461   0.690  0.0934 -0.3790 -0.3380
18802TIP3    H177897   4.492   4.469   0.610  0.4420  3.0189 -0.3702
18802TIP3    H277898   4.486   4.416   0.752 -1.5260  0.0468 -1.4692
18803TIP3   OH277899   5.989   2.380   3.365  0.1999  0.5402  0.2948
18803TIP3    H177900   6.042   2.338   3.298  0.0256 -1.4236  1.3224
18803TIP3    H277901   5.965   2.465   3.327 -0.2404 -0.6514 -2.3097
18804TIP3   OH277902   1.755   4.018  13.000  0.1449  0.0305  0.3717
18804TIP3    H177903   1.740   4.077  12.926 -1.3219 -0.4468  0.2604
18804TIP3    H277904   1.755   3.931  12.961 -0.7029 -0.2281  0.9443
18805TIP3   OH277905   1.672   5.481  15.263 -0.5894  0.5113 -0.3462
18805TIP3    H177906   1.654   5.479  15.169 -3.3786  0.3725  0.1283
18805TIP3    H277907   1.586   5.477  15.304  0.5251  1.3330  2.2286
18806TIP3   OH277908   6.666   6.486   0.353  0.0271 -0.3030 -0.3825
18806TIP3    H177909   6.695   6.506   0.264 -0.7514  0.4528 -0.4876
18806TIP3    H277910   6.608   6.410   0.343  0.3082 -0.5106 -0.4508
18807TIP3   OH277911   2.459   0.259   1.992  0.4165  0.5238 -0.1867
18807TIP3    H177912   2.546   0.290   2.019  1.1143  2.3357 -3.8110
18807TIP3    H277913   2.467   0.163   1.992  1.5140  0.5562  1.9450
18808TIP3   OH277914   0.274   6.710  14.228  0.1420 -0.0375  0.0130
18808TIP3    H177915   0.326   6.644  14.183 -0.8621 -0.4692 -0.5427
18808TIP3    H277916   0.197   6.722  14.173 -0.3173  0.6412  0.7750
18809TIP3   OH277917   1.342   1.576   2.708 -0.1536  0.2346 -0.1051
18809TIP3    H177918   1.401   1.551   2.637 -1.0691 -0.1862 -0.7326
18809TIP3    H277919   1.282   1.638   2.667 -0.5888  0.1092  0.3443
18810TIP3   OH277920   1.990   5.027   2.147 -0.2670  0.5805 -0.3118
18810TIP3    H177921   1.961   5.073   2.227 -1.6065 -0.6713 -0.0234
18810TIP3    H277922   1.913   4.977   2.120  0.7032 -0.3461 -1.4429
18811TIP3   OH277923   3.128   2.336  12.922 -0.6662 -0.4304 -0.2736
18811TIP3    H177924   3.176   2.359  13.002 -1.3090  2.1451 -0.5435
18811TIP3    H277925   3.192   2.286  12.870  0.2166 -0.9343  1.2252
18812TIP3   OH277926   3.082   4.916  15.865 -0.4134 -0.2538 -0.5061
18812TIP3    H177927   3.151   4.928  15.800  0.2240 -2.4593 -0.3113
18812TIP3    H277928   3.016   4.862  15.820 -0.7617 -0.3819  0.1446
18813TIP3   OH277929   2.578   0.234  12.478  0.0627 -0.1276 -0.3936
18813TIP3    H177930   2.493   0.193  12.491 -0.4402  1.3197  1.1543
18813TIP3    H277931   2.559   0.316  12.431  0.7229 -0.2444 -0.8907
18814TIP3   OH277932   2.775   4.998   5.433  0.3024 -0.3571  0.5311
18814TIP3    H177933   2.804   5.084   5.402  0.3674 -0.0707  1.3683
18814TIP3    H277934   2.822   4.936   5.376 -0.1763  0.1515 -0.4491
18815TIP3   OH277935   3.260   3.656   4.302 -0.3454 -0.0563  0.3691
18815TIP3    H177936   3.169   3.686   4.306 -0.2440  0.3517 -0.2567
18815TIP3    H277937   3.310   3.735   4.282 -0.3780 -0.9592 -4.4913
18816TIP3   OH277938   5.072   1.601   1.935 -0.0779 -0.2336 -0.5391
18816TIP3    H177939   5.133   1.647   1.991 -1.7427 -0.1633  1.3126
18816TIP3    H277940   4.987   1.640   1.954 -1.0049 -1.6311 -1.5640
18817TIP3   OH277941   5.511   2.957  14.763 -0.3261  0.4168 -0.0272
18817TIP3    H177942   5.519   2.989  14.852  0.1066  0.3871 -0.0553
18817TIP3    H277943   5.467   2.872  14.772 -0.3495  0.4469  0.1474
18818TIP3   OH277944   4.528   5.975   5.842  0.3890 -0.2382 -0.9769
18818TIP3    H177945   4.521   5.895   5.790 -0.0388  0.7495 -2.4810
18818TIP3    H277946   4.455   5.970   5.903 -0.1847 -0.5581 -1.6815
18819TIP3   OH277947   1.398   2.137   4.432  0.0980  0.4428 -0.5249
18819TIP3    H177948   1.336   2.170   4.498 -0.5510 -1.1895 -0.2690
18819TIP3    H277949   1.464   2.090   4.482 -0.2078 -0.5141 -0.9938
18820TIP3   OH277950   5.531   1.602   1.065 -0.6134 -0.3129  0.1136
18820TIP3    H177951   5.518   1.631   0.974 -0.9810 -1.4600 -0.2179
18820TIP3    H277952   5.491   1.515   1.068  1.3184 -1.2355  0.7914
18821TIP3   OH277953   6.661   5.506  13.614 -0.0349 -0.2181 -0.4873
18821TIP3    H177954   6.680   5.467  13.699 -0.3501  1.8240  0.6011
18821TIP3    H277955   6.746   5.538  13.583 -0.4565  3.2768  1.4110
18822TIP3   OH277956   5.253   1.059  13.365  0.1494  0.1507 -0.7083
18822TIP3    H177957   5.214   1.013  13.291 -0.8757 -0.7447  0.3538
18822TIP3    H277958   5.347   1.049  13.353 -0.0342 -2.7648 -0.2080
18823TIP3   OH277959   5.349   5.864  15.710  0.0595 -0.3437 -0.4534
18823TIP3    H177960   5.381   5.779  15.740 -0.9011 -0.2454  0.9605
18823TIP3    H277961   5.408   5.928  15.750  0.1481 -0.2958 -0.6569
18824TIP3   OH277962   1.465   5.243   4.189  0.1818  0.1046  0.5887
18824TIP3    H177963   1.482   5.157   4.227 -1.6066 -1.2946 -1.5241
18824TIP3    H277964   1.546   5.291   4.200  1.5258 -2.1492  1.1012
18825TIP3   OH277965   2.458   4.467   0.011  0.4115 -0.3311 -0.9689
18825TIP3    H177966   2.538   4.428   0.046 -0.0491 -1.2493 -0.8997
18825TIP3    H277967   2.480   4.491  -0.079  0.9876  0.1420 -0.7126
18826TIP3   OH277968   6.423   4.140   4.672  0.5431 -0.1689  0.0319
18826TIP3    H177969   6.402   4.105   4.585  2.0682 -3.6339  0.8916
18826TIP3    H277970   6.360   4.099   4.731 -0.5232  2.2032  0.6597
18827TIP3   OH277971   2.193   2.723  13.403  0.3106 -0.1810  0.4018
18827TIP3    H177972   2.123   2.662  13.430  0.7562 -0.4693  0.9316
18827TIP3    H277973   2.146   2.796  13.362 -0.1379 -2.1430 -2.9816
18828TIP3   OH277974   5.443   5.284   0.844 -0.4594  0.0274 -0.3575
18828TIP3    H177975   5.527   5.297   0.801  0.2721 -1.0942  0.6723
18828TIP3    H277976   5.446   5.340   0.922 -0.4982 -0.2932 -0.1202
18829TIP3   OH277977   1.156   1.532  16.250  0.4996  0.2473  0.3780
18829TIP3    H177978   1.225   1.484  16.205  0.5652 -3.3762  3.8625
18829TIP3    H277979   1.194   1.558  16.334 -1.4703  0.9051  1.1306
18830TIP3   OH277980   3.050   4.113  12.616 -0.3126  0.3440 -0.1666
18830TIP3    H177981   3.045   4.207  12.635 -0.0309  0.3567 -0.1486
18830TIP3    H277982   2.962   4.090  12.585 -0.4032  0.5977 -0.1028
18831TIP3   OH277983   3.668   0.407  13.203  0.5810 -0.0102  0.1950
18831TIP3    H177984   3.682   0.445  13.117  2.0801 -1.8919 -0.4776
18831TIP3    H277985   3.623   0.324  13.186  0.0075  0.0477  1.3151
18832TIP3   OH277986   1.992   2.879   0.266  0.0554  0.1335 -0.2671
18832TIP3    H177987   1.956   2.791   0.272  2.1784 -0.6919  2.0741
18832TIP3    H277988   2.084   2.866   0.243  0.5796  1.6588  0.7823
18833TIP3   OH277989   3.413   2.901  15.206 -0.2349  0.0202  0.5156
18833TIP3    H177990   3.490   2.853  15.178 -1.4938 -0.8667 -1.6647
18833TIP3    H277991   3.340   2.841  15.190 -1.4752  1.1385  1.6997
18834TIP3   OH277992   1.870   1.292  11.742 -0.4228 -0.3034  0.2633
18834TIP3    H177993   1.826   1.264  11.822 -0.7024  0.1497  0.2682
18834TIP3    H277994   1.801   1.299  11.677 -0.1217 -1.1971 -0.1699
18835TIP3   OH277995   6.221   3.961   3.410  0.1063  0.3413 -0.7456
18835TIP3    H177996   6.314   3.967   3.389  0.0251  0.0963 -1.2006
18835TIP3    H277997   6.201   4.041   3.459  0.5589  0.3814 -0.6238
18836TIP3   OH277998   3.408   1.217   6.144  0.0354 -0.1119 -0.7925
18836TIP3    H177999   3.395   1.123   6.137  1.2380 -0.7953  3.2558
18836TIP3    H278000   3.492   1.234   6.101  0.2549 -1.0578 -0.7425
18837TIP3   OH278001   4.211   0.399  16.549  0.6611  0.0958  0.3278
18837TIP3    H178002   4.249   0.320  16.589 -2.6523 -1.0423  1.5123
18837TIP3    H278003   4.186   0.453  16.624  1.0946  1.4338 -0.4543
18838TIP3   OH278004   3.229   0.362   5.433 -0.3008 -1.0979 -0.1708
18838TIP3    H178005   3.150   0.323   5.396 -1.7705  1.5434 -0.0415
18838TIP3    H278006   3.228   0.337   5.525 -0.8343 -1.2707 -0.2194
18839TIP3   OH278007   6.657   5.773   4.663  0.3540 -0.3563 -0.3083
18839TIP3    H178008   6.730   5.828   4.634 -0.4784  1.1141  0.2774
18839TIP3    H278009   6.650   5.705   4.595  0.1032  1.4754 -2.2429
18840TIP3   OH278010   6.613   4.683  16.854  0.2297  0.0487 -0.2926
18840TIP3    H178011   6.688   4.739  16.835  1.1055 -0.5400  1.2482
18840TIP3    H278012   6.619   4.613  16.789  1.1351 -0.0845 -0.0856
18841TIP3   OH278013   4.954   1.755  12.047  0.0988 -0.0302  0.0706
18841TIP3    H178014   5.022   1.799  12.098  0.9072 -1.4971  0.2997
18841TIP3    H278015   4.877   1.755  12.103  0.5115 -0.1746  0.6428
18842TIP3   OH278016   3.987   6.406   1.356 -0.1691 -0.1296 -0.1845
18842TIP3    H178017   3.992   6.351   1.278 -0.1523 -0.5706  0.1205
18842TIP3    H278018   4.076   6.403   1.393 -0.2310 -0.1070 -0.0311
18843TIP3   OH278019   6.040   2.945  10.730 -0.3811 -0.2922  0.5262
18843TIP3    H178020   6.049   2.873  10.668 -0.9879 -0.0118  0.1063
18843TIP3    H278021   6.007   2.904  10.810  2.7252 -1.0846  1.5615
18844TIP3   OH278022   5.956   0.959  11.323 -0.1776 -0.2426  0.1781
18844TIP3    H178023   5.861   0.962  11.317 -0.1958  1.1244  0.8440
18844TIP3    H278024   5.979   0.873  11.288 -1.5185  0.0023 -1.4447
18845TIP3   OH278025   4.291   0.241  16.345 -0.1026  0.0999  0.2735
18845TIP3    H178026   4.262   0.309  16.406  1.3441  0.6036  0.4415
18845TIP3    H278027   4.282   0.159  16.393 -0.4616  0.3316  0.6025
18846TIP3   OH278028   2.807   0.209  11.558 -0.7922  0.2271  0.2361
18846TIP3    H178029   2.729   0.183  11.607 -1.5915  0.9661 -0.6191
18846TIP3    H278030   2.788   0.185  11.468  0.8098 -1.4486  0.2841
18847TIP3   OH278031   1.519   4.078   4.834  0.3266 -0.1723 -0.1103
18847TIP3    H178032   1.506   4.155   4.889 -0.9287  0.1617 -0.8401
18847TIP3    H278033   1.588   4.103   4.772  1.3890 -0.3795  0.9589
18848TIP3   OH278034   5.137   3.548  15.517 -0.1103 -0.8698  0.0522
18848TIP3    H178035   5.046   3.544  15.489 -0.1099 -0.5289  0.0028
18848TIP3    H278036   5.136   3.523  15.609 -0.2612 -0.8014  0.0685
18849TIP3   OH278037   1.807   3.482   2.925  0.0415 -0.2186 -0.0623
18849TIP3    H178038   1.777   3.570   2.945  0.1759  0.3298 -2.0770
18849TIP3    H278039   1.728   3.433   2.903 -0.1942 -1.0238  2.3189
18850TIP3   OH278040   5.390   4.251   1.407  0.6301  0.0994  0.3696
18850TIP3    H178041   5.327   4.203   1.460  1.3954  0.5004  1.7102
18850TIP3    H278042   5.454   4.284   1.471 -0.6000  4.1616 -0.1613
18851TIP3   OH278043   2.628   5.565   1.440  0.0790 -0.0007  0.6616
18851TIP3    H178044   2.619   5.605   1.526  0.0787 -0.3759  0.8405
18851TIP3    H278045   2.613   5.636   1.378  1.1973  0.5306  0.9717
18852TIP3   OH278046   3.949   0.802  16.107  0.0350 -0.5413  0.0270
18852TIP3    H178047   3.910   0.776  16.024 -0.4870 -1.8477  0.6508
18852TIP3    H278048   4.009   0.873  16.085 -3.0422  1.9678 -0.9277
18853TIP3   OH278049   6.437   6.539  14.342 -0.4658 -0.1522  0.0247
18853TIP3    H178050   6.522   6.497  14.338  0.1013  1.0475 -2.0500
18853TIP3    H278051   6.413   6.536  14.434  2.0490 -0.0546  0.7476
18854TIP3   OH278052   4.283   3.618  13.830 -0.0683 -0.1439  0.1059
18854TIP3    H178053   4.262   3.531  13.865  0.0131 -0.1507  0.1386
18854TIP3    H278054   4.372   3.609  13.796 -0.2852 -0.2387 -0.4418
18855TIP3   OH278055   5.882   4.137   2.790  0.3711  0.2278  0.1543
18855TIP3    H178056   5.913   4.206   2.849  2.3674 -0.4363 -0.0258
18855TIP3    H278057   5.844   4.071   2.848  0.5503  0.4577  0.5349
18856TIP3   OH278058   5.249   4.774  12.344 -0.3036  0.1951  0.1126
18856TIP3    H178059   5.156   4.757  12.364 -0.1131 -1.0010  0.0781
18856TIP3    H278060   5.263   4.732  12.259  0.2703  0.3907  0.1063
18857TIP3   OH278061   5.895   2.062  12.479  0.7261  1.2980  0.2975
18857TIP3    H178062   5.801   2.047  12.478  0.7301  1.2779 -0.8129
18857TIP3    H278063   5.919   2.058  12.572 -0.3146  1.0218  0.5655
18858TIP3   OH278064   2.749   5.566   4.374 -0.3391  0.2023 -0.2406
18858TIP3    H178065   2.769   5.615   4.295 -0.7411 -0.0689 -0.5162
18858TIP3    H278066   2.665   5.523   4.355 -1.4416  1.6716  1.0373
18859TIP3   OH278067   0.080   0.915  14.207  0.0686  0.3999  0.3232
18859TIP3    H178068   0.150   0.883  14.149  0.0421  2.4816 -0.9835
18859TIP3    H278069   0.111   1.001  14.235 -0.4417 -0.0916  2.6007
18860TIP3   OH278070   2.275   5.097  15.254 -0.1376 -0.4156  0.2827
18860TIP3    H178071   2.232   5.176  15.287  0.3002 -0.2259  0.4054
18860TIP3    H278072   2.355   5.091  15.306  0.0983 -0.6322 -0.1120
18861TIP3   OH278073   1.492   2.659  13.423  0.1601 -0.2386 -0.2914
18861TIP3    H178074   1.452   2.691  13.504 -0.5030  0.0152 -0.7167
18861TIP3    H278075   1.456   2.571  13.411  0.3966 -0.3472 -0.2231
18862TIP3   OH278076   2.555   2.661  10.733  0.2268 -0.3612 -0.4875
18862TIP3    H178077   2.589   2.748  10.753  1.2420 -0.7677 -0.3669
18862TIP3    H278078   2.535   2.622  10.818 -1.8491  0.3535 -0.6040
18863TIP3   OH278079   3.513   1.902   3.089  0.6893  0.3177 -1.0828
18863TIP3    H178080   3.564   1.971   3.132  0.1886 -0.2775  0.5615
18863TIP3    H278081   3.477   1.944   3.011 -0.3874  2.2601  0.3390
18864TIP3   OH278082   3.743   5.503   4.674  0.1569 -0.1767  0.1501
18864TIP3    H178083   3.776   5.593   4.677  2.7588 -1.0613  0.3028
18864TIP3    H278084   3.771   5.464   4.756  0.2316 -1.4901 -0.4665
18865TIP3   OH278085   2.484   0.988   3.879  0.9441  0.0385 -0.2157
18865TIP3    H178086   2.467   0.963   3.789 -2.7062  0.4882  0.1746
18865TIP3    H278087   2.530   0.913   3.917  0.0807 -1.3630 -1.7930
18866TIP3   OH278088   6.229   2.447   1.741 -0.2469  0.5230  0.0993
18866TIP3    H178089   6.155   2.412   1.791  0.6279  0.7593  1.6102
18866TIP3    H278090   6.272   2.370   1.704 -0.0762  0.2287  0.9041
18867TIP3   OH278091   3.904   1.406  16.530  0.0987 -0.2661 -0.0416
18867TIP3    H178092   3.853   1.382  16.453 -0.9214 -0.7236  0.7480
18867TIP3    H278093   3.890   1.500  16.541  0.8221 -0.0645 -0.8143
18868TIP3   OH278094   6.574   6.730  15.389  0.1818  0.9148 -0.2028
18868TIP3    H178095   6.525   6.806  15.360 -0.1360  1.3985  1.5151
18868TIP3    H278096   6.580   6.739  15.484  0.4360 -1.0279  0.0178
18869TIP3   OH278097   6.847   4.870   5.509 -0.1349  0.7215 -0.0882
18869TIP3    H178098   6.794   4.949   5.520 -2.8033 -0.9837  0.2842
18869TIP3    H278099   6.812   4.829   5.429  0.9682 -0.2533 -0.0958
18870TIP3   OH278100   1.191   4.570   2.367  0.3707 -0.1539 -0.0358
18870TIP3    H178101   1.199   4.509   2.293 -0.5643 -1.8016  1.1601
18870TIP3    H278102   1.110   4.618   2.350 -0.9832 -1.9927  0.8743
18871TIP3   OH278103   0.926   4.997  15.394 -0.3011  0.0932  0.3022
18871TIP3    H178104   1.010   4.992  15.348  0.4254 -1.0823  1.6916
18871TIP3    H278105   0.876   5.063  15.346  2.5207  3.1149  1.1721
18872TIP3   OH278106   1.708   0.345   1.350  0.0204 -0.8212  0.3378
18872TIP3    H178107   1.757   0.410   1.299 -0.8062  0.6235  1.3292
18872TIP3    H278108   1.725   0.262   1.305  1.7580 -0.0619 -0.4998
18873TIP3   OH278109   2.713   5.282   0.899  0.6487  1.1952 -0.5206
18873TIP3    H178110   2.782   5.342   0.871  1.0162  0.9422 -0.1702
18873TIP3    H278111   2.735   5.199   0.857 -0.9119  1.7345 -2.5972
18874TIP3   OH278112   3.328   1.470  13.385  0.4941 -0.5139  0.0064
18874TIP3    H178113   3.407   1.416  13.393  0.6865 -0.3122 -0.4825
18874TIP3    H278114   3.330   1.527  13.462 -0.1253 -1.7248  0.9547
18875TIP3   OH278115   4.619   4.824   4.405  0.0972 -0.2879 -0.2428
18875TIP3    H178116   4.627   4.743   4.355 -0.6716 -0.7736  0.3917
18875TIP3    H278117   4.641   4.799   4.495  1.1078  0.4897 -0.2582
18876TIP3   OH278118   4.359   3.246  15.068 -0.4136  0.1674  0.1367
18876TIP3    H178119   4.288   3.294  15.110 -0.6999  0.9222 -1.1299
18876TIP3    H278120   4.317   3.169  15.030 -0.1971 -0.3937  1.0224
18877TIP3   OH278121   4.692   6.101  10.830 -0.1914 -0.0414 -0.0226
18877TIP3    H178122   4.778   6.080  10.792  0.5386  1.2466  0.8360
18877TIP3    H278123   4.678   6.034  10.897  0.3386 -0.0152  0.1173
18878TIP3   OH278124   5.709   4.299  12.429 -0.7615 -0.3613  0.4042
18878TIP3    H178125   5.622   4.286  12.393 -0.6574 -0.5269  0.2046
18878TIP3    H278126   5.742   4.378  12.386 -1.1599  0.2227  1.1555
18879TIP3   OH278127   4.321   1.218  10.318  0.3594  0.7317  0.5804
18879TIP3    H178128   4.302   1.137  10.272 -1.4761  1.7961 -0.6658
18879TIP3    H278129   4.405   1.247  10.284  0.8096 -0.3852  0.7047
18880TIP3   OH278130   5.661   4.168   4.669  0.0169 -0.7292  0.6221
18880TIP3    H178131   5.703   4.085   4.649  1.7284 -0.3125  2.2034
18880TIP3    H278132   5.628   4.158   4.758 -0.1095  0.1457  0.6875
18881TIP3   OH278133   3.141   5.656  12.454  0.0258  0.2471  0.3796
18881TIP3    H178134   3.115   5.698  12.536 -0.1694 -1.7609  1.3890
18881TIP3    H278135   3.062   5.615  12.421 -0.0547  1.5787 -1.2118
18882TIP3   OH278136   6.464   3.860   6.099 -0.3406 -0.2149  0.7559
18882TIP3    H178137   6.517   3.934   6.129 -0.3420 -0.0295  0.3031
18882TIP3    H278138   6.374   3.889   6.113 -0.3858  0.4918 -0.8524
18883TIP3   OH278139   2.834   6.108   6.512 -0.2121 -0.0117 -0.3765
18883TIP3    H178140   2.887   6.029   6.503  0.3078  0.3107 -0.2037
18883TIP3    H278141   2.744   6.076   6.517  0.0544 -0.6715  0.6318
18884TIP3   OH278142   4.509   1.891   4.504  0.0206 -0.4068  0.2692
18884TIP3    H178143   4.586   1.845   4.471  0.5819  0.2808  0.5976
18884TIP3    H278144   4.504   1.866   4.596  2.0431  2.3526  1.2693
18885TIP3   OH278145   1.554   4.528   2.809  0.5954  0.4770 -0.7092
18885TIP3    H178146   1.578   4.533   2.902  0.7245 -0.2646 -0.7000
18885TIP3    H278147   1.550   4.434   2.790 -1.3306  0.5737 -0.9737
18886TIP3   OH278148   3.117   2.034   1.156 -0.0632  0.0390  0.5442
18886TIP3    H178149   3.022   2.035   1.146 -0.0135 -0.5040  0.0163
18886TIP3    H278150   3.147   1.960   1.104  0.8297  1.3408 -0.8711
18887TIP3   OH278151   1.481   1.333  11.475 -0.2077 -0.4420 -0.6410
18887TIP3    H178152   1.449   1.243  11.481  1.0414 -0.8769 -0.3326
18887TIP3    H278153   1.541   1.343  11.548  0.7866  0.1683 -1.5119
18888TIP3   OH278154   0.657   5.083   2.781  0.3101  0.0590  0.3288
18888TIP3    H178155   0.723   5.099   2.713 -0.1898  0.0672 -0.1619
18888TIP3    H278156   0.661   4.989   2.797  0.5651  0.0868  0.4326
18889TIP3   OH278157   0.603   0.891   1.373  0.1059 -0.1785  0.9985
18889TIP3    H178158   0.635   0.981   1.374 -0.7247  0.2359 -1.9504
18889TIP3    H278159   0.508   0.899   1.381  0.0709 -0.8663  1.3695
18890TIP3   OH278160   2.242   4.846   2.977 -0.1181  0.1285  0.4299
18890TIP3    H178161   2.310   4.779   2.975  0.5892  0.8353 -0.8119
18890TIP3    H278162   2.274   4.911   3.038 -0.1597 -0.0149  0.6050
18891TIP3   OH278163   1.624   3.406  13.810  0.0302 -0.2919  0.0467
18891TIP3    H178164   1.660   3.321  13.785  0.8970 -0.2648  1.1239
18891TIP3    H278165   1.688   3.470  13.778  0.6750 -0.2085  1.4253
18892TIP3   OH278166   4.475   1.531   0.812  0.2163 -0.4093 -0.1578
18892TIP3    H178167   4.430   1.612   0.790  0.8977 -0.7845 -3.3891
18892TIP3    H278168   4.498   1.541   0.905 -1.0595  2.3854 -0.0402
18893TIP3   OH278169   2.036   0.707   0.659 -0.4545  0.2615 -0.0695
18893TIP3    H178170   2.045   0.612   0.646 -1.1021 -0.6984  4.7683
18893TIP3    H278171   2.108   0.744   0.608 -1.3542 -2.4669 -3.8354
18894TIP3   OH278172   4.273   5.300  11.735  0.0954  0.3428 -0.3247
18894TIP3    H178173   4.183   5.265  11.734  0.2781 -0.2678 -2.9418
18894TIP3    H278174   4.263   5.393  11.713  0.0134  0.6404  0.9343
18895TIP3   OH278175   1.615   6.798   4.954 -0.0414  0.2998  0.5925
18895TIP3    H178176   1.581   6.886   4.969 -1.3650 -0.1401  0.3354
18895TIP3    H278177   1.676   6.782   5.026  0.4277  1.5164  0.4836
18896TIP3   OH278178   0.027   2.459   0.885 -0.2893 -0.3617  0.1502
18896TIP3    H178179  -0.050   2.513   0.897  1.5099  1.8038  3.2605
18896TIP3    H278180   0.003   2.373   0.921 -1.8125 -0.3733 -0.8298
18897TIP3   OH278181   6.278   2.227  12.157 -0.0079 -0.2859 -0.3634
18897TIP3    H178182   6.221   2.197  12.086 -0.7325 -0.8695  0.4345
18897TIP3    H278183   6.221   2.279  12.214  0.4367 -0.2321  0.0460
18898TIP3   OH278184   5.730   1.379  11.512  0.1533  0.1053 -1.0033
18898TIP3    H178185   5.803   1.432  11.543 -0.7628  0.0726  1.5110
18898TIP3    H278186   5.652   1.431  11.533 -0.6120 -0.4485 -2.3355
18899TIP3   OH278187   6.805   2.731  12.324  0.1295 -0.4832  0.3610
18899TIP3    H178188   6.800   2.814  12.372 -1.0742 -0.7848  0.8165
18899TIP3    H278189   6.812   2.756  12.232 -0.5134  0.1406  0.4710
18900TIP3   OH278190   4.496   1.668   0.523  0.2680 -0.0503  0.0115
18900TIP3    H178191   4.583   1.633   0.543 -0.0152 -0.3101  0.8597
18900TIP3    H278192   4.457   1.603   0.464  1.1514  0.7581 -1.4952
18901TIP3   OH278193   3.278   0.130   0.478 -0.0430 -0.1111  0.3199
18901TIP3    H178194   3.306   0.217   0.506 -0.2118 -0.1143  0.5021
18901TIP3    H278195   3.337   0.107   0.406 -1.0510  0.8387 -0.8461
18902TIP3   OH278196   6.797   4.671   2.644 -0.5274 -0.1692 -0.1053
18902TIP3    H178197   6.803   4.603   2.578 -1.1905 -1.0102  0.6661
18902TIP3    H278198   6.739   4.737   2.606  0.5543  0.2488 -1.0758
18903TIP3   OH278199   3.224   6.272   4.997 -0.1119 -0.3512 -0.0496
18903TIP3    H178200   3.319   6.269   5.004  0.0501  3.2502  2.3929
18903TIP3    H278201   3.206   6.341   4.934 -0.9902  0.3449  0.9127
18904TIP3   OH278202   4.754   6.304   5.494 -0.2007 -0.1966  0.3423
18904TIP3    H178203   4.823   6.285   5.431 -1.2665  0.2417 -1.0262
18904TIP3    H278204   4.746   6.399   5.493  0.0835 -0.1498  1.5212
18905TIP3   OH278205   4.583   5.780   4.411 -0.0381  0.1763 -0.6621
18905TIP3    H178206   4.667   5.770   4.455  0.2462  0.6150 -1.0947
18905TIP3    H278207   4.596   5.854   4.352 -1.1188  1.1181  0.2311
18906TIP3   OH278208   0.898   4.664   3.424 -0.6802 -0.0876  0.2293
18906TIP3    H178209   0.858   4.580   3.448  1.4667 -1.7166 -1.4998
18906TIP3    H278210   0.855   4.688   3.342  0.0763 -0.5454 -0.3114
18907TIP3   OH278211   0.279   4.667   4.850 -0.0405  0.0637  0.0318
18907TIP3    H178212   0.291   4.620   4.768 -1.2745  0.8546 -0.6232
18907TIP3    H278213   0.272   4.598   4.916  0.7445 -0.5835 -0.5509
18908TIP3   OH278214   3.702   3.515   4.142 -0.3301  0.0349  0.5936
18908TIP3    H178215   3.779   3.531   4.196  0.3125  1.3481 -0.6469
18908TIP3    H278216   3.658   3.600   4.136 -0.6059 -0.1657 -0.5687
18909TIP3   OH278217   5.444   2.308   0.346 -0.3561  0.1610  0.4294
18909TIP3    H178218   5.393   2.366   0.290  1.2739  1.1489 -0.0858
18909TIP3    H278219   5.466   2.234   0.289  2.0692  1.5790 -0.6412
18910TIP3   OH278220   3.090   5.311  15.532 -0.0314  0.2051 -0.3413
18910TIP3    H178221   3.034   5.331  15.607  1.0947 -0.3624  0.6694
18910TIP3    H278222   3.035   5.257  15.475 -0.7866  0.3677  0.2169
18911TIP3   OH278223   4.048   1.503   5.238  0.1272 -0.2292  0.6066
18911TIP3    H178224   4.033   1.504   5.333 -1.4478 -0.2124  0.3794
18911TIP3    H278225   3.961   1.515   5.200  0.9184  1.4285 -0.8387
18912TIP3   OH278226   0.089   2.222  11.516 -0.6094 -0.1694 -0.1416
18912TIP3    H178227  -0.007   2.214  11.512 -0.7997  1.8402 -0.4110
18912TIP3    H278228   0.118   2.138  11.552 -2.6639  0.0298  2.2450
18913TIP3   OH278229   6.209   0.399   1.588  0.1747  1.2691  0.1211
18913TIP3    H178230   6.193   0.347   1.509  4.5360 -1.1757  0.5221
18913TIP3    H278231   6.246   0.481   1.555 -2.0716  2.1538 -0.3740
18914TIP3   OH278232   4.903   2.892  10.408  0.6404  0.5539  0.7383
18914TIP3    H178233   4.916   2.902  10.503  1.6151  0.7517  0.5880
18914TIP3    H278234   4.963   2.822  10.383 -0.9626 -0.8165  0.5611
18915TIP3   OH278235   1.693   0.553  14.586  0.1244  0.3743 -0.0463
18915TIP3    H178236   1.686   0.458  14.579 -0.1271  0.3384  0.6810
18915TIP3    H278237   1.773   0.575  14.539  0.1702 -0.1932 -0.2324
18916TIP3   OH278238   5.476   2.011   3.615  0.0707  0.1303 -0.1405
18916TIP3    H178239   5.397   2.063   3.607 -0.6504 -0.5558  1.8936
18916TIP3    H278240   5.446   1.920   3.606  0.6388 -0.1238  0.4073
18917TIP3   OH278241   4.271   5.329  16.766  0.4755  0.0849 -0.0273
18917TIP3    H178242   4.187   5.299  16.733  0.9122 -1.0651 -0.1095
18917TIP3    H278243   4.319   5.250  16.790 -0.2968  0.7555  4.6766
18918TIP3   OH278244   5.335   1.378   0.895 -0.0393 -0.2023 -0.1441
18918TIP3    H178245   5.294   1.464   0.893  1.0290  0.3661  0.8002
18918TIP3    H278246   5.264   1.318   0.917 -0.5973  0.5696  0.2103
18919TIP3   OH278247   2.045   2.280  13.722  0.0525 -0.1169 -0.5572
18919TIP3    H178248   1.994   2.201  13.737 -0.5926  0.4521  0.3438
18919TIP3    H278249   2.100   2.288  13.799  0.1658  0.2783 -0.6770
18920TIP3   OH278250   2.544   3.071   4.680 -0.9125  0.1175 -0.3959
18920TIP3    H178251   2.623   3.041   4.724 -1.3358  1.4123  1.3739
18920TIP3    H278252   2.576   3.116   4.602  0.1034  0.5490  0.2480
18921TIP3   OH278253   1.560   0.198   2.599  0.1309 -0.1696 -0.7459
18921TIP3    H178254   1.649   0.201   2.635  0.4932 -1.9950 -1.3517
18921TIP3    H278255   1.508   0.157   2.668 -0.2848  0.9518 -0.3682
18922TIP3   OH278256   2.948   2.041   3.705  0.3541  0.0006 -0.2313
18922TIP3    H178257   2.863   2.005   3.732 -0.1888  1.0406 -0.5044
18922TIP3    H278258   2.973   2.099   3.777  0.2883  0.5555 -0.6484
18923TIP3   OH278259   1.803   5.651  16.642 -0.3456 -0.2147 -0.1491
18923TIP3    H178260   1.871   5.627  16.579 -0.2578 -1.3225  0.3491
18923TIP3    H278261   1.783   5.742  16.622 -0.4272 -0.5877 -1.8877
18924TIP3   OH278262   6.178   3.875   2.073 -0.0494  0.3128 -0.0064
18924TIP3    H178263   6.227   3.823   2.136  1.4054  2.2391  0.5667
18924TIP3    H278264   6.107   3.914   2.124 -0.1104  0.2408 -0.0361
18925TIP3   OH278265   0.199   3.735  10.371 -0.8623 -0.0433 -0.3741
18925TIP3    H178266   0.269   3.731  10.436 -0.6543  1.1890 -0.4938
18925TIP3    H278267   0.190   3.645  10.339  0.4055 -0.2888 -0.0830
18926TIP3   OH278268   0.475   6.344   6.300 -0.1454 -0.3403 -0.5141
18926TIP3    H178269   0.489   6.438   6.315 -0.7581 -0.5552  1.6436
18926TIP3    H278270   0.527   6.301   6.368 -1.6611 -1.4868 -0.0354
18927TIP3   OH278271   1.128   3.385   4.729  0.2791 -0.1932  0.0552
18927TIP3    H178272   1.180   3.401   4.651  1.4827 -1.4767  0.5464
18927TIP3    H278273   1.175   3.430   4.799 -0.0883 -0.1322  0.2674
18928TIP3   OH278274   3.554   6.830   3.261  0.0109 -0.1412 -0.1278
18928TIP3    H178275   3.562   6.924   3.245  0.7708 -0.0542  0.7062
18928TIP3    H278276   3.596   6.816   3.346  1.0223 -1.4218 -0.8003
18929TIP3   OH278277   4.091   2.060   3.016  0.3857 -0.5588  0.3981
18929TIP3    H178278   4.140   2.134   3.051 -0.3598  0.9751 -1.5964
18929TIP3    H278279   4.046   2.023   3.092  1.8326  0.1631  1.6703
18930TIP3   OH278280   3.435   4.766  10.427  0.1094  0.4411 -0.5313
18930TIP3    H178281   3.497   4.774  10.499  1.2830  0.1785 -1.4783
18930TIP3    H278282   3.470   4.822  10.358  1.2544 -2.2808 -2.3543
18931TIP3   OH278283   4.927   3.080   2.113  0.7561 -0.1633 -0.2536
18931TIP3    H178284   4.851   3.127   2.147  0.1148  0.0340 -1.8786
18931TIP3    H278285   4.974   3.051   2.191 -0.1302  1.0797  0.7858
18932TIP3   OH278286   5.661   4.675   5.139  0.0434 -0.0161  0.6184
18932TIP3    H178287   5.632   4.595   5.095  0.4306  0.2074 -0.0431
18932TIP3    H278288   5.585   4.733   5.135  0.4647  0.4648 -0.8713
18933TIP3   OH278289   0.290   3.073   3.664  0.5289  0.4969 -0.2308
18933TIP3    H178290   0.212   3.126   3.682  0.6590  0.3140  0.9036
18933TIP3    H278291   0.258   2.984   3.654  0.7043  0.2035  1.5120
18934TIP3   OH278292   1.711   5.499  12.882 -0.1952  0.3918  0.3175
18934TIP3    H178293   1.630   5.549  12.896 -1.0647  0.1906 -3.0405
18934TIP3    H278294   1.746   5.533  12.800  1.9355 -1.1001  0.5228
18935TIP3   OH278295   0.449   2.558  11.418  0.0154  0.3915 -0.1700
18935TIP3    H178296   0.446   2.580  11.511  0.5426 -2.0229  0.4607
18935TIP3    H278297   0.542   2.546  11.399 -0.1108  0.5964 -0.9526
18936TIP3   OH278298   3.335   1.504  11.122  0.7523  0.6530 -0.0972
18936TIP3    H178299   3.416   1.543  11.153 -0.3974  2.4896  0.7761
18936TIP3    H278300   3.288   1.575  11.079 -0.9412 -0.0180  0.5363
18937TIP3   OH278301   3.651   6.214   5.453 -0.2299 -0.4205  0.2080
18937TIP3    H178302   3.587   6.249   5.391 -0.4486 -0.2761  0.5133
18937TIP3    H278303   3.599   6.184   5.527  0.1201  0.5641  0.8693
18938TIP3   OH278304   0.759   6.491  14.940  0.5041 -0.0328  0.0645
18938TIP3    H178305   0.786   6.403  14.967  0.7088  0.2360  0.7665
18938TIP3    H278306   0.701   6.477  14.865 -0.6853 -0.8603  1.0999
18939TIP3   OH278307   2.275   2.899   1.053  0.0294  0.2212 -0.1483
18939TIP3    H178308   2.362   2.881   1.017 -0.2669 -0.2021 -0.6834
18939TIP3    H278309   2.227   2.940   0.980  0.0282  1.2222  0.3959
18940TIP3   OH278310   5.242   0.931   3.580  0.2649 -0.2896  0.6029
18940TIP3    H178311   5.274   0.861   3.637  1.0713  0.4795  1.1172
18940TIP3    H278312   5.149   0.937   3.600  0.4899 -0.1905  1.6792
18941TIP3   OH278313   0.939   0.097   2.456  0.3939  0.1309 -0.1679
18941TIP3    H178314   0.975   0.063   2.538  0.3771  3.3349  1.3046
18941TIP3    H278315   1.006   0.155   2.422  0.9992 -2.1922 -3.3168
18942TIP3   OH278316   5.340   4.876   2.680  0.3715  0.1622 -0.5374
18942TIP3    H178317   5.252   4.914   2.683  0.3682  0.2163 -1.1757
18942TIP3    H278318   5.399   4.952   2.677  0.3353  0.1704 -2.6788
18943TIP3   OH278319   5.483   2.724   2.865  0.4623  0.2798  0.1032
18943TIP3    H178320   5.482   2.820   2.870  0.8373  0.2669  0.5896
18943TIP3    H278321   5.422   2.696   2.934 -0.9363  0.1835 -1.1428
18944TIP3   OH278322   2.260   2.202   1.077 -0.3178 -0.3109 -0.4835
18944TIP3    H178323   2.279   2.290   1.109  1.9173 -1.3913  1.4483
18944TIP3    H278324   2.165   2.203   1.060 -0.4797  2.2245  0.1660
18945TIP3   OH278325   6.024   1.854  12.401 -0.3353  0.7838  0.5417
18945TIP3    H178326   5.949   1.796  12.415  0.3725 -0.7860 -1.6509
18945TIP3    H278327   5.986   1.942  12.398 -2.2006  0.0066 -0.8542
18946TIP3   OH278328   3.820   1.994   1.927  0.2912  0.2768  0.1594
18946TIP3    H178329   3.914   1.996   1.945  0.3352 -0.2663  0.0291
18946TIP3    H278330   3.811   1.931   1.856 -0.4050 -1.6244  1.8213
18947TIP3   OH278331   5.988   5.050  16.085 -0.2549 -0.6801 -0.2294
18947TIP3    H178332   6.026   4.971  16.047  0.0674 -1.2227  1.1897
18947TIP3    H278333   5.902   5.023  16.116 -0.8751 -0.0227 -1.3054
18948TIP3   OH278334   2.034   4.472  16.907  0.4033  0.0027  0.5660
18948TIP3    H178335   2.054   4.509  16.821 -2.5785  1.8429  0.4953
18948TIP3    H278336   2.065   4.537  16.970  0.6413 -0.2941  0.7540
18949TIP3   OH278337   2.982   4.304  13.059 -0.1290  0.1085 -1.0155
18949TIP3    H178338   2.929   4.375  13.095  1.0656  0.7317 -0.4254
18949TIP3    H278339   2.919   4.244  13.020 -1.1860  1.3496 -1.2762
18950TIP3   OH278340   5.231   5.233   4.373 -0.0230 -0.1927  0.7561
18950TIP3    H178341   5.226   5.246   4.279 -0.8251 -0.0252  0.8152
18950TIP3    H278342   5.284   5.306   4.405  0.7710 -0.5863  0.3779
18951TIP3   OH278343   5.979   5.238  14.903 -0.0313  0.2760  0.2328
18951TIP3    H178344   5.957   5.152  14.868 -0.8424  0.7840 -0.5509
18951TIP3    H278345   6.045   5.221  14.970  2.0645 -0.7060 -1.9231
18952TIP3   OH278346   1.504   1.544   6.079  0.8159 -0.0938  0.1127
18952TIP3    H178347   1.495   1.581   6.166  0.0585 -0.2096  0.0933
18952TIP3    H278348   1.558   1.466   6.091  1.2103  0.2168  0.3774
18953TIP3   OH278349   0.082   3.946  15.944  0.2712 -0.1250 -0.1000
18953TIP3    H178350  -0.003   3.956  15.986 -0.8764 -2.0161 -1.8151
18953TIP3    H278351   0.091   4.024  15.889 -0.4756 -0.0529 -0.1322
18954TIP3   OH278352   4.080   5.713  12.345 -0.0788 -0.4306  0.2122
18954TIP3    H178353   4.108   5.700  12.254 -1.8849 -2.0237 -0.1721
18954TIP3    H278354   3.985   5.718  12.340 -0.1200  1.2743  1.8566
18955TIP3   OH278355   6.492   0.118   2.500 -0.1084 -0.4949 -0.2499
18955TIP3    H178356   6.434   0.142   2.428 -0.2543  2.6131  0.7635
18955TIP3    H278357   6.580   0.143   2.471  0.4548 -2.8047 -0.7621
18956TIP3   OH278358   5.549   6.699   2.759 -0.2864 -0.0376 -0.3524
18956TIP3    H178359   5.504   6.779   2.732  0.8823  0.1122 -1.9926
18956TIP3    H278360   5.486   6.629   2.744 -0.7565  0.4048 -0.4491
18957TIP3   OH278361   1.544   6.006  15.659  0.0546 -0.5598  0.1282
18957TIP3    H178362   1.636   5.996  15.685 -0.3438 -1.8471  1.1850
18957TIP3    H278363   1.546   6.014  15.564  1.2703 -0.3808  0.1594
18958TIP3   OH278364   5.935   2.435   0.836 -0.0413 -0.0193 -0.1814
18958TIP3    H178365   6.029   2.417   0.838  0.2989  1.5919 -0.1618
18958TIP3    H278366   5.904   2.398   0.753  0.9586  0.9273 -1.0045
18959TIP3   OH278367   6.313   2.062  15.072 -0.7247  0.2280 -0.5843
18959TIP3    H178368   6.365   1.993  15.115 -0.7788  0.0012 -0.8808
18959TIP3    H278369   6.366   2.141  15.080  0.2614 -0.2541 -2.0063
18960TIP3   OH278370   1.307   5.206   3.171 -0.2234  0.1005  0.2508
18960TIP3    H178371   1.332   5.131   3.225  0.8130  0.3224  0.0982
18960TIP3    H278372   1.359   5.279   3.205  1.0225  0.0882 -1.4769
18961TIP3   OH278373   3.703   1.549   5.215 -0.2506  0.4067 -0.5492
18961TIP3    H178374   3.637   1.572   5.281  0.1027 -0.9068  0.3145
18961TIP3    H278375   3.747   1.631   5.195 -0.3705  0.8433  0.8674
18962TIP3   OH278376   2.604   6.640  11.766 -0.5906  0.2945 -0.0048
18962TIP3    H178377   2.652   6.714  11.802 -0.0082  0.1881 -0.5433
18962TIP3    H278378   2.644   6.625  11.680 -0.4151 -0.9073  0.2705
18963TIP3   OH278379   2.322   2.897   5.138 -0.0370 -0.0019  0.0016
18963TIP3    H178380   2.363   2.937   5.061  2.3624 -0.8098  0.7548
18963TIP3    H278381   2.262   2.963   5.171  0.6241  1.2648 -1.2288
18964TIP3   OH278382   6.806   2.363   3.400  0.2225 -0.2010  0.0084
18964TIP3    H178383   6.714   2.339   3.406  0.5919 -1.4541  1.1086
18964TIP3    H278384   6.838   2.359   3.490  1.7580 -1.5540 -0.5381
18965TIP3   OH278385   3.178   5.122   2.577 -0.3509  0.2721  0.2308
18965TIP3    H178386   3.091   5.141   2.542  0.8655  2.2677 -2.0342
18965TIP3    H278387   3.166   5.043   2.630 -3.7504  1.2382  1.1298
18966TIP3   OH278388   4.421   0.663  15.133 -0.0509  0.1335  0.0970
18966TIP3    H178389   4.352   0.728  15.121 -1.0173 -0.2745  2.7910
18966TIP3    H278390   4.456   0.649  15.045 -0.1836  3.8270 -0.7072
18967TIP3   OH278391   0.334   2.272  14.204 -0.3133 -0.2739  0.7459
18967TIP3    H178392   0.429   2.268  14.216 -0.2103 -0.0731  0.0474
18967TIP3    H278393   0.320   2.353  14.154 -0.7320 -1.0084 -0.3392
18968TIP3   OH278394   3.050   1.226   3.547  0.0388  0.1974 -0.3533
18968TIP3    H178395   3.113   1.243   3.617  0.5093  0.4093 -0.8116
18968TIP3    H278396   2.987   1.165   3.585  0.7563 -0.3472 -0.0006
18969TIP3   OH278397   4.397   6.113  14.759 -0.0729  0.1985  0.0414
18969TIP3    H178398   4.367   6.023  14.768 -0.2839  0.0818 -1.5827
18969TIP3    H278399   4.420   6.122  14.667 -0.3478  1.9041  0.1013
18970TIP3   OH278400   3.361   0.661   1.083  0.1165 -0.9171 -0.1109
18970TIP3    H178401   3.354   0.710   1.165  1.0289 -0.1968 -0.4526
18970TIP3    H278402   3.286   0.691   1.032  1.1484  0.8551 -0.6740
18971TIP3   OH278403   3.565   6.845   1.305  0.2299 -0.4588  0.0915
18971TIP3    H178404   3.500   6.791   1.349 -0.4221  2.3193  2.8860
18971TIP3    H278405   3.649   6.806   1.329 -0.2487 -1.5023  0.1217
18972TIP3   OH278406   3.865   1.275   1.029  0.3020  0.4457 -0.5498
18972TIP3    H178407   3.828   1.324   0.955  0.4634 -0.6300 -1.3750
18972TIP3    H278408   3.792   1.263   1.089  0.3811  2.1272 -0.0730
18973TIP3   OH278409   5.051   2.434  14.286 -0.0904  0.5730  0.1107
18973TIP3    H178410   5.084   2.345  14.289 -0.6656  0.3051 -0.7821
18973TIP3    H278411   5.030   2.449  14.193  0.0890  1.6665  0.2258
18974TIP3   OH278412   6.049   5.547  15.115  0.3197  0.0218 -0.1892
18974TIP3    H178413   6.142   5.558  15.094  1.0196  3.6350  3.4447
18974TIP3    H278414   6.049   5.491  15.193 -0.2267  1.7769  1.1336
18975TIP3   OH278415   1.714   5.653   1.747 -0.3595 -0.4009 -0.2377
18975TIP3    H178416   1.802   5.623   1.770 -0.5018 -0.8080 -0.2095
18975TIP3    H278417   1.656   5.602   1.803 -0.6770 -0.9660 -1.0509
18976TIP3   OH278418   4.849   1.777   4.858  0.2226 -0.5196  0.1221
18976TIP3    H178419   4.915   1.742   4.799 -0.6447 -0.1655 -1.0884
18976TIP3    H278420   4.766   1.748   4.821 -0.3190 -1.1801  1.7554
18977TIP3   OH278421   2.349   2.661  11.290 -0.4479  0.4135  0.2351
18977TIP3    H178422   2.284   2.591  11.294 -0.8671  0.8638  3.2399
18977TIP3    H278423   2.301   2.737  11.258 -1.6942  0.9417  3.1479
18978TIP3   OH278424   4.793   5.303  16.488  0.1344  0.0083  0.2547
18978TIP3    H178425   4.840   5.385  16.476 -1.2531  0.7045 -0.8731
18978TIP3    H278426   4.859   5.235  16.481  0.9467  0.9254 -1.5671
18979TIP3   OH278427   5.682   1.817   6.100 -0.0249  0.4299 -0.6158
18979TIP3    H178428   5.706   1.871   6.175 -0.5015  1.4466 -1.1668
18979TIP3    H278429   5.593   1.786   6.119 -0.8387  2.1086 -1.4928
18980TIP3   OH278430   1.938   4.394  14.519  0.0633  0.4208  0.5153
18980TIP3    H178431   1.980   4.431  14.597  0.6401  0.6110  0.1180
18980TIP3    H278432   1.902   4.310  14.549 -0.3333  0.8136  1.1592
18981TIP3   OH278433   2.050   3.222   0.289 -0.3936  0.4786 -0.7328
18981TIP3    H178434   2.079   3.168   0.363 -0.5226  1.0265 -0.2747
18981TIP3    H278435   2.069   3.312   0.316  0.7909  0.6192 -1.9196
18982TIP3   OH278436   6.304   6.494  12.381  0.5751  0.0256 -0.0352
18982TIP3    H178437   6.305   6.471  12.474 -0.2357  0.0588 -0.0114
18982TIP3    H278438   6.313   6.589  12.380 -0.3062  0.1166  0.0558
18983TIP3   OH278439   1.318   0.297  15.523 -0.9581  0.2820 -0.2427
18983TIP3    H178440   1.304   0.203  15.535 -0.1399  0.4093  2.2620
18983TIP3    H278441   1.380   0.302  15.450  0.6838 -1.2981  0.9456
18984TIP3   OH278442   3.593   2.554  13.750 -0.0590 -0.0501 -0.0343
18984TIP3    H178443   3.677   2.525  13.713  0.0078 -0.4125  0.3880
18984TIP3    H278444   3.560   2.477  13.797  0.6065  0.8023  1.9694
18985TIP3   OH278445   4.662   0.529  12.035 -0.1643 -0.0769  0.5232
18985TIP3    H178446   4.614   0.562  11.959 -0.6873  0.9169  1.2590
18985TIP3    H278447   4.711   0.453  12.002  2.6412  2.4578 -1.7738
18986TIP3   OH278448   2.414   1.272   0.612 -0.1362  0.1931  0.0985
18986TIP3    H178449   2.502   1.237   0.600 -0.0967  0.9738 -2.2718
18986TIP3    H278450   2.421   1.327   0.691  1.9232  1.4539 -0.8762
18987TIP3   OH278451   5.673   4.977  17.103  0.3703 -0.5705  0.0998
18987TIP3    H178452   5.670   5.042  17.173  1.8644 -0.2762 -0.0622
18987TIP3    H278453   5.688   5.028  17.023  0.1649 -1.0157 -0.2286
18988TIP3   OH278454   3.069   6.054  13.071 -0.3426  0.0436  0.0348
18988TIP3    H178455   3.011   6.002  13.127  1.0016 -0.6556  0.8330
18988TIP3    H278456   3.031   6.048  12.984 -1.3768 -0.5075  0.5068
18989TIP3   OH278457   3.776   5.886  15.197 -0.0091 -0.2392  0.0018
18989TIP3    H178458   3.848   5.936  15.235  1.2449 -0.8652 -1.4643
18989TIP3    H278459   3.817   5.807  15.162 -1.5282 -0.9635 -0.2228
18990TIP3   OH278460   5.283   4.687   0.415  0.3934 -0.0911 -0.0633
18990TIP3    H178461   5.216   4.727   0.360 -0.1387 -1.9862 -0.9069
18990TIP3    H278462   5.359   4.678   0.357  0.6401  0.0540  0.2328
18991TIP3   OH278463   4.706   6.785   0.635 -0.2672 -0.0219 -0.1599
18991TIP3    H178464   4.726   6.713   0.575  0.1144  0.3552 -0.4909
18991TIP3    H278465   4.791   6.813   0.668 -0.4990 -0.4052  0.7724
18992TIP3   OH278466   6.806   0.687  14.294 -0.1232 -0.1146  0.1498
18992TIP3    H178467   6.839   0.763  14.247  2.6675 -1.3328 -0.0439
18992TIP3    H278468   6.808   0.615  14.231 -0.7044 -0.8069  0.8833
18993TIP3   OH278469   0.335   2.093   4.403  0.8168  0.0169 -0.5738
18993TIP3    H178470   0.366   2.065   4.317 -2.6392 -0.0682 -1.9443
18993TIP3    H278471   0.296   2.014   4.441 -2.3215  1.1120 -1.2574
18994TIP3   OH278472   3.802   1.131   4.892  0.4633 -0.2127  0.1571
18994TIP3    H178473   3.748   1.206   4.915  0.9403 -0.0630  0.8076
18994TIP3    H278474   3.807   1.078   4.972 -3.6329 -3.4017 -1.3406
18995TIP3   OH278475   2.659   3.170   4.450  0.1885  0.4179 -0.0411
18995TIP3    H178476   2.737   3.135   4.406 -0.3554  1.0640 -1.5633
18995TIP3    H278477   2.594   3.179   4.381  0.7855  6.0877 -0.3415
18996TIP3   OH278478   1.575   3.741  15.870 -0.1313 -0.2961 -0.1782
18996TIP3    H178479   1.633   3.787  15.809 -0.5166  0.0768 -0.2694
18996TIP3    H278480   1.533   3.673  15.816 -2.1545  1.4360 -0.9155
18997TIP3   OH278481   3.665   4.956  11.473 -0.0328  0.4319  0.0768
18997TIP3    H178482   3.660   5.022  11.542  1.9865  1.7928 -0.9792
18997TIP3    H278483   3.591   4.975  11.416 -1.6367 -0.6159  1.7033
18998TIP3   OH278484   2.013   1.382   5.278 -0.3364  0.4398 -0.6863
18998TIP3    H178485   1.982   1.379   5.187 -0.9088 -0.3806 -0.4829
18998TIP3    H278486   2.029   1.474   5.295  0.8574  0.4996 -1.9754
18999TIP3   OH278487   5.829   1.585  14.341 -0.2713  0.0455 -0.1818
18999TIP3    H178488   5.805   1.673  14.372 -1.2432 -0.0914 -0.5206
18999TIP3    H278489   5.837   1.594  14.246 -1.0942 -0.3821 -0.3029
19000TIP3   OH278490   1.673   0.904  15.865 -0.0624 -0.4377 -0.0054
19000TIP3    H178491   1.669   0.868  15.776  1.5092 -0.0608 -0.2493
19000TIP3    H278492   1.715   0.989  15.854 -0.7271  0.0352  0.9996
19001TIP3   OH278493   1.394   3.760   5.956 -0.3472  0.3082  0.4286
19001TIP3    H178494   1.318   3.734   6.009 -1.2375  1.1379 -0.4166
19001TIP3    H278495   1.367   3.840   5.912  1.6405  1.6539  1.4711
19002TIP3   OH278496   3.427   5.878  12.514 -0.5119  0.3441  0.8984
19002TIP3    H178497   3.431   5.859  12.608 -2.2809 -1.5783  0.6604
19002TIP3    H278498   3.371   5.956  12.508  0.3656  1.0402  1.4550
19003TIP3   OH278499   3.390   3.605   3.552 -0.3176 -0.0895 -0.5162
19003TIP3    H178500   3.296   3.591   3.558 -0.2224 -0.3376  0.6002
19003TIP3    H278501   3.399   3.686   3.502 -1.1094 -0.1535 -0.7781
19004TIP3   OH278502   2.224   5.817  16.047 -0.3974  0.3553  0.2352
19004TIP3    H178503   2.268   5.839  15.966 -0.9771  1.4127  0.1872
19004TIP3    H278504   2.290   5.770  16.099  0.2066  0.3439 -0.5339
19005TIP3   OH278505   0.072   3.090  11.170 -0.2392  0.3180  0.2096
19005TIP3    H178506   0.147   3.085  11.110 -1.1509 -0.1129 -0.9301
19005TIP3    H278507   0.108   3.064  11.255  0.9860  0.5007 -0.2363
19006TIP3   OH278508   3.135   3.805   0.915  0.2556 -0.0215  0.0815
19006TIP3    H178509   3.144   3.897   0.890 -2.0497  0.0596 -0.6775
19006TIP3    H278510   3.162   3.756   0.837 -0.5590  0.0864 -0.2803
19007TIP3   OH278511   5.021   2.433  13.999  0.3033  0.2739 -0.7293
19007TIP3    H178512   5.073   2.353  14.011  3.3666  2.0872 -0.8807
19007TIP3    H278513   5.007   2.438  13.905 -2.2941 -1.3593 -0.5300
19008TIP3   OH278514   4.583   5.391   1.768  0.5536  0.0790  0.4264
19008TIP3    H178515   4.570   5.296   1.771 -0.0713  0.1485  0.0294
19008TIP3    H278516   4.495   5.428   1.769  0.7601  0.6297 -0.3645
19009TIP3   OH278517   1.577   6.268   1.646  0.2802 -0.5060  0.3519
19009TIP3    H178518   1.506   6.327   1.621  1.4671  0.2560 -1.4063
19009TIP3    H278519   1.621   6.312   1.718  0.0094 -0.1458  0.3003
19010TIP3   OH278520   4.035   2.371   4.177  0.5922 -0.1825 -0.2346
19010TIP3    H178521   4.009   2.385   4.085  0.2912 -1.6023 -0.3927
19010TIP3    H278522   3.952   2.356   4.223  0.7209  0.7828  0.3298
19011TIP3   OH278523   3.198   0.783  13.577 -0.0821  0.6036  0.6259
19011TIP3    H178524   3.277   0.731  13.560 -0.8315  0.2669 -2.5245
19011TIP3    H278525   3.145   0.727  13.633  0.8422 -0.2802  0.6614
19012TIP3   OH278526   6.814   2.089   1.978  0.1382  0.6855 -0.9261
19012TIP3    H178527   6.790   2.113   2.068  0.9890 -1.3294 -0.1108
19012TIP3    H278528   6.887   2.028   1.987 -0.7928 -0.8411 -2.9021
19013TIP3   OH278529   3.031   4.665   1.980 -0.3394  0.5739  0.8371
19013TIP3    H178530   3.103   4.609   2.008 -1.5070 -0.7148  1.4193
19013TIP3    H278531   3.072   4.746   1.952  1.7327 -1.4060 -2.4787
19014TIP3   OH278532   4.456   0.823   2.437  0.2356  0.4975 -0.1777
19014TIP3    H178533   4.538   0.831   2.389 -0.2913  1.3786 -0.9646
19014TIP3    H278534   4.397   0.778   2.376 -0.4353  1.6195 -0.3934
19015TIP3   OH278535   4.602   6.439  16.100 -0.0269  0.5316  0.2289
19015TIP3    H178536   4.691   6.427  16.067  0.5930  1.7005  1.3827
19015TIP3    H278537   4.564   6.351  16.100  1.0286  0.0557 -0.5130
19016TIP3   OH278538   5.102   3.164  16.449  0.1187 -0.1674 -0.2659
19016TIP3    H178539   5.010   3.190  16.440  0.7375  2.0772 -0.7203
19016TIP3    H278540   5.149   3.245  16.466  2.3057 -0.9210 -2.0980
19017TIP3   OH278541   3.123   5.819  16.511  0.5816 -0.2969  0.5135
19017TIP3    H178542   3.063   5.864  16.571  0.5414  1.0435 -0.4800
19017TIP3    H278543   3.101   5.854  16.424  1.6684 -1.0482 -0.0924
19018TIP3   OH278544   0.999   4.306  16.521 -0.4391 -0.0100  0.0609
19018TIP3    H178545   0.907   4.308  16.548 -0.4175  0.3555  0.1200
19018TIP3    H278546   1.002   4.358  16.441 -0.0835  1.0780  0.7398
19019TIP3   OH278547   0.973   6.677  10.295 -0.2539  0.3455 -0.7063
19019TIP3    H178548   0.919   6.752  10.269  0.3306  0.3836 -1.9069
19019TIP3    H278549   0.978   6.622  10.217 -1.3078 -1.3782  0.3740
19020TIP3   OH278550   0.256   1.858   4.496  0.3020 -0.0955  0.4890
19020TIP3    H178551   0.187   1.877   4.559 -0.4382  1.8105 -0.8210
19020TIP3    H278552   0.227   1.778   4.452 -0.6673  0.2323  0.5192
19021TIP3   OH278553   0.313   4.215   4.862 -0.2316 -0.4801  0.3670
19021TIP3    H178554   0.326   4.309   4.872 -1.9402 -0.4072  2.8859
19021TIP3    H278555   0.219   4.206   4.846  0.2095 -1.7138 -2.0412
19022TIP3   OH278556   3.875   0.259   5.489 -0.1476  0.2622 -0.0360
19022TIP3    H178557   3.928   0.240   5.567  1.6140 -1.1703 -1.4767
19022TIP3    H278558   3.927   0.225   5.416 -2.5834 -0.2285 -1.6758
19023TIP3   OH278559   5.841   2.514   4.397 -0.0495  0.2706 -0.5634
19023TIP3    H178560   5.842   2.608   4.376 -0.2614  0.3143 -0.3837
19023TIP3    H278561   5.917   2.502   4.454  0.4627  0.1713 -1.2566
19024TIP3   OH278562   0.649   0.178   0.869  0.1982 -0.0402 -0.1204
19024TIP3    H178563   0.572   0.151   0.918  0.5545  0.0023  0.4779
19024TIP3    H278564   0.674   0.262   0.906 -1.0665  1.3253 -2.1625
19025TIP3   OH278565   5.784   2.486  11.686  0.1021 -0.1726  0.2848
19025TIP3    H178566   5.798   2.449  11.599  0.2834  1.2800 -0.3196
19025TIP3    H278567   5.695   2.520  11.684 -0.5976 -1.8276  1.3275
19026TIP3   OH278568   4.860   2.296  17.056  0.1876 -0.0489 -0.0262
19026TIP3    H178569   4.918   2.233  17.014  1.6148  1.1538  0.0686
19026TIP3    H278570   4.866   2.277  17.149  0.2592 -0.0604 -0.0336
19027TIP3   OH278571   2.149   6.164  15.441 -0.0098  0.4666  0.5278
19027TIP3    H178572   2.186   6.076  15.430  0.0611  0.4528  0.8779
19027TIP3    H278573   2.061   6.149  15.474  0.3719  0.5543  1.6039
19028TIP3   OH278574   3.064   4.040   7.690 -0.0439 -0.0108  0.1935
19028TIP3    H178575   3.042   4.107   7.625 -0.6003 -0.4080 -0.0440
19028TIP3    H278576   3.066   3.958   7.640  2.6663  0.0623  0.0801
19029TIP3   OH278577   1.849   3.983  14.357 -0.5977 -0.6068 -0.0590
19029TIP3    H178578   1.881   3.900  14.391  1.9470  1.2152  2.5072
19029TIP3    H278579   1.894   3.995  14.274  0.2491 -1.0938  0.3282
19030TIP3   OH278580   4.948   3.307   6.454 -0.1752  0.0245  0.0073
19030TIP3    H178581   5.013   3.320   6.524 -1.7379 -0.2935  1.5985
19030TIP3    H278582   4.957   3.384   6.399  0.6069  0.6691  0.9888
19031TIP3   OH278583   4.244   5.194  14.330 -0.1366 -0.1553  0.2900
19031TIP3    H178584   4.166   5.230  14.372 -1.1255  0.6950 -2.0747
19031TIP3    H278585   4.285   5.269  14.288  0.1405 -1.0795 -1.1746
19032TIP3   OH278586   4.446   1.489  16.518  0.7386 -0.0239 -0.6448
19032TIP3    H178587   4.486   1.403  16.513 -1.1703 -1.0439  0.4787
19032TIP3    H278588   4.452   1.514  16.610 -3.0468 -1.2700  0.1098
19033TIP3   OH278589   2.372   3.657  16.496  0.1706  0.1542 -0.0842
19033TIP3    H178590   2.301   3.665  16.432 -1.4471  1.5482  1.7641
19033TIP3    H278591   2.339   3.595  16.561  2.2955 -2.2322 -1.0817
19034TIP3   OH278592   5.361   5.954  16.351  0.2861 -0.4691 -0.7670
19034TIP3    H178593   5.347   5.875  16.298 -1.2391 -0.5586 -0.2781
19034TIP3    H278594   5.394   5.921  16.434  0.5409 -0.5133 -0.8852
19035TIP3   OH278595   1.247   4.945   0.873 -0.5093 -0.8914  0.5438
19035TIP3    H178596   1.255   5.040   0.878  0.0511 -0.8575 -0.6996
19035TIP3    H278597   1.193   4.929   0.796  2.2510 -1.6310 -1.3994
19036TIP3   OH278598   4.081   4.260   1.659 -0.1420  0.2098  0.2485
19036TIP3    H178599   4.173   4.274   1.636  0.0732  1.1023  1.5665
19036TIP3    H278600   4.080   4.172   1.699  0.1824  0.2786  0.4159
19037TIP3   OH278601   3.998   5.607   0.881 -0.2288 -0.3635  0.1823
19037TIP3    H178602   4.025   5.693   0.849 -2.6192  0.1611 -0.5656
19037TIP3    H278603   3.973   5.622   0.972  0.0315 -0.4395  0.2692
19038TIP3   OH278604   2.008   5.421  10.601  0.2655  0.4571  0.5524
19038TIP3    H178605   1.921   5.417  10.641 -0.4859 -0.2216 -1.0639
19038TIP3    H278606   1.995   5.467  10.518  1.4852  0.4818  0.3530
19039TIP3   OH278607   0.256   3.886  11.532  0.1282 -0.1331 -0.4537
19039TIP3    H178608   0.166   3.891  11.564  0.5046  0.2946  0.5571
19039TIP3    H278609   0.251   3.919  11.442 -0.5456  0.9956 -0.0281
19040TIP3   OH278610   6.312   3.148  16.320  0.1769 -0.2821  0.2917
19040TIP3    H178611   6.237   3.201  16.294  1.3039 -0.1923 -3.4844
19040TIP3    H278612   6.291   3.060  16.288  0.6961 -0.8190  1.3726
19041TIP3   OH278613   1.248   5.438  11.516  0.1804 -0.6049  0.0753
19041TIP3    H178614   1.299   5.389  11.580  0.1268 -0.1013  0.5053
19041TIP3    H278615   1.159   5.404  11.525  0.4992 -1.7817 -0.9666
19042TIP3   OH278616   2.065   2.532  15.866  0.2663 -0.0168  0.0850
19042TIP3    H178617   2.151   2.570  15.884  0.1658  0.8532 -1.2098
19042TIP3    H278618   2.064   2.452  15.919  1.1384  0.8819  1.5574
19043TIP3   OH278619   3.646   4.962   5.037  0.4807 -0.3694 -0.6921
19043TIP3    H178620   3.625   5.049   5.071  0.6844 -0.8654  0.8010
19043TIP3    H278621   3.568   4.936   4.987  0.6312  0.8642 -1.5995
19044TIP3   OH278622   1.969   4.678  16.030 -0.5274  0.1603  0.2566
19044TIP3    H178623   1.975   4.642  15.942 -0.3169  0.1793  0.2610
19044TIP3    H278624   2.037   4.630  16.079  1.0861  1.8608 -0.1931
19045TIP3   OH278625   1.740   4.155  12.761  0.1793 -0.2902 -0.5564
19045TIP3    H178626   1.687   4.231  12.734 -0.3131 -1.1782 -2.2422
19045TIP3    H278627   1.829   4.178  12.734  0.2737  0.2389  0.1745
19046TIP3   OH278628   4.003   3.852   2.176 -0.7625  0.8311 -0.5175
19046TIP3    H178629   4.014   3.780   2.239 -2.3177  0.2446 -0.8848
19046TIP3    H278630   3.946   3.914   2.221 -2.6138  0.0019 -1.6104
19047TIP3   OH278631   3.018   4.697   1.454 -0.6123  0.5444  0.1427
19047TIP3    H178632   3.106   4.661   1.464 -1.1616 -0.4599  1.7488
19047TIP3    H278633   2.960   4.621   1.458 -1.6336  1.3061  0.3309
19048TIP3   OH278634   5.493   2.795   2.477  0.0272 -0.0172 -0.0010
19048TIP3    H178635   5.470   2.721   2.533  0.1868 -0.3688 -0.3930
19048TIP3    H278636   5.427   2.861   2.496  1.4840  0.8572  2.4767
19049TIP3   OH278637   4.256   5.276  14.697 -0.1159  0.2733 -0.1539
19049TIP3    H178638   4.252   5.190  14.657 -0.7979  1.0155 -1.7636
19049TIP3    H278639   4.294   5.332  14.629  1.2259  1.0703  1.1958
19050TIP3   OH278640   3.288   6.470  15.748  0.4502 -0.2696  0.0738
19050TIP3    H178641   3.286   6.551  15.698  2.8167  1.0599  1.8769
19050TIP3    H278642   3.362   6.421  15.711  2.3446  0.8113  2.1808
19051TIP3   OH278643   0.151   3.028   4.214 -0.0924 -0.0072 -0.4118
19051TIP3    H178644   0.243   3.047   4.199  0.0309  0.2134  0.5421
19051TIP3    H278645   0.141   2.935   4.193  0.2422  0.0736 -0.9425
19052TIP3   OH278646   0.710   0.151   5.479  0.6780 -0.7361 -0.1899
19052TIP3    H178647   0.627   0.114   5.508 -0.1091  2.3822  2.1507
19052TIP3    H278648   0.686   0.231   5.433  2.2990  0.7685  1.3960
19053TIP3   OH278649   6.496   5.420  11.485  0.8873 -0.0020  0.5890
19053TIP3    H178650   6.459   5.436  11.571  0.7780  0.7714  0.4093
19053TIP3    H278651   6.566   5.485  11.476 -0.1645  1.0361 -0.5370
19054TIP3   OH278652   2.872   0.991   3.069 -0.9562 -0.5327 -0.0506
19054TIP3    H178653   2.912   1.061   3.121 -3.7289  0.7893  0.4980
19054TIP3    H278654   2.917   0.996   2.985  0.7520  0.0851  0.8261
19055TIP3   OH278655   0.018   2.392   4.971 -0.3054  0.3511  0.6009
19055TIP3    H178656   0.064   2.426   5.049 -0.0245 -0.4214  0.7800
19055TIP3    H278657  -0.065   2.359   5.005  0.2456 -0.9437  0.7673
19056TIP3   OH278658   4.962   1.020   0.441 -0.4738 -0.1495 -0.4005
19056TIP3    H178659   4.980   0.973   0.522 -2.0823  1.8589  1.2385
19056TIP3    H278660   5.046   1.061   0.419 -0.0889 -0.4594  0.4245
19057TIP3   OH278661   2.548   1.160   5.195 -0.2709 -1.3302 -0.3645
19057TIP3    H178662   2.569   1.173   5.103  0.4548 -0.6350 -0.1163
19057TIP3    H278663   2.454   1.145   5.197 -0.8648  1.7019 -0.9442
19058TIP3   OH278664   6.411   1.745  17.044  1.0253 -0.2074  0.1014
19058TIP3    H178665   6.438   1.766  16.955 -1.0046 -1.6682 -0.9425
19058TIP3    H278666   6.336   1.802  17.061  1.6657  0.3743  1.0664
19059TIP3   OH278667   5.321   4.840   1.695  0.2061  0.1782 -0.5591
19059TIP3    H178668   5.286   4.801   1.775  0.9116  0.1225 -0.2760
19059TIP3    H278669   5.299   4.777   1.626  1.4910 -0.8237 -0.0868
19060TIP3   OH278670   3.819   1.305  12.160 -0.6546  0.3135  0.1326
19060TIP3    H178671   3.912   1.316  12.177 -0.0903 -2.8637 -0.2470
19060TIP3    H278672   3.815   1.259  12.076 -2.5774  0.5225  0.0631
19061TIP3   OH278673   0.852   4.095  13.354 -0.0210 -0.3578  0.3778
19061TIP3    H178674   0.812   4.026  13.302  0.6291 -0.8275  0.4892
19061TIP3    H278675   0.929   4.054  13.395  1.0378  0.7045 -0.4493
19062TIP3   OH278676   6.222   6.043   3.314  0.2008  0.3277  0.1873
19062TIP3    H178677   6.206   5.982   3.243  3.0218 -0.3130 -0.0370
19062TIP3    H278678   6.238   5.988   3.390  2.3896  0.7169  0.0752
19063TIP3   OH278679   1.212   1.205  14.363 -0.9572  0.2098 -0.0883
19063TIP3    H178680   1.265   1.253  14.426 -2.6433  3.4134 -0.8817
19063TIP3    H278681   1.272   1.141  14.325  1.5030  1.6876  1.0688
19064TIP3   OH278682   4.386   1.794  14.020  0.0598  0.2498 -0.0279
19064TIP3    H178683   4.397   1.853  13.945  0.8142 -0.6526 -0.6519
19064TIP3    H278684   4.399   1.849  14.096  0.1827  1.0107 -0.5849
19065TIP3   OH278685   0.636   3.026   1.028  0.1146 -0.1922 -0.2383
19065TIP3    H178686   0.634   3.067   1.115  3.8347 -1.0042  0.4091
19065TIP3    H278687   0.590   3.088   0.971  0.2182  1.8749  1.7940
19066TIP3   OH278688   3.759   2.568   5.675 -0.4847 -0.2063  0.4601
19066TIP3    H178689   3.795   2.490   5.716 -0.2582  0.3996  1.4681
19066TIP3    H278690   3.768   2.636   5.742 -1.0674  0.5797 -0.2361
19067TIP3   OH278691   3.055   3.384   1.994  0.4341 -0.5588  0.1648
19067TIP3    H178692   3.050   3.378   1.899 -0.3469 -1.1762  0.2312
19067TIP3    H278693   2.963   3.394   2.021  0.7793  1.4777  0.7456
19068TIP3   OH278694   3.080   5.517   0.213 -0.0504  0.6309  0.1957
19068TIP3    H178695   3.152   5.496   0.153 -1.6804 -0.0275 -1.6651
19068TIP3    H278696   3.017   5.446   0.200 -1.4181  1.6314  1.1047
19069TIP3   OH278697   5.690   1.140  11.634 -0.3368 -0.0766 -0.0181
19069TIP3    H178698   5.709   1.218  11.581  1.0285 -0.7468 -0.5456
19069TIP3    H278699   5.602   1.114  11.606 -0.5194  0.8497 -0.3528
19070TIP3   OH278700   5.987   2.421   1.465 -0.3044  0.2291  0.7444
19070TIP3    H178701   6.081   2.407   1.450 -0.3548  1.6507 -1.2599
19070TIP3    H278702   5.979   2.516   1.475 -1.7712  0.3909 -1.3986
19071TIP3   OH278703   1.758   6.629  10.461  0.4437 -0.2046  0.2902
19071TIP3    H178704   1.813   6.626  10.539 -0.5113  0.8431  1.0326
19071TIP3    H278705   1.676   6.670  10.490 -0.3153 -0.6942 -1.0363
19072TIP3   OH278706   0.692   3.512  16.082 -0.2271 -0.5024  0.6985
19072TIP3    H178707   0.750   3.436  16.093  0.5776  0.3311  2.7606
19072TIP3    H278708   0.621   3.497  16.143 -0.6784 -0.1294  0.2724
19073TIP3   OH278709   4.679   0.691   1.892  0.4305 -0.3949  0.4833
19073TIP3    H178710   4.753   0.743   1.924  0.1788 -0.5335  1.3123
19073TIP3    H278711   4.613   0.697   1.961 -1.0511  1.1427 -0.9553
19074TIP3   OH278712   2.985   2.024   4.453 -0.3382 -0.0710 -0.2854
19074TIP3    H178713   2.971   2.104   4.402 -2.5586  1.7190  2.7958
19074TIP3    H278714   2.938   2.039   4.535  1.8717 -3.2567  1.8183
19075TIP3   OH278715   4.877   3.409  14.750  0.1836  0.1083 -0.7806
19075TIP3    H178716   4.971   3.394  14.755  0.5112  1.2343 -2.5938
19075TIP3    H278717   4.859   3.416  14.656 -1.7694 -0.3606 -0.4882
19076TIP3   OH278718   2.021   6.751   0.472  0.0794  0.2492  0.4064
19076TIP3    H178719   2.017   6.829   0.416  2.4706 -0.3845 -0.7533
19076TIP3    H278720   2.075   6.778   0.546 -0.0378  0.0106  0.5775
19077TIP3   OH278721   4.336   5.299  17.062 -0.1035 -0.0377  0.2002
19077TIP3    H178722   4.254   5.275  17.019 -0.0139  0.0587 -0.0278
19077TIP3    H278723   4.379   5.215  17.079 -0.3588 -0.1011  0.5410
19078TIP3   OH278724   6.846   1.831  11.343  1.0426 -0.6654  0.0874
19078TIP3    H178725   6.755   1.820  11.314  1.4792 -1.7536 -0.9482
19078TIP3    H278726   6.842   1.902  11.407 -0.7438 -1.6035  1.0976
19079TIP3   OH278727   0.993   1.773  14.729 -0.1242  0.2676 -0.4456
19079TIP3    H178728   1.037   1.847  14.688 -1.5997 -0.2376 -3.1169
19079TIP3    H278729   0.961   1.808  14.813  2.8046  1.3912  0.3312
19080TIP3   OH278730   3.055   3.481  13.183 -0.3693  0.4637  0.2548
19080TIP3    H178731   3.146   3.459  13.167 -0.0400  0.7304  1.6333
19080TIP3    H278732   3.052   3.577  13.185 -0.2882  0.4779  2.0152
19081TIP3   OH278733   6.518   2.237  11.967  0.3982 -0.5188 -0.7803
19081TIP3    H178734   6.483   2.308  12.022  0.0469 -1.1062 -0.2330
19081TIP3    H278735   6.484   2.157  12.007  1.5784 -1.0562 -0.8289
19082TIP3   OH278736   0.692   4.379   3.363 -0.2393 -0.1986 -0.6882
19082TIP3    H178737   0.782   4.373   3.393 -0.3828 -0.3088 -0.2696
19082TIP3    H278738   0.696   4.430   3.282  0.2214 -0.3958 -0.7911
19083TIP3   OH278739   3.162   4.236  14.506 -0.3618 -0.3135 -0.2225
19083TIP3    H178740   3.204   4.177  14.442  0.4700 -1.0328  0.9361
19083TIP3    H278741   3.216   4.315  14.504 -2.5285  1.2615 -3.1135
19084TIP3   OH278742   6.451   6.563   4.589 -0.0005  0.8872  0.4946
19084TIP3    H178743   6.508   6.486   4.586 -1.8299 -0.5807 -3.0337
19084TIP3    H278744   6.483   6.619   4.519 -2.3236  0.3019 -1.1784
19085TIP3   OH278745   0.648   0.565  16.069  0.2108  0.4539  0.2602
19085TIP3    H178746   0.654   0.660  16.066 -1.1722  0.5637  0.4552
19085TIP3    H278747   0.736   0.536  16.092  0.6972  1.6653 -0.0104
19086TIP3   OH278748   3.267   5.394   0.490 -0.2502 -0.5180 -0.3206
19086TIP3    H178749   3.349   5.347   0.471 -0.0463 -1.3375  2.2456
19086TIP3    H278750   3.292   5.458   0.556 -0.7290  2.7593 -3.0549
19087TIP3   OH278751   0.330   0.798  13.698 -0.2568  0.5535  0.2025
19087TIP3    H178752   0.344   0.889  13.674 -0.3676  1.6586  3.7350
19087TIP3    H278753   0.418   0.762  13.712 -0.1797 -0.1578 -1.8382
19088TIP3   OH278754   3.717   0.482   4.757 -0.1691 -0.6169 -0.0022
19088TIP3    H178755   3.697   0.393   4.786 -1.8749  0.1493  1.3611
19088TIP3    H278756   3.764   0.521   4.831  0.0224 -0.1918 -0.3453
19089TIP3   OH278757   1.315   1.076   3.879 -0.2277 -0.0420  0.4246
19089TIP3    H178758   1.401   1.082   3.921 -0.3907 -0.4840  0.8311
19089TIP3    H278759   1.267   1.012   3.932 -1.1948  1.0250  0.8802
19090TIP3   OH278760   4.824   1.817  10.480  0.0435  0.1965  0.1207
19090TIP3    H178761   4.774   1.874  10.422 -0.5580  0.9786  1.3712
19090TIP3    H278762   4.807   1.728  10.448  0.6643  0.6602 -1.5928
19091TIP3   OH278763   2.597   4.444  12.524 -0.6187 -0.3410 -0.5805
19091TIP3    H178764   2.547   4.378  12.475 -0.1396 -0.1386 -1.3650
19091TIP3    H278765   2.687   4.434  12.492 -0.1912 -0.5319  0.6321
19092TIP3   OH278766   5.903   5.289  17.082  0.0441 -0.2780 -0.2618
19092TIP3    H178767   5.852   5.304  17.002 -0.7330 -0.6471  0.1545
19092TIP3    H278768   5.991   5.265  17.050 -0.4735 -1.2292 -1.0344
19093TIP3   OH278769   5.028   0.619  13.981 -0.0066 -0.3036 -0.1014
19093TIP3    H178770   5.042   0.676  14.057 -0.9988 -0.8776  0.5500
19093TIP3    H278771   4.979   0.544  14.017  0.0044 -0.8580 -1.2066
19094TIP3   OH278772   5.118   2.530  14.926 -0.8955 -0.6911 -0.1036
19094TIP3    H178773   5.195   2.577  14.893 -0.8547 -0.0681  0.8265
19094TIP3    H278774   5.151   2.443  14.949 -0.7599 -0.8682 -0.9361
19095TIP3   OH278775   1.642   0.769  11.373 -0.2418  0.8478 -0.1559
19095TIP3    H178776   1.645   0.850  11.322 -1.5081  0.3982 -0.9969
19095TIP3    H278777   1.599   0.706  11.315 -1.4977  0.2509  1.3565
19096TIP3   OH278778   0.288   0.658   5.253  0.8993  0.1410  0.4125
19096TIP3    H178779   0.208   0.710   5.258  1.5245  1.2544 -0.6569
19096TIP3    H278780   0.349   0.712   5.203  1.3535 -1.9146 -1.4046
19097TIP3   OH278781   4.061   1.513   4.237 -0.1342  0.0225 -0.5737
19097TIP3    H178782   3.982   1.459   4.232  1.0824 -1.7070 -2.1502
19097TIP3    H278783   4.130   1.453   4.264  0.8646  1.2809 -0.2207
19098TIP3   OH278784   2.069   5.422  16.229 -0.0980  0.1497 -0.6045
19098TIP3    H178785   2.103   5.342  16.189 -2.1225 -1.5441  0.8495
19098TIP3    H278786   2.116   5.429  16.312  0.6828  1.0027 -1.0930
19099TIP3   OH278787   3.705   4.140  15.912 -0.3911  0.0673  0.1512
19099TIP3    H178788   3.615   4.114  15.892 -0.1914  0.4677 -1.4622
19099TIP3    H278789   3.696   4.207  15.980 -1.1866 -0.9476  1.0853
19100TIP3   OH278790   6.580   2.706  14.660  0.4183 -0.2365 -0.1055
19100TIP3    H178791   6.527   2.771  14.705 -0.3862  0.1519 -1.5436
19100TIP3    H278792   6.635   2.668  14.729 -1.3218 -0.2716  1.3527
19101TIP3   OH278793   5.340   4.514   0.875  0.0246 -0.1213 -0.1692
19101TIP3    H178794   5.330   4.419   0.875 -1.5236  0.0025  0.2865
19101TIP3    H278795   5.292   4.543   0.953  0.9353  1.0009  0.0063
19102TIP3   OH278796   2.984   4.177   1.126 -0.2543 -0.6876  0.6596
19102TIP3    H178797   2.951   4.111   1.187  0.2544 -1.7747 -0.2181
19102TIP3    H278798   3.055   4.134   1.080  0.5122  0.6877  0.4985
19103TIP3   OH278799   3.534   3.370   6.246  0.1153 -0.2174  0.1889
19103TIP3    H178800   3.481   3.291   6.240  0.6820 -0.6249  0.4551
19103TIP3    H278801   3.622   3.339   6.269  0.8314  0.3295 -1.6572
19104TIP3   OH278802   1.819   0.846   1.744 -0.5597 -0.0017  0.0318
19104TIP3    H178803   1.828   0.904   1.668  0.6789  0.5546  0.5838
19104TIP3    H278804   1.795   0.761   1.706 -0.3405  0.3577 -0.9473
19105TIP3   OH278805   2.172   0.565   6.243 -0.0149  0.1647 -0.2180
19105TIP3    H178806   2.213   0.626   6.305 -1.2326  0.6713  0.1127
19105TIP3    H278807   2.213   0.481   6.263 -0.0875  0.4026  1.0114
19106TIP3   OH278808   6.212   2.040  13.772 -0.1652 -0.6164  0.0659
19106TIP3    H178809   6.180   2.124  13.738 -0.9397 -1.1415 -0.5262
19106TIP3    H278810   6.294   2.024  13.725 -0.0769 -0.2537  0.0957
19107TIP3   OH278811   3.326   0.472  13.164  0.4392  0.6454  0.4824
19107TIP3    H178812   3.244   0.473  13.214  0.2719  0.4026  0.2127
19107TIP3    H278813   3.299   0.476  13.072  0.7141  0.1686  0.3760
19108TIP3   OH278814   0.010   2.460   2.736 -0.3692 -0.3055 -0.3491
19108TIP3    H178815   0.004   2.554   2.716 -0.1988 -0.4111 -0.9007
19108TIP3    H278816  -0.055   2.419   2.679 -0.4455 -0.5216 -0.1064
19109TIP3   OH278817   3.871   1.747   5.023  0.1986  0.7049 -0.7379
19109TIP3    H178818   3.800   1.759   4.960 -0.0431  0.4877 -0.5110
19109TIP3    H278819   3.950   1.743   4.969  0.1511  1.9533 -0.9110
19110TIP3   OH278820   1.144   1.593   6.540  0.0961 -0.4690 -0.2583
19110TIP3    H178821   1.101   1.639   6.469 -0.4752  1.1313  1.0536
19110TIP3    H278822   1.073   1.557   6.593  0.5216 -2.1029 -0.7428
19111TIP3   OH278823   2.423   1.949  12.080 -0.7488 -0.4890 -0.0684
19111TIP3    H178824   2.435   1.894  12.002  1.6829 -0.7986  0.4404
19111TIP3    H278825   2.442   1.891  12.154  1.0591  0.7708  0.5289
19112TIP3   OH278826   2.938   0.084   5.607  0.3599 -0.1271  0.0563
19112TIP3    H178827   2.956   0.067   5.514  1.5347  1.6370 -0.0922
19112TIP3    H278828   2.989   0.017   5.653  2.5468  0.9999 -0.5537
19113TIP3   OH278829   3.867   3.158  13.639 -0.5039 -0.2659 -0.1813
19113TIP3    H178830   3.803   3.226  13.661  0.7491  0.7288  0.4853
19113TIP3    H278831   3.922   3.151  13.716 -0.3042 -1.7230 -0.4268
19114TIP3   OH278832   2.983   3.180   5.080  0.0307 -0.3341 -0.0502
19114TIP3    H178833   2.978   3.098   5.031  0.3249 -0.4469  0.1036
19114TIP3    H278834   2.893   3.201   5.102 -0.1345 -0.1489 -0.8606
19115TIP3   OH278835   0.771   6.626   0.588  0.2298 -0.2628 -0.3222
19115TIP3    H178836   0.846   6.568   0.598 -0.0594 -0.4665  0.7828
19115TIP3    H278837   0.794   6.683   0.515  0.6373 -1.5666 -1.2224
19116TIP3   OH278838   4.280   0.143   6.279 -0.6422  0.2661  0.3681
19116TIP3    H178839   4.230   0.193   6.344  0.9665  3.2253 -0.5111
19116TIP3    H278840   4.319   0.209   6.222  3.3842 -1.8382  0.3261
19117TIP3   OH278841   1.254   3.781  16.704  0.1161  0.4895 -0.0675
19117TIP3    H178842   1.294   3.697  16.681 -2.4507 -1.1048  0.9016
19117TIP3    H278843   1.234   3.823  16.620 -0.6507 -0.9469 -0.6238
19118TIP3   OH278844   1.194   0.243  16.010 -0.1139 -0.0721 -0.0622
19118TIP3    H178845   1.175   0.185  16.084  0.6601  1.6018  1.5313
19118TIP3    H278846   1.188   0.331  16.047 -0.4781  0.8657 -2.2106
19119TIP3   OH278847   6.355   5.134  13.920  0.1146  0.2909  0.2113
19119TIP3    H178848   6.377   5.105  13.832 -2.6465 -1.1749 -0.1069
19119TIP3    H278849   6.336   5.227  13.911 -0.0527  0.1739 -0.7398
19120TIP3   OH278850   1.196   0.157  13.307  0.0778  0.3912  0.2205
19120TIP3    H178851   1.197   0.238  13.358 -1.5680 -0.1545  1.1794
19120TIP3    H278852   1.124   0.168  13.245 -0.7826 -0.6734  0.9866
19121TIP3   OH278853   6.353   5.857  13.856 -0.5795 -0.0026 -0.6058
19121TIP3    H178854   6.326   5.940  13.896  0.7574  0.4188 -0.5208
19121TIP3    H278855   6.338   5.791  13.924 -0.4823  0.3634 -0.2280
19122TIP3   OH278856   1.470   6.808  11.913 -0.5616  0.0038 -0.3382
19122TIP3    H178857   1.483   6.852  11.828 -1.0559  0.4128 -0.2129
19122TIP3    H278858   1.375   6.809  11.924 -0.4313  2.1092  1.3271
19123TIP3   OH278859   5.174   0.836   4.482 -0.4907 -0.1952 -0.5810
19123TIP3    H178860   5.110   0.765   4.481 -0.0072 -0.6283 -1.1323
19123TIP3    H278861   5.259   0.793   4.478 -0.1265  0.3632  0.6009
19124TIP3   OH278862   2.375   0.051  17.063  0.2924  0.1881 -0.2733
19124TIP3    H178863   2.406   0.135  17.028  2.4965  0.5178  2.1477
19124TIP3    H278864   2.417  -0.015  17.008  1.0224  0.6899 -0.3359
19125TIP3   OH278865   3.750   3.676  15.143 -0.1765 -0.0811 -0.2712
19125TIP3    H178866   3.773   3.768  15.154 -0.9728  0.1129 -0.2059
19125TIP3    H278867   3.656   3.672  15.160 -0.5963 -0.5403 -2.3804
19126TIP3   OH278868   5.312   6.643  15.705  0.0737  0.5054  0.7759
19126TIP3    H178869   5.391   6.591  15.717  1.2476  1.8751 -0.5114
19126TIP3    H278870   5.341   6.734  15.714 -1.1354  1.0894 -0.6898
19127TIP3   OH278871   4.841   1.380   3.687 -0.0509  0.4072  0.4759
19127TIP3    H178872   4.862   1.367   3.594  0.7138 -1.2613  0.8497
19127TIP3    H278873   4.775   1.449   3.687  0.2510  0.7481 -1.2764
19128TIP3   OH278874   6.433   3.522   5.325 -0.2084  0.0170 -0.2513
19128TIP3    H178875   6.479   3.537   5.407 -0.4174  0.9870 -0.2949
19128TIP3    H278876   6.468   3.589   5.266  1.9054 -2.2851 -1.8100
19129TIP3   OH278877   4.416   3.576  10.910 -0.9955 -0.1771 -0.3195
19129TIP3    H178878   4.368   3.646  10.956  0.5085 -0.4810  1.8610
19129TIP3    H278879   4.352   3.505  10.903 -1.1790 -0.3067  1.8615
19130TIP3   OH278880   3.586   0.782  16.729  0.3478 -0.6253  0.3037
19130TIP3    H178881   3.637   0.857  16.699  0.7395 -0.8033  0.5122
19130TIP3    H278882   3.551   0.810  16.814 -1.5366  0.2331 -0.6825
19131TIP3   OH278883   1.560   1.199   3.399  0.2659 -0.0716 -0.1505
19131TIP3    H178884   1.551   1.273   3.339  1.0678 -1.3974 -1.9934
19131TIP3    H278885   1.469   1.175   3.420 -0.0133  1.8763  1.1375
19132TIP3   OH278886   3.551   5.613   1.570 -0.3409  0.2049  0.3452
19132TIP3    H178887   3.497   5.587   1.645  0.7847  0.2115  1.1778
19132TIP3    H278888   3.623   5.550   1.569  1.2227  1.8698  1.0558
19133TIP3   OH278889   6.215   3.073  16.741  0.3889 -0.3522  0.1854
19133TIP3    H178890   6.142   3.049  16.685 -0.7430 -0.8801  1.8114
19133TIP3    H278891   6.227   3.166  16.727  0.6324 -0.5960 -1.4507
19134TIP3   OH278892   4.699   5.412   4.939 -0.6200 -0.1575 -0.9037
19134TIP3    H178893   4.730   5.454   4.859  0.6197  2.5244  0.8576
19134TIP3    H278894   4.778   5.381   4.983 -0.9405  0.9984  0.5903
19135TIP3   OH278895   2.264   2.730   2.046  0.1445 -0.0675  0.1473
19135TIP3    H178896   2.251   2.638   2.025  2.4642  0.0039 -2.0268
19135TIP3    H278897   2.346   2.753   2.003 -0.2202  2.9582  0.8721
19136TIP3   OH278898   3.440   3.547   4.840  0.7092  0.3324  0.1809
19136TIP3    H178899   3.406   3.499   4.764  0.9528  1.9498 -1.0084
19136TIP3    H278900   3.523   3.503   4.860 -0.1164 -1.1327  0.5814
19137TIP3   OH278901   6.034   2.863  15.139 -0.1899 -0.6162 -0.2033
19137TIP3    H178902   5.939   2.870  15.134 -0.1266 -0.1459 -0.8998
19137TIP3    H278903   6.055   2.782  15.092 -0.1820 -0.2193 -0.8987
19138TIP3   OH278904   0.304   6.820  16.849 -0.5290  0.5523 -0.1223
19138TIP3    H178905   0.386   6.845  16.891 -1.4971  3.5474  0.2412
19138TIP3    H278906   0.246   6.797  16.921 -0.3687 -0.4211 -0.2964
19139TIP3   OH278907   6.434   0.619  12.098  0.0583  0.6564 -0.1171
19139TIP3    H178908   6.359   0.647  12.046  1.0379  1.3442 -1.2129
19139TIP3    H278909   6.492   0.576  12.035 -0.3343 -1.8162  1.0845
19140TIP3   OH278910   6.668   3.983  11.531  0.0083 -0.7210 -0.1049
19140TIP3    H178911   6.583   3.951  11.562  0.9432 -1.9677  1.3101
19140TIP3    H278912   6.732   3.922  11.568  1.7980  1.8709  1.4939
19141TIP3   OH278913   4.869   0.279  13.583 -0.2788  0.3895  0.3716
19141TIP3    H178914   4.909   0.203  13.624 -0.4987 -0.6706 -1.2821
19141TIP3    H278915   4.933   0.349  13.594  0.4230 -0.3198  0.9211
19142TIP3   OH278916   3.141   5.573   4.830  0.3023  0.1472  0.1116
19142TIP3    H178917   3.197   5.529   4.766  0.7974  1.2544 -0.2573
19142TIP3    H278918   3.135   5.513   4.903  2.2713  0.1234  0.3012
19143TIP3   OH278919   1.796   2.508   5.893  0.5478  0.8881 -0.5016
19143TIP3    H178920   1.874   2.500   5.949  1.6863  1.2128 -1.9930
19143TIP3    H278921   1.823   2.567   5.823 -1.1934  1.3348 -0.8303
19144TIP3   OH278922   1.541   3.018  15.857  0.0689 -0.0013  0.5864
19144TIP3    H178923   1.537   3.107  15.823  0.5149  0.2457  1.1731
19144TIP3    H278924   1.560   2.963  15.781 -2.9654  0.0430 -0.3566
19145TIP3   OH278925   1.108   1.998  14.625 -0.0281 -0.4747  0.0788
19145TIP3    H178926   1.153   2.081  14.628 -2.0127  0.6798 -0.0540
19145TIP3    H278927   1.122   1.965  14.536  1.0654 -0.4989  0.2463
19146TIP3   OH278928   5.827   5.170  16.822  0.1136  0.3968 -0.2598
19146TIP3    H178929   5.821   5.265  16.820 -0.2233  0.3676 -0.9499
19146TIP3    H278930   5.752   5.139  16.771 -1.3907 -0.3313  2.2381
19147TIP3   OH278931   4.947   3.840   2.098 -0.0971 -0.2217  0.4099
19147TIP3    H178932   5.026   3.803   2.060 -0.3360 -1.4607  1.0819
19147TIP3    H278933   4.959   3.935   2.090  0.6487 -0.4096 -1.0902
19148TIP3   OH278934   1.656   3.756  11.449 -0.6135 -0.2036  1.1172
19148TIP3    H178935   1.642   3.665  11.476 -1.0795 -0.8142 -0.9582
19148TIP3    H278936   1.608   3.764  11.366  1.0450  1.3490  0.2295
19149TIP3   OH278937   1.316   5.551  16.104  0.2748  0.7218 -0.5199
19149TIP3    H178938   1.352   5.498  16.034  0.2090  2.2116 -1.7204
19149TIP3    H278939   1.364   5.634  16.100 -0.0998  1.0453  0.8514
19150TIP3   OH278940   0.516   0.391  14.039 -0.3800  0.0223  0.1520
19150TIP3    H178941   0.523   0.407  14.133 -0.1081 -0.6467  0.2567
19150TIP3    H278942   0.534   0.297  14.030 -0.6604  0.0299 -0.5387
19151TIP3   OH278943   4.644   3.982  16.825 -0.4290  0.0960 -0.1699
19151TIP3    H178944   4.732   3.952  16.802  0.2517  3.0673 -1.9302
19151TIP3    H278945   4.586   3.924  16.775  0.4374 -1.9915  1.1130
19152TIP3   OH278946   6.364   0.792  15.156 -0.3184 -0.1705  0.3740
19152TIP3    H178947   6.422   0.797  15.232 -0.5362 -0.8747  0.5914
19152TIP3    H278948   6.398   0.858  15.096  1.9112 -1.8391 -0.3366
19153TIP3   OH278949   3.799   2.965   0.868 -0.4585 -0.3783 -0.5448
19153TIP3    H178950   3.803   2.878   0.906  1.2542 -0.2052 -0.2581
19153TIP3    H278951   3.852   3.019   0.926  0.3262  0.3770 -1.9146
19154TIP3   OH278952   3.950   5.438  16.178 -0.3298  0.2213 -0.2217
19154TIP3    H178953   3.926   5.370  16.241 -1.5196  1.1173  0.3294
19154TIP3    H278954   3.870   5.451  16.126  0.1065  0.6986 -0.7867
19155TIP3   OH278955   1.473   3.758   1.047 -0.1026 -0.2802  0.1184
19155TIP3    H178956   1.442   3.759   1.137  0.6213  1.8920  0.3946
19155TIP3    H278957   1.560   3.718   1.052 -0.7207 -1.7020  0.0882
19156TIP3   OH278958   3.824   2.908  15.596 -0.1988 -0.1807 -1.0277
19156TIP3    H178959   3.777   2.927  15.514 -0.3053 -1.8130 -1.3912
19156TIP3    H278960   3.757   2.876  15.656  0.2863 -1.9315 -1.3459
19157TIP3   OH278961   1.914   3.322   1.922 -0.3442  0.2874 -0.0739
19157TIP3    H178962   1.907   3.377   1.844 -0.5995 -0.0106 -0.2604
19157TIP3    H278963   1.867   3.371   1.990  1.3443  1.3913  0.3658
19158TIP3   OH278964   1.002   0.256  16.761  0.1925  0.5666  0.1632
19158TIP3    H178965   0.981   0.199  16.835 -0.7988  0.7177  0.0114
19158TIP3    H278966   0.975   0.343  16.790  1.3621  0.9189  0.2574
19159TIP3   OH278967   4.487   6.429   3.431  0.3254  0.0375  0.1474
19159TIP3    H178968   4.476   6.433   3.336  1.0392 -0.8699  0.0168
19159TIP3    H278969   4.408   6.472   3.466 -1.2742 -1.9368 -0.8203
19160TIP3   OH278970   2.126   1.809  11.605  0.8432  0.1974 -0.0101
19160TIP3    H178971   2.094   1.799  11.515  0.5651  1.5341 -0.0894
19160TIP3    H278972   2.070   1.878  11.642  0.9672 -0.3313  1.1870
19161TIP3   OH278973   1.624   2.391  14.842 -0.3132  0.2345  0.0097
19161TIP3    H178974   1.708   2.348  14.823 -0.1712  0.7176 -0.5103
19161TIP3    H278975   1.560   2.321  14.842  0.0126 -0.0655 -0.1686
19162TIP3   OH278976   3.806   0.230   1.124  0.0623 -0.8117 -0.1317
19162TIP3    H178977   3.878   0.193   1.174 -0.4701 -1.2233  0.3509
19162TIP3    H278978   3.845   0.256   1.041  0.9154 -0.3275  0.4018
19163TIP3   OH278979   2.089   0.018   2.020  0.0556 -0.0766  0.1097
19163TIP3    H178980   2.090  -0.071   1.985  0.9081  0.3167 -0.9447
19163TIP3    H278981   2.172   0.027   2.068  0.7386  0.6099 -1.1232
19164TIP3   OH278982   5.559   2.060   0.206  0.2854  0.3562  0.6573
19164TIP3    H178983   5.582   2.091   0.118 -0.0022  0.2923  0.5585
19164TIP3    H278984   5.638   2.014   0.236  1.1419  2.1425  1.2773
19165TIP3   OH278985   3.413   6.037   3.147  0.1519  0.3950  0.0378
19165TIP3    H178986   3.392   6.042   3.054 -1.2436  3.2754  0.4007
19165TIP3    H278987   3.343   5.982   3.184 -0.5246  0.9883 -0.3369
19166TIP3   OH278988   6.135   5.168  12.975  0.3172 -0.1957  0.3897
19166TIP3    H178989   6.215   5.216  12.995  0.7030 -0.8065  0.3348
19166TIP3    H278990   6.099   5.144  13.061  0.2872 -0.0723  0.4113
19167TIP3   OH278991   4.241   5.463  14.221 -0.2631 -0.1772 -0.1813
19167TIP3    H178992   4.162   5.445  14.170  0.8590 -1.7834 -1.4458
19167TIP3    H278993   4.295   5.517  14.164  0.4378 -0.8701 -0.1925
19168TIP3   OH278994   0.664   3.511  16.563 -0.1251 -0.1891  0.4542
19168TIP3    H178995   0.681   3.578  16.630 -0.9106  0.2758  0.2003
19168TIP3    H278996   0.667   3.428  16.611  0.9522  0.0104  0.7566
19169TIP3   OH278997   0.362   0.096   3.548 -0.4854  0.2994 -1.0280
19169TIP3    H178998   0.377   0.040   3.624  0.1409  0.0819 -1.3031
19169TIP3    H278999   0.407   0.178   3.570  0.1435  0.0539 -1.3729
19170TIP3   OH279000   3.782   4.784   4.623  0.5445 -0.0473  0.1983
19170TIP3    H179001   3.721   4.806   4.553 -0.2204 -0.9800  0.5537
19170TIP3    H279002   3.815   4.697   4.600  1.5677  0.3389  0.1405
19171TIP3   OH279003   6.148   2.997   0.922 -0.0944 -0.3224  0.2398
19171TIP3    H179004   6.231   3.000   0.969 -0.3510 -2.0133  0.8850
19171TIP3    H279005   6.087   3.044   0.979  0.2474  0.2650  0.1258
19172TIP3   OH279006   4.412   3.054   5.793  0.0435  0.2056 -0.3043
19172TIP3    H179007   4.401   3.080   5.702 -3.0817  1.7176  0.3729
19172TIP3    H279008   4.392   2.961   5.794 -0.6385  0.3342 -1.0702
19173TIP3   OH279009   0.639   6.204   3.567  0.2527 -0.1351 -0.1913
19173TIP3    H179010   0.643   6.210   3.472 -0.5060 -2.7710 -0.4653
19173TIP3    H279011   0.677   6.118   3.588 -0.3031  0.0380  1.8082
19174TIP3   OH279012   5.159   6.624  13.460  0.2675 -0.1273  0.7847
19174TIP3    H179013   5.083   6.614  13.517  0.9282 -1.1139  1.5324
19174TIP3    H279014   5.221   6.558  13.491  0.2404 -1.5042 -1.7890
19175TIP3   OH279015   6.510   0.944  14.497  0.2459 -0.4228  0.5334
19175TIP3    H179016   6.527   0.915  14.587  0.7413  0.1161  0.6193
19175TIP3    H279017   6.595   0.938  14.453  0.3608  0.8547  0.5470
19176TIP3   OH279018   2.966   4.758  11.344 -0.5225  0.0232  0.6347
19176TIP3    H179019   2.902   4.767  11.414 -0.1242  0.1900  0.9835
19176TIP3    H279020   2.940   4.823  11.279 -2.9106 -2.3666 -0.9941
19177TIP3   OH279021   3.094   5.326   3.182 -0.0870 -0.5850  0.1850
19177TIP3    H179022   3.009   5.289   3.160 -1.2088  1.2134  1.2363
19177TIP3    H279023   3.143   5.324   3.100 -2.1970  1.0120 -1.2257
19178TIP3   OH279024   4.030   1.048  10.958 -0.0606 -0.2356 -0.2436
19178TIP3    H179025   4.025   1.094  10.874 -0.5167  0.6634  0.2600
19178TIP3    H279026   3.963   0.980  10.952 -0.8903  0.5542 -0.1922
19179TIP3   OH279027   1.554   5.442   5.463  0.1880 -0.1644 -0.3219
19179TIP3    H179028   1.559   5.347   5.474 -0.1709  0.0119  1.9509
19179TIP3    H279029   1.635   5.465   5.418  1.2222 -1.3858  0.8057
19180TIP3   OH279030   0.145   0.057   6.144  0.4706 -0.5209 -0.0701
19180TIP3    H179031   0.116   0.078   6.056 -1.8448  0.2007  0.7936
19180TIP3    H279032   0.185   0.138   6.176 -1.7520  0.3481  0.6675
19181TIP3   OH279033   4.871   1.044  12.019  0.4143  0.4956 -0.3428
19181TIP3    H179034   4.803   0.976  12.016 -0.6056  1.4167  0.8639
19181TIP3    H279035   4.838   1.114  11.963  0.8590  0.5246 -0.5689
19182TIP3   OH279036   1.788   0.509  13.577 -0.3881  0.3197  0.4576
19182TIP3    H179037   1.821   0.497  13.666 -2.3043  0.4817  1.2515
19182TIP3    H279038   1.719   0.576  13.586 -0.5860  0.3754 -1.1539
19183TIP3   OH279039   5.735   2.455   5.103 -0.4572  0.0094  0.1461
19183TIP3    H179040   5.748   2.487   5.192 -3.7250  3.1469 -0.2505
19183TIP3    H279041   5.795   2.507   5.050 -0.6489  0.3171  0.2284
19184TIP3   OH279042   1.123   3.102   0.732  0.1384  0.1068  0.0420
19184TIP3    H179043   1.140   3.030   0.672 -1.0468 -0.1047 -0.0777
19184TIP3    H279044   1.080   3.060   0.807 -2.6802  0.8842 -0.9892
19185TIP3   OH279045   2.365   6.428   2.722 -0.0016  0.1250  0.0654
19185TIP3    H179046   2.285   6.377   2.731  1.4622 -1.9505  2.8117
19185TIP3    H279047   2.425   6.371   2.675  1.6457 -0.8800  3.1433
19186TIP3   OH279048   1.349   1.883  13.643 -0.4003 -0.2993  0.0092
19186TIP3    H179049   1.288   1.939  13.692 -0.8458 -0.8664  0.1041
19186TIP3    H279050   1.305   1.867  13.560  0.3448  0.6408 -0.5925
19187TIP3   OH279051   2.912   3.039   1.689 -0.5301  0.3980  0.2536
19187TIP3    H179052   2.891   3.068   1.778  3.8213  0.1023  1.6377
19187TIP3    H279053   2.955   2.954   1.702  1.6233  1.0430 -1.8546
19188TIP3   OH279054   1.677   2.793  11.313  0.1623 -0.7940 -0.4715
19188TIP3    H179055   1.593   2.768  11.276  0.1954 -0.2260 -0.9590
19188TIP3    H279056   1.733   2.717  11.299 -0.4836 -1.4891  0.6051
19189TIP3   OH279057   2.544   3.261  14.931  0.1237  0.0043 -0.0808
19189TIP3    H179058   2.527   3.276  15.024  1.4394 -4.2752  1.0906
19189TIP3    H279059   2.616   3.320  14.910 -1.2518  2.2232  1.0668
19190TIP3   OH279060   0.124   0.378  15.809  0.2891  0.0060  0.4139
19190TIP3    H179061   0.092   0.301  15.762 -0.9865 -0.2894  1.6737
19190TIP3    H279062   0.219   0.369  15.808  0.2961 -0.1627 -1.7332
19191TIP3   OH279063   1.858   3.591   5.460  0.2193  0.4390 -0.2224
19191TIP3    H179064   1.824   3.673   5.494  0.3607  0.2072  0.4882
19191TIP3    H279065   1.780   3.539   5.440  0.1342  0.6439 -0.4321
19192TIP3   OH279066   6.296   2.836  11.024  0.8111  0.1535  0.1117
19192TIP3    H179067   6.286   2.742  11.043  0.0189  0.3271  0.6234
19192TIP3    H279068   6.261   2.880  11.101 -2.5220  0.8795 -1.6168
19193TIP3   OH279069   5.726   2.080  11.316 -0.4291 -0.9013 -0.2342
19193TIP3    H179070   5.792   2.032  11.265 -0.4708 -1.0665 -0.1315
19193TIP3    H279071   5.704   2.022  11.388 -1.0710 -1.0661 -0.5543
19194TIP3   OH279072   3.210   3.337   4.838 -0.3766  0.4880 -0.0355
19194TIP3    H179073   3.155   3.371   4.909 -0.0496 -0.6034  0.7588
19194TIP3    H279074   3.273   3.280   4.882  0.3889  0.4782 -1.1175
19195TIP3   OH279075   5.763   4.326  16.764  0.2710 -0.7575 -0.4786
19195TIP3    H179076   5.843   4.272  16.767  1.4870  0.9535 -0.7939
19195TIP3    H279077   5.740   4.338  16.856 -0.2253 -2.0760 -0.4094
19196TIP3   OH279078   5.356   1.033   2.376  0.2199  0.3087  0.0101
19196TIP3    H179079   5.277   1.072   2.337 -1.0181 -1.6001  0.4624
19196TIP3    H279080   5.334   1.023   2.468  0.0590 -2.2767 -0.2371
19197TIP3   OH279081   4.883   3.663  12.256  0.0320 -0.5433 -0.5211
19197TIP3    H179082   4.911   3.680  12.166  1.1523 -2.4203 -0.5902
19197TIP3    H279083   4.948   3.601  12.290 -0.2975  0.2131  1.6404
19198TIP3   OH279084   6.424   2.543   0.826 -0.1527 -0.1827 -1.1138
19198TIP3    H179085   6.443   2.485   0.752  0.1840 -1.4542 -0.0670
19198TIP3    H279086   6.480   2.619   0.811  1.8696 -1.5372 -0.8680
19199TIP3   OH279087   4.686   6.027  15.668  0.3265 -0.3350 -0.4848
19199TIP3    H179088   4.643   6.104  15.704  0.8337 -0.3166  0.1131
19199TIP3    H279089   4.662   6.026  15.576  1.0430  1.0655 -0.7195
19200TIP3   OH279090   6.593   3.100  13.018 -0.3405 -0.2731  0.2516
19200TIP3    H179091   6.557   3.188  13.030 -1.7689 -0.8613  0.4330
19200TIP3    H279092   6.565   3.074  12.930  2.1468  0.3487 -0.8295
19201TIP3   OH279093   5.366   2.220   5.393 -0.2584 -0.1964  0.3617
19201TIP3    H179094   5.443   2.275   5.408 -0.6418  1.7286 -3.4680
19201TIP3    H279095   5.298   2.258   5.448  0.2269  1.4279 -0.1063
19202TIP3   OH279096   3.295   4.965  15.693 -0.4479 -0.0050  0.1147
19202TIP3    H179097   3.306   4.973  15.598 -0.1465 -0.8333  0.0741
19202TIP3    H279098   3.325   5.050  15.727  1.8778 -0.5590 -0.3579
19203TIP3   OH279099   5.274   6.686  14.744 -0.2923  0.4346 -0.5759
19203TIP3    H179100   5.353   6.739  14.752  0.1528 -0.3399  0.3743
19203TIP3    H279101   5.304   6.604  14.705 -0.5496  0.0086  0.0973
19204TIP3   OH279102   0.176   4.735   4.095  0.0732  0.5440 -0.4132
19204TIP3    H179103   0.174   4.809   4.034 -2.1108  1.4533  0.6194
19204TIP3    H279104   0.088   4.697   4.089  0.2212 -0.1508  1.1750
19205TIP3   OH279105   1.375   5.870   1.730 -0.4557  0.1498  0.0165
19205TIP3    H179106   1.416   5.850   1.814  1.7315  1.6314 -0.6281
19205TIP3    H279107   1.313   5.798   1.716  0.7880 -1.3653  1.8012
19206TIP3   OH279108   1.460   6.609  14.961  0.9559  0.3254 -0.0580
19206TIP3    H179109   1.527   6.645  14.902  1.3220 -2.2546 -1.3450
19206TIP3    H279110   1.481   6.648  15.047  1.7286  2.5057 -1.1628
19207TIP3   OH279111   4.762   0.936   3.829 -0.0135 -0.2250 -0.3412
19207TIP3    H179112   4.716   0.919   3.747  0.5089 -1.5548 -0.3991
19207TIP3    H279113   4.768   1.031   3.835 -1.9070 -0.0427 -0.7908
19208TIP3   OH279114   6.489   3.030  11.671  0.6113  0.0226 -0.5588
19208TIP3    H179115   6.549   3.019  11.598  0.3041  0.0281 -0.8114
19208TIP3    H279116   6.404   3.004  11.637  0.5535 -0.4522 -0.0614
19209TIP3   OH279117   0.645   2.746   5.405  0.5425  0.2685 -0.3245
19209TIP3    H179118   0.591   2.772   5.479  0.4862  1.4617 -0.7608
19209TIP3    H279119   0.735   2.764   5.433  0.4351  2.1142 -1.0402
19210TIP3   OH279120   5.670   4.478   1.398 -0.3071 -0.1638  0.3401
19210TIP3    H179121   5.681   4.477   1.302  2.7475 -0.4191  0.5869
19210TIP3    H279122   5.682   4.570   1.422  4.0865 -0.6400  0.7584
19211TIP3   OH279123   5.174   1.771  16.175  0.1479 -0.7574  0.1988
19211TIP3    H179124   5.254   1.817  16.202 -0.6860  0.4112  0.7261
19211TIP3    H279125   5.181   1.766  16.079 -0.6182  2.2285 -0.0973
19212TIP3   OH279126   1.509   1.238   0.389  0.1157 -0.4708 -0.3519
19212TIP3    H179127   1.567   1.174   0.347 -1.1243 -1.5533 -0.5076
19212TIP3    H279128   1.421   1.201   0.378 -0.5379  0.7413  0.5258
19213TIP3   OH279129   6.509   0.969  13.295 -0.0147  0.0118  0.1881
19213TIP3    H179130   6.435   0.908  13.299  0.2704 -0.5305 -1.6639
19213TIP3    H279131   6.568   0.938  13.364 -0.2936 -1.2792 -0.1094
19214TIP3   OH279132   3.926   3.920  11.861 -0.8973  0.0357 -0.2985
19214TIP3    H179133   3.888   3.897  11.946  0.3919  1.5170  0.7435
19214TIP3    H279134   4.015   3.886  11.865 -1.3017 -1.3116 -1.7570
19215TIP3   OH279135   6.036   0.583  16.685 -0.3434  0.5723  0.0269
19215TIP3    H179136   6.038   0.532  16.766  1.1560 -1.1748 -1.0215
19215TIP3    H279137   5.997   0.524  16.620  0.7064  1.0181 -1.0538
19216TIP3   OH279138   4.388   4.175  13.771  0.1234 -0.0292 -0.1578
19216TIP3    H179139   4.335   4.110  13.726 -1.2075  3.5591 -4.4544
19216TIP3    H279140   4.475   4.168  13.731 -0.4040  1.5692 -1.7179
19217TIP3   OH279141   6.213   6.297   2.110  0.0872 -0.6151  0.1635
19217TIP3    H179142   6.185   6.381   2.147 -1.7953 -1.3581  0.4951
19217TIP3    H279143   6.305   6.311   2.088  0.1445  1.1551  1.3121
19218TIP3   OH279144   4.477   4.702  11.105 -0.0247 -0.0503 -0.2603
19218TIP3    H179145   4.485   4.744  11.019  1.6358  0.7156  0.2428
19218TIP3    H279146   4.467   4.609  11.085  0.2956  0.1216 -1.2807
19219TIP3   OH279147   1.944   0.092  11.336  0.2424 -0.0555  0.3553
19219TIP3    H179148   1.905   0.026  11.278 -1.1906 -0.3578  1.6048
19219TIP3    H279149   1.961   0.044  11.417 -1.2786  1.2016  1.4603
19220TIP3   OH279150   5.963   2.904   0.661  0.2315  0.0739  0.4827
19220TIP3    H179151   6.014   2.958   0.721 -1.1926  0.6091  1.2581
19220TIP3    H279152   6.015   2.824   0.651  2.5930  1.6659 -1.0106
19221TIP3   OH279153   6.246   6.666   1.234  0.0406 -0.7339  0.5879
19221TIP3    H179154   6.299   6.592   1.208 -1.1636 -1.7542  0.9481
19221TIP3    H279155   6.211   6.702   1.152  2.8697  1.2813  0.1107
19222TIP3   OH279156   3.209   4.932   5.092 -0.3382 -0.7072 -0.3384
19222TIP3    H179157   3.298   4.918   5.059 -0.2364 -0.2909 -0.2412
19222TIP3    H279158   3.218   4.927   5.187 -0.1232  0.9897 -0.2477
19223TIP3   OH279159   1.340   0.032   4.517  0.2583 -0.2153 -0.2010
19223TIP3    H179160   1.265   0.089   4.535  0.7668 -0.0361  1.4897
19223TIP3    H279161   1.375   0.064   4.433 -0.1311  1.2513  0.1712
19224TIP3   OH279162   4.305   2.872   4.973 -0.1877 -0.7494  0.2094
19224TIP3    H179163   4.250   2.798   5.000  0.8694 -0.9184  2.0687
19224TIP3    H279164   4.377   2.873   5.036 -0.4262  2.1750  0.5780
19225TIP3   OH279165   3.630   4.494   1.112 -0.0490 -0.7793 -0.1973
19225TIP3    H179166   3.563   4.524   1.050 -0.6229 -1.8877 -0.1419
19225TIP3    H279167   3.663   4.574   1.152 -0.3236 -0.1127 -1.2675
19226TIP3   OH279168   6.067   1.605  16.643 -0.0858 -0.0666 -0.6260
19226TIP3    H179169   6.148   1.565  16.610  0.3970 -0.0101  0.4407
19226TIP3    H279170   6.091   1.696  16.662 -0.9668  0.5340 -2.2652
19227TIP3   OH279171   5.043   2.251  13.155 -0.7606 -0.5254  0.4279
19227TIP3    H179172   5.077   2.171  13.197 -0.5737 -0.0822  1.1434
19227TIP3    H279173   5.113   2.279  13.097 -0.6671 -0.6663  0.4699
19228TIP3   OH279174   1.703   3.307   2.660  0.5230  0.3245  0.2256
19228TIP3    H179175   1.614   3.326   2.688  0.0951 -0.0062 -0.8394
19228TIP3    H279176   1.719   3.217   2.688 -0.9149 -1.0316 -2.8033
19229TIP3   OH279177   2.866   0.300  13.507  0.2064  0.9189 -0.1723
19229TIP3    H179178   2.803   0.229  13.509  0.2639  0.8800  0.9413
19229TIP3    H279179   2.838   0.359  13.577  0.6823  1.5263 -0.4837
19230TIP3   OH279180   1.483   2.197  11.917  0.6834  0.4814 -0.3931
19230TIP3    H179181   1.391   2.219  11.925  0.2021 -1.1532 -0.9151
19230TIP3    H279182   1.530   2.269  11.960 -0.7067  2.3853 -1.8850
19231TIP3   OH279183   0.124   5.211  13.237  0.1976 -0.1815 -0.2523
19231TIP3    H179184   0.219   5.202  13.233  0.2170  0.1998 -0.7543
19231TIP3    H279185   0.092   5.167  13.158  0.0323  0.6484 -0.6515
19232TIP3   OH279186   2.445   1.380   2.242 -0.1464  0.5903  0.1100
19232TIP3    H179187   2.510   1.344   2.302  0.3912  1.0016 -0.2162
19232TIP3    H279188   2.496   1.407   2.165 -0.7169  0.8117 -0.1935
19233TIP3   OH279189   5.218   6.128   2.061  0.1943  0.4668 -0.6116
19233TIP3    H179190   5.155   6.057   2.073 -1.3538  1.8281 -0.3215
19233TIP3    H279191   5.241   6.125   1.968  0.2153 -0.4513 -0.5812
19234TIP3   OH279192   0.866   5.996   4.108  0.4082 -0.7603 -0.0319
19234TIP3    H179193   0.798   5.951   4.159  0.4596 -0.8078 -0.0050
19234TIP3    H279194   0.825   6.013   4.023 -0.3114  0.9511  0.6127
19235TIP3   OH279195   5.525   6.570  14.909 -0.3031 -0.2118  0.2704
19235TIP3    H179196   5.537   6.664  14.917  0.1334 -0.1215 -1.2229
19235TIP3    H279197   5.440   6.553  14.950 -0.6148  0.8980  0.1085
19236TIP3   OH279198   2.910   2.401   0.214 -0.0588 -0.5085 -1.1960
19236TIP3    H179199   2.938   2.356   0.294  1.1829  1.2597 -0.5895
19236TIP3    H279200   2.820   2.428   0.233  0.4037  0.3850 -0.1396
19237TIP3   OH279201   2.123   2.453   3.978  0.3912  0.4181 -0.4407
19237TIP3    H179202   2.113   2.428   3.886  0.9648  1.0901 -0.6934
19237TIP3    H279203   2.040   2.427   4.019  0.6440 -1.1528 -0.8446
19238TIP3   OH279204   6.583   2.033  11.779 -0.6342  0.0295 -0.4293
19238TIP3    H179205   6.673   2.035  11.811 -1.4425 -3.1307  2.6252
19238TIP3    H279206   6.542   2.110  11.818  0.4307  0.9242 -1.0082
19239TIP3   OH279207   5.499   1.399  14.183 -0.4234  0.1312 -0.3011
19239TIP3    H179208   5.414   1.443  14.192 -0.3213  0.2333  0.1637
19239TIP3    H279209   5.478   1.316  14.140 -0.8457 -0.1252  0.3963
19240TIP3   OH279210   3.316   2.017  13.238 -0.0366  0.0507  0.4041
19240TIP3    H179211   3.336   1.944  13.297 -1.6560 -0.2251  0.6505
19240TIP3    H279212   3.400   2.061  13.225  0.9495 -1.7487  0.3809
19241TIP3   OH279213   0.185   1.306  12.995  0.3854  0.6914 -0.1437
19241TIP3    H179214   0.246   1.375  12.969 -0.5969  1.4981 -0.3747
19241TIP3    H279215   0.164   1.325  13.086  0.3810  0.4850 -0.1007
19242TIP3   OH279216   5.353   2.898  12.489  0.1165 -0.0513 -0.5746
19242TIP3    H179217   5.356   2.958  12.563  0.2731  1.5785 -1.8355
19242TIP3    H279218   5.426   2.838  12.504  0.6007  0.7064  0.2173
19243TIP3   OH279219   4.502   1.632  15.300  0.2607  0.0726 -0.2854
19243TIP3    H179220   4.542   1.547  15.284  1.5401  0.6299 -0.1844
19243TIP3    H279221   4.408   1.615  15.296  0.3515 -1.9697  2.8703
19244TIP3   OH279222   4.255   2.748   4.361  0.1896  0.6016  0.1160
19244TIP3    H179223   4.264   2.836   4.324 -0.2093  0.5760 -0.0485
19244TIP3    H279224   4.195   2.704   4.302 -0.2933  0.4923  0.6829
19245TIP3   OH279225   2.308   1.815  10.878 -0.1010 -0.0740 -0.0984
19245TIP3    H179226   2.319   1.857  10.963  0.8806  1.7729 -1.0773
19245TIP3    H279227   2.387   1.761  10.868  0.3749  0.6544 -0.3341
19246TIP3   OH279228   3.305   6.769  16.987 -0.0891 -0.0445  0.5411
19246TIP3    H179229   3.383   6.755  17.041  0.1911  1.1540  0.4568
19246TIP3    H279230   3.336   6.760  16.897  0.0597  0.9200  0.4911
19247TIP3   OH279231   3.013   3.922   1.430  0.4169  0.8008  0.2835
19247TIP3    H179232   3.093   3.934   1.481  0.2002 -0.4667  0.9674
19247TIP3    H279233   3.044   3.892   1.345  0.6779  0.4401  0.5024
19248TIP3   OH279234   0.562   0.788   4.503  0.7238  0.1134 -0.0050
19248TIP3    H179235   0.473   0.755   4.515  0.6453  0.4796  0.4719
19248TIP3    H279236   0.574   0.852   4.574  1.3058  0.1921 -0.1639
19249TIP3   OH279237   5.118   0.234   0.026 -0.5705 -0.0709 -0.4443
19249TIP3    H179238   5.106   0.216   0.119 -1.8967 -0.7453 -0.7281
19249TIP3    H279239   5.185   0.172  -0.002  0.1721  0.4427  0.1406
19250TIP3   OH279240   6.646   4.154  13.818  0.2782 -0.0789 -0.0661
19250TIP3    H179241   6.654   4.094  13.893 -2.8151 -0.1531  0.3409
19250TIP3    H279242   6.676   4.102  13.743 -1.6292 -2.0012  0.3891
19251TIP3   OH279243   1.803   6.646  15.357  0.2821 -0.4805 -0.8100
19251TIP3    H179244   1.742   6.621  15.427  0.2956  0.5351 -0.4207
19251TIP3    H279245   1.853   6.567  15.339  1.6383 -0.2911  1.7162
19252TIP3   OH279246   5.730   5.504   1.748 -0.0178  0.1083  0.2391
19252TIP3    H179247   5.653   5.450   1.765  0.4152 -0.5399  0.1711
19252TIP3    H279248   5.732   5.567   1.820 -0.5725  0.0897  0.2752
19253TIP3   OH279249   4.063   4.314   4.382 -0.4296 -0.0067  0.2549
19253TIP3    H179250   4.125   4.241   4.376  1.4810  1.5208  0.4437
19253TIP3    H279251   4.117   4.389   4.408 -2.5472  1.2050  1.3829
19254TIP3   OH279252   3.420   4.954   2.891  0.6384  0.3888  0.7065
19254TIP3    H179253   3.502   4.908   2.872 -0.1538 -0.6699 -0.3267
19254TIP3    H279254   3.408   4.945   2.985  1.1384 -0.4752  0.7003
19255TIP3   OH279255   3.223   3.963  14.741 -0.3937  0.3478  0.2877
19255TIP3    H179256   3.195   3.905  14.813  1.1815 -0.0704  0.6027
19255TIP3    H279257   3.315   3.982  14.760 -0.3689  1.4637 -0.8271
19256TIP3   OH279258   5.845   6.267   6.352  0.5830 -0.3851 -0.6218
19256TIP3    H179259   5.762   6.245   6.309 -0.2962  0.5648  0.5011
19256TIP3    H279260   5.890   6.183   6.362 -2.2759 -1.8034  2.8160
19257TIP3   OH279261   2.088   4.554  12.801  0.0805  0.6263 -0.2817
19257TIP3    H179262   1.999   4.526  12.782 -0.1211  1.1992 -0.1926
19257TIP3    H279263   2.143   4.497  12.747 -0.3446  0.3525 -0.4285
19258TIP3   OH279264   4.813   0.787   4.579 -0.4009  0.5427  0.5167
19258TIP3    H179265   4.727   0.751   4.602 -0.3280 -0.4993 -0.7486
19258TIP3    H279266   4.815   0.786   4.484  1.3013 -0.1215  0.5233
19259TIP3   OH279267   4.880   0.785   0.893 -0.0030  0.4327 -0.8168
19259TIP3    H179268   4.816   0.715   0.882 -2.3037  2.4669 -1.4675
19259TIP3    H279269   4.862   0.820   0.981  0.2873  0.9739 -0.9686
19260TIP3   OH279270   3.160   6.447   0.084 -0.6110 -0.1748  0.1286
19260TIP3    H179271   3.075   6.487   0.063 -1.0209 -1.3432 -0.5092
19260TIP3    H279272   3.164   6.448   0.180 -2.3004 -1.9860  0.2793
19261TIP3   OH279273   2.506   3.332   0.605 -0.3715  0.3068  0.9565
19261TIP3    H179274   2.431   3.276   0.624 -2.1480  2.6946  1.3913
19261TIP3    H279275   2.474   3.396   0.542  1.8153  0.4162 -0.1645
19262TIP3   OH279276   0.799   0.198  12.880  0.3220  0.5070 -0.5554
19262TIP3    H179277   0.837   0.112  12.894  1.1198  1.0788  1.1607
19262TIP3    H279278   0.806   0.213  12.786  2.2023 -0.4138 -0.6185
19263TIP3   OH279279   2.671   3.506  14.223  0.1379  0.2991 -0.7203
19263TIP3    H179280   2.657   3.548  14.137 -0.8050  0.3281 -0.5665
19263TIP3    H279281   2.584   3.501  14.261  0.3837 -0.8262 -0.2653
19264TIP3   OH279282   1.710   6.680   1.856 -0.2388  0.8898  0.1177
19264TIP3    H179283   1.694   6.727   1.774 -0.2529 -0.0985 -0.4679
19264TIP3    H279284   1.689   6.743   1.925 -2.7499  0.9393 -0.5971
19265TIP3   OH279285   3.532   0.702  16.041  0.2568 -0.5428  0.0951
19265TIP3    H179286   3.578   0.759  16.103 -2.1493  2.4125 -0.5902
19265TIP3    H279287   3.560   0.734  15.955 -0.1771 -1.3188 -0.3457
19266TIP3   OH279288   2.984   0.105   2.272 -0.0745  0.0044 -0.2139
19266TIP3    H179289   2.892   0.086   2.293 -0.0226  0.7285  0.8015
19266TIP3    H279290   3.030   0.088   2.354  0.3636  1.7023 -0.0742
19267TIP3   OH279291   4.458   5.511  15.083 -0.0657  0.1524 -0.1753
19267TIP3    H179292   4.383   5.533  15.138 -0.4664 -1.1373 -0.1882
19267TIP3    H279293   4.459   5.578  15.015 -0.3112  1.0372  0.6645
19268TIP3   OH279294   4.771   4.713   1.822 -0.3128 -0.0489  0.2178
19268TIP3    H179295   4.729   4.706   1.908 -0.0287  0.3911  0.3920
19268TIP3    H279296   4.744   4.633   1.776 -1.2446  0.1743  0.3669
19269TIP3   OH279297   0.079   4.460  16.656  0.2336  0.0927 -0.1525
19269TIP3    H179298   0.130   4.467  16.575  0.2014  1.1951 -0.0917
19269TIP3    H279299   0.143   4.433  16.722  0.2220 -1.0086 -0.5664
19270TIP3   OH279300   6.578   1.777   1.888  0.2772  0.7534  0.0450
19270TIP3    H179301   6.596   1.793   1.980 -0.5397  1.6571  0.0604
19270TIP3    H279302   6.641   1.831   1.841  1.0550 -0.1174  0.0476
19271TIP3   OH279303   0.662   0.665  12.747  0.4809  0.4230 -0.0343
19271TIP3    H179304   0.684   0.732  12.813  1.7137 -0.2027  0.2211
19271TIP3    H279305   0.622   0.594  12.796 -0.1462  0.6506 -0.2049
19272TIP3   OH279306   2.564   2.998  14.482 -0.3411 -0.5038  0.3564
19272TIP3    H179307   2.637   3.036  14.434 -1.2971  0.7612 -0.1702
19272TIP3    H279308   2.541   3.065  14.547  0.5140 -1.9165  2.1921
19273TIP3   OH279309   3.572   6.453  16.861  0.1264  0.3684 -0.2736
19273TIP3    H179310   3.488   6.476  16.899  0.4497 -0.7738  1.2063
19273TIP3    H279311   3.552   6.434  16.769 -1.4016 -0.7980  0.2638
19274TIP3   OH279312   4.686   3.789   6.198  0.3356 -0.2432 -0.5396
19274TIP3    H179313   4.677   3.734   6.120  0.1843 -1.1248  0.0816
19274TIP3    H279314   4.779   3.813   6.200  0.7155 -1.6153 -0.1010
19275TIP3   OH279315   1.017   1.721   4.166  0.1170  0.4689  0.3303
19275TIP3    H179316   1.045   1.785   4.100  1.5940  1.2222  1.6183
19275TIP3    H279317   1.099   1.683   4.198 -0.5997 -0.2144  1.3997
19276TIP3   OH279318   6.698   5.801   0.093  0.0930  0.5479 -0.3119
19276TIP3    H179319   6.681   5.727   0.034 -2.2200  0.7711 -0.0259
19276TIP3    H279320   6.629   5.864   0.072 -0.0926  1.1276  1.8610
19277TIP3   OH279321   2.304   5.093  14.992 -0.4119  0.1395 -0.0185
19277TIP3    H179322   2.242   5.152  14.949  0.0245  1.5558  1.2055
19277TIP3    H279323   2.296   5.114  15.085  0.4384 -1.1054  0.3546
19278TIP3   OH279324   1.479   3.218  11.160  0.8112 -0.5922  0.0987
19278TIP3    H179325   1.511   3.197  11.073 -1.1007  0.2158 -0.8625
19278TIP3    H279326   1.500   3.141  11.213  1.7769 -1.1961 -1.1159
19279TIP3   OH279327   1.139   3.035  11.283 -0.0773  0.4868 -0.2359
19279TIP3    H179328   1.143   3.082  11.199 -0.6902  1.1230  0.0811
19279TIP3    H279329   1.231   3.023  11.308  0.1020  2.3628  0.1252
19280TIP3   OH279330   1.210   3.583   5.134  0.1062  0.4809  0.3003
19280TIP3    H179331   1.245   3.511   5.187 -1.3709  0.4885  1.3237
19280TIP3    H279332   1.227   3.556   5.043  0.0003 -0.9307  0.6739
19281TIP3   OH279333   2.131   1.014  14.123  0.6230  0.2257  0.1402
19281TIP3    H179334   2.100   1.073  14.192 -0.8945 -0.4150  0.0427
19281TIP3    H279335   2.211   0.975  14.158 -0.0008  0.0843  1.4487
19282TIP3   OH279336   5.018   4.458   1.967  0.1003  0.2488  0.4249
19282TIP3    H179337   4.951   4.457   2.035 -1.4524  3.1037 -0.9035
19282TIP3    H279338   5.094   4.497   2.010 -0.0116 -0.2759  1.1357
19283TIP3   OH279339   4.132   1.277  16.585 -0.0781 -0.5511 -0.5249
19283TIP3    H179340   4.161   1.305  16.672  1.7307  2.7126 -1.9747
19283TIP3    H279341   4.053   1.329  16.568 -1.4410 -2.4250 -0.2917
19284TIP3   OH279342   0.845   5.605   4.241  0.4746  0.2571  0.1474
19284TIP3    H179343   0.797   5.663   4.301  2.7440  1.7494  0.6427
19284TIP3    H279344   0.884   5.539   4.298  0.2324 -0.0870 -0.0787
19285TIP3   OH279345   1.992   6.491  14.397  0.3023 -0.1561  0.2999
19285TIP3    H179346   2.085   6.468  14.399  0.6477  1.0577 -0.5937
19285TIP3    H279347   1.968   6.505  14.488  0.8366 -1.0574  0.5912
19286TIP3   OH279348   2.941   4.666  13.381 -0.0987  0.0177 -0.0525
19286TIP3    H179349   3.004   4.595  13.370 -0.3049 -0.1749  0.0055
19286TIP3    H279350   2.913   4.687  13.292 -0.3296 -0.2418 -0.0449
19287TIP3   OH279351   2.582   5.431   2.756 -0.1049 -0.0163  0.3580
19287TIP3    H179352   2.494   5.401   2.779 -0.2122 -0.8495 -1.0428
19287TIP3    H279353   2.635   5.352   2.754  0.6288  0.4487  0.9123
19288TIP3   OH279354   2.488   2.075  14.629 -0.1986 -0.2918  0.1276
19288TIP3    H179355   2.537   2.113  14.703 -0.5531  0.4254  0.0030
19288TIP3    H279356   2.555   2.055  14.564  0.2463 -1.8730  1.0178
19289TIP3   OH279357   3.201   0.781   2.764 -0.0922  0.5518 -0.0076
19289TIP3    H179358   3.240   0.730   2.692  1.3895  0.4110  0.8598
19289TIP3    H279359   3.112   0.747   2.771  0.2613 -0.5917 -0.7013
19290TIP3   OH279360   2.028   2.025  13.366  0.1347 -0.1877 -0.2451
19290TIP3    H179361   1.966   1.977  13.422  0.8690 -0.7602  0.0873
19290TIP3    H279362   2.084   1.957  13.328  1.4258  0.4208  0.5107
19291TIP3   OH279363   3.355   6.614   5.257  0.0264 -1.0760  0.2233
19291TIP3    H179364   3.289   6.677   5.286  0.0268 -1.2769  0.6738
19291TIP3    H279365   3.362   6.628   5.163 -0.5119 -0.9115  0.2033
19292TIP3   OH279366   2.872   4.796  14.618 -0.0336  0.0934  0.0293
19292TIP3    H179367   2.796   4.741  14.641  0.6737 -0.6679  0.6029
19292TIP3    H279368   2.849   4.833  14.533 -1.4816  0.6778  0.6431
19293TIP3   OH279369   0.012   2.830   5.598 -0.0916  0.3557  0.5963
19293TIP3    H179370   0.063   2.869   5.669  0.2890 -1.0641  1.1355
19293TIP3    H279371   0.074   2.775   5.550 -0.7823 -0.2230  0.3439
19294TIP3   OH279372   3.548   1.043  15.651  0.0071 -0.1582 -0.2396
19294TIP3    H179373   3.579   1.029  15.561  1.0985  0.2764  0.0586
19294TIP3    H279374   3.561   1.137  15.666 -2.5002  0.2951 -0.4763
19295TIP3   OH279375   1.590   3.479   0.100 -0.4623  0.1087  0.0382
19295TIP3    H179376   1.663   3.533   0.070 -0.5132 -0.1912 -0.6484
19295TIP3    H279377   1.590   3.404   0.041  0.7686 -1.6052  2.0877
19296TIP3   OH279378   5.491   2.376   1.612 -0.3309  0.1818  0.4372
19296TIP3    H179379   5.446   2.459   1.596 -2.4063 -1.1714 -1.1747
19296TIP3    H279380   5.454   2.345   1.695 -0.5334  0.2206  0.3615
19297TIP3   OH279381   2.349   2.716  13.683 -0.3759  0.6758 -0.0656
19297TIP3    H179382   2.341   2.638  13.629 -0.1534 -0.6105  1.6718
19297TIP3    H279383   2.259   2.741  13.703 -0.4419  0.1437  0.3318
19298TIP3   OH279384   2.483   4.550   4.872  0.2846  0.6782  0.2435
19298TIP3    H179385   2.397   4.553   4.914 -0.6168  1.7354 -1.5710
19298TIP3    H279386   2.522   4.636   4.891  0.4372  0.6520  0.0535
19299TIP3   OH279387   0.507   1.204   1.749  0.0263 -0.2707  0.0033
19299TIP3    H179388   0.558   1.285   1.752  0.8244 -0.7912  1.6465
19299TIP3    H279389   0.460   1.202   1.833  0.9251 -2.0547  0.4941
19300TIP3   OH279390   6.427   5.425   4.853 -0.0690  0.0866  0.3617
19300TIP3    H179391   6.455   5.516   4.861  2.7075 -0.4697 -1.6279
19300TIP3    H279392   6.473   5.392   4.776 -2.7585 -2.4151 -0.3705
19301TIP3   OH279393   1.794   3.061   0.286  0.7241  0.3959  0.6296
19301TIP3    H179394   1.858   2.991   0.274  0.6335  0.2247  1.1201
19301TIP3    H279395   1.838   3.139   0.253  0.3839 -0.0876 -1.0650
19302TIP3   OH279396   6.591   2.859   1.220  0.2974  0.1214  0.0479
19302TIP3    H179397   6.520   2.794   1.211 -0.0722  0.5513 -0.1644
19302TIP3    H279398   6.666   2.817   1.178 -0.1192  0.0954 -0.6828
19303TIP3   OH279399   0.761   1.266   2.167 -0.7004 -0.2189 -0.1873
19303TIP3    H179400   0.771   1.249   2.073 -0.0760 -1.1020  0.0273
19303TIP3    H279401   0.820   1.340   2.184  1.4822 -1.9117  0.0237
19304TIP3   OH279402   6.301   0.916   6.317 -0.2736 -0.4647  0.4857
19304TIP3    H179403   6.224   0.941   6.267 -0.3397 -0.8361  0.3990
19304TIP3    H279404   6.350   0.859   6.259 -0.3156 -0.8388  0.8141
19305TIP3   OH279405   1.596   2.308   5.823  0.8431 -0.4810  0.2473
19305TIP3    H179406   1.573   2.259   5.902  1.4302  2.4734  2.4214
19305TIP3    H279407   1.664   2.370   5.852  0.2250  1.5441 -2.2545
19306TIP3   OH279408   4.585   1.076  12.705  0.6052  0.4740  0.0621
19306TIP3    H179409   4.545   1.117  12.629  1.2476  1.6587  0.3484
19306TIP3    H279410   4.674   1.055  12.677  0.6508  0.3486  0.2942
19307TIP3   OH279411   3.151   3.806   3.950  0.1066 -0.1514 -0.1436
19307TIP3    H179412   3.113   3.889   3.921 -1.8118 -1.2571 -1.0351
19307TIP3    H279413   3.106   3.787   4.032 -0.0552 -0.6538 -0.3413
19308TIP3   OH279414   6.128   5.749   0.256 -0.2746 -0.1791 -0.1068
19308TIP3    H179415   6.060   5.684   0.240 -1.5763  0.1761  3.3097
19308TIP3    H279416   6.082   5.832   0.262  0.6598  0.2876  0.8606
19309TIP3   OH279417   5.442   0.931   3.131 -0.4118  0.4086  0.1933
19309TIP3    H179418   5.536   0.911   3.127 -0.5472 -0.1520 -0.2669
19309TIP3    H279419   5.416   0.908   3.221 -0.1242  0.5328  0.3107
19310TIP3   OH279420   5.274   0.052   2.691 -0.4414  0.0062 -0.0928
19310TIP3    H179421   5.319   0.121   2.740  0.8275  1.1336 -2.6434
19310TIP3    H279422   5.204   0.098   2.645 -0.0313 -0.5209 -1.2693
19311TIP3   OH279423   2.892   1.459   2.665  0.6639  0.3968 -0.0086
19311TIP3    H179424   2.942   1.517   2.722  0.5840 -1.0492  1.6289
19311TIP3    H279425   2.868   1.385   2.721 -1.7363  0.1501 -1.2309
19312TIP3   OH279426   5.043   4.986  12.206 -0.2133 -0.7468 -0.3314
19312TIP3    H179427   5.036   4.912  12.267 -3.0347  1.1373  1.8844
19312TIP3    H279428   5.136   5.010  12.209  0.3502 -2.8058  0.6031
19313TIP3   OH279429   6.113   2.862  13.177  0.0883  0.1792  0.4887
19313TIP3    H179430   6.055   2.887  13.249  0.2619  1.0039  0.3571
19313TIP3    H279431   6.054   2.838  13.106 -0.1064  1.0032  0.3587
19314TIP3   OH279432   5.674   5.098   6.442  0.4259  0.0350  0.3491
19314TIP3    H179433   5.730   5.060   6.509  1.9709  1.6726  0.0644
19314TIP3    H279434   5.697   5.191   6.440 -1.1321  0.4562 -0.9525
19315TIP3   OH279435   0.937   5.085   5.077  0.2768 -0.4389  0.0235
19315TIP3    H179436   0.879   5.009   5.083  0.0571 -0.3053 -0.3821
19315TIP3    H279437   1.004   5.069   5.143  0.3309 -1.0716 -0.1779
19316TIP3   OH279438   1.643   5.206   1.758  0.2831 -0.2767  0.3414
19316TIP3    H179439   1.706   5.255   1.705 -1.1834  0.0383 -1.1983
19316TIP3    H279440   1.579   5.172   1.694 -2.2091  1.0814  1.9695
19317TIP3   OH279441   3.679   1.341   3.345  0.3678  0.2538 -0.5383
19317TIP3    H179442   3.706   1.401   3.275  0.9941  0.8018  0.1639
19317TIP3    H279443   3.722   1.259   3.323  1.0894  0.6019 -0.4496
19318TIP3   OH279444   5.113   2.041  15.618 -0.0803  0.0360 -0.0680
19318TIP3    H179445   5.054   2.116  15.618  0.0003  0.1322 -1.3496
19318TIP3    H279446   5.121   2.016  15.710 -1.2770  0.6702  0.2299
19319TIP3   OH279447   5.349   5.340   3.819 -0.5259 -1.2892 -0.1503
19319TIP3    H179448   5.313   5.396   3.888 -2.1221 -1.7274 -0.5647
19319TIP3    H279449   5.442   5.361   3.816 -0.7571  0.0198  0.9171
19320TIP3   OH279450   4.218   5.597  11.749 -0.0262 -0.1430 -0.3650
19320TIP3    H179451   4.183   5.681  11.777  1.3853 -0.2018  1.7946
19320TIP3    H279452   4.305   5.618  11.714  0.3786 -0.6940  0.2854
19321TIP3   OH279453   1.534   4.348  12.759  0.0650 -0.2078 -0.0703
19321TIP3    H179454   1.507   4.420  12.702  0.3529 -0.6633 -0.7981
19321TIP3    H279455   1.452   4.314  12.795  0.0125  1.5931  1.7219
19322TIP3   OH279456   3.548   6.845   4.971 -0.2255 -0.0201 -0.2836
19322TIP3    H179457   3.494   6.863   4.894  1.4336 -1.4871 -1.8821
19322TIP3    H279458   3.572   6.753   4.963  2.6196  0.5785  0.2127
19323TIP3   OH279459   5.817   2.995  13.611  0.4231 -0.2999  0.2211
19323TIP3    H179460   5.760   2.954  13.676  0.3172 -0.7286 -0.1410
19323TIP3    H279461   5.839   2.925  13.550  1.8614 -0.3070  0.7014
19324TIP3   OH279462   3.247   2.572  11.668  0.5852  0.7167 -0.3830
19324TIP3    H179463   3.232   2.661  11.638 -1.7935  0.5364  0.1158
19324TIP3    H279464   3.253   2.579  11.763 -5.2935 -0.0837  0.4043
19325TIP3   OH279465   5.665   2.812   5.346  0.0479  0.6914 -0.2802
19325TIP3    H179466   5.626   2.823   5.432 -2.2045 -0.0710 -1.1284
19325TIP3    H279467   5.695   2.721   5.345 -2.1250 -0.0792 -1.0557
19326TIP3   OH279468   6.368   6.310   2.811  0.1544 -0.1333 -0.3174
19326TIP3    H179469   6.360   6.240   2.747 -1.2896  0.5068 -0.8614
19326TIP3    H279470   6.332   6.273   2.892  0.9978 -0.5777 -0.1280
19327TIP3   OH279471   2.543   5.991  15.784  0.1625 -0.6324 -0.1287
19327TIP3    H179472   2.539   6.087  15.784 -1.6877 -0.6527  0.8857
19327TIP3    H279473   2.598   5.969  15.859 -0.8401 -0.3502  0.7127
19328TIP3   OH279474   0.003   0.683  11.461 -0.0141  0.3668  0.3926
19328TIP3    H179475   0.059   0.693  11.384  1.7467 -0.1088  1.5316
19328TIP3    H279476  -0.035   0.769  11.475  0.7050  0.8063 -0.2501
19329TIP3   OH279477   0.745   2.856  14.782 -0.4368 -0.2963  0.0531
19329TIP3    H179478   0.762   2.835  14.874  2.9065 -0.1466 -0.4155
19329TIP3    H279479   0.672   2.798  14.757  0.3800 -2.3438  2.0703
19330TIP3   OH279480   3.723   3.053   0.275  0.2525  0.1510 -0.0584
19330TIP3    H179481   3.721   3.015   0.363  0.5333  1.2958  0.4673
19330TIP3    H279482   3.715   3.147   0.290  0.4603  0.3733 -1.2565
19331TIP3   OH279483   6.752   3.039   2.493  0.4325  0.4889 -0.0577
19331TIP3    H179484   6.763   3.114   2.435 -0.1717 -0.6484 -1.6905
19331TIP3    H279485   6.786   2.965   2.444  0.4419 -0.4311  1.2861
19332TIP3   OH279486   6.073   4.171   4.451  0.0763  0.5392 -1.1489
19332TIP3    H179487   6.034   4.195   4.535 -1.0076 -1.0641 -1.1521
19332TIP3    H279488   6.158   4.132   4.474 -0.9341 -1.4686 -0.5921
19333TIP3   OH279489   5.248   5.903  14.869 -0.1669  0.5413  0.8036
19333TIP3    H179490   5.218   5.833  14.812  1.0605  0.1910  0.5474
19333TIP3    H279491   5.215   5.880  14.956 -1.8789  0.9755  0.2979
19334TIP3   OH279492   2.220   1.362   3.409  0.7342 -0.6959  0.3533
19334TIP3    H179493   2.208   1.437   3.468  1.3254  1.1323 -1.7211
19334TIP3    H279494   2.315   1.345   3.411  1.0013  0.4414 -1.2316
19335TIP3   OH279495   5.711   0.938  12.521 -0.2955 -0.1762  0.7579
19335TIP3    H179496   5.681   0.855  12.556  1.5209 -1.0552  0.3504
19335TIP3    H279497   5.721   0.922  12.427 -2.8963  1.4686  0.0590
19336TIP3   OH279498   2.801   5.907  13.451  0.4294  0.0799 -0.0914
19336TIP3    H179499   2.789   5.856  13.531  1.1484  0.7799  0.4839
19336TIP3    H279500   2.720   5.957  13.441 -0.0903 -0.8133 -0.4029
19337TIP3   OH279501   5.059   0.493  13.600 -0.2700 -0.1481  0.5773
19337TIP3    H179502   5.113   0.516  13.524 -1.1951  2.6382  0.6721
19337TIP3    H279503   5.105   0.531  13.675 -1.8073  1.4777  0.7653
19338TIP3   OH279504   3.792   2.295  15.487  0.1339 -0.6884 -0.1624
19338TIP3    H179505   3.797   2.383  15.448  0.7259 -0.4357  0.4702
19338TIP3    H279506   3.699   2.285  15.510  0.0386 -0.2804 -0.3576
19339TIP3   OH279507   4.607   5.996  16.650  0.5917  0.0157 -0.2459
19339TIP3    H179508   4.633   6.087  16.636  0.7930 -0.3181 -2.3769
19339TIP3    H279509   4.610   5.985  16.745  0.0762  2.3515  0.1124
19340TIP3   OH279510   4.248   1.441  15.227 -0.2385 -0.1597  0.0965
19340TIP3    H179511   4.256   1.385  15.305 -1.3892  0.0032  0.3405
19340TIP3    H279512   4.260   1.382  15.153  0.4968 -0.3808  0.3840
19341TIP3   OH279513   0.986   5.251   1.367  0.0850  0.5582  0.8647
19341TIP3    H179514   0.898   5.270   1.401 -0.3005  2.1332 -0.8754
19341TIP3    H279515   0.972   5.182   1.302  0.1123  0.9717  0.4239
19342TIP3   OH279516   0.689   2.384   0.692 -0.5165  0.1079 -0.3540
19342TIP3    H179517   0.717   2.430   0.771  0.0630 -1.4722  0.4143
19342TIP3    H279518   0.766   2.384   0.636  0.2327 -1.7715  0.5774
19343TIP3   OH279519   2.213   1.674   5.477 -0.5052 -0.3126  0.9201
19343TIP3    H179520   2.129   1.669   5.431 -0.2251 -0.1040  0.3727
19343TIP3    H279521   2.269   1.611   5.432 -0.0052  0.4233  0.4754
19344TIP3   OH279522   5.088   1.764   3.068 -0.2128  0.1323  0.4461
19344TIP3    H179523   5.145   1.760   2.991 -0.1054  0.7186  0.4903
19344TIP3    H279524   5.118   1.841   3.116 -2.0058  1.3762 -0.3097
19345TIP3   OH279525   4.521   5.137   1.807  0.2160 -0.6887  0.3075
19345TIP3    H179526   4.435   5.095   1.813  0.2707 -0.7723  0.5496
19345TIP3    H279527   4.573   5.093   1.875  0.4811 -0.7131  0.0905
19346TIP3   OH279528   2.079   4.729   4.494 -0.0421 -0.1358  0.0230
19346TIP3    H179529   2.041   4.771   4.417  0.2258  0.1143  0.0295
19346TIP3    H279530   2.173   4.729   4.478 -0.1131 -2.0121 -0.6422
19347TIP3   OH279531   5.014   5.502   0.129 -0.0487  0.5598 -0.1693
19347TIP3    H179532   5.078   5.572   0.116 -2.5822  2.7451 -1.9136
19347TIP3    H279533   5.046   5.429   0.076  2.3465  0.4768  1.2255
19348TIP3   OH279534   2.457   4.782  11.876  0.5104 -0.1795  0.4842
19348TIP3    H179535   2.370   4.812  11.900  0.2890 -1.1700  0.9459
19348TIP3    H279536   2.506   4.863  11.857  0.1780  0.5565  2.5244
19349TIP3   OH279537   5.363   1.353   1.188  0.5416  0.8662 -0.1965
19349TIP3    H179538   5.300   1.286   1.162 -0.1658  1.8622 -1.1282
19349TIP3    H279539   5.415   1.311   1.257  1.4333 -1.3657 -2.0617
19350TIP3   OH279540   0.625   6.831  11.681 -0.2866  0.7372  0.2106
19350TIP3    H179541   0.540   6.816  11.641 -0.6904 -0.0818  1.3279
19350TIP3    H279542   0.688   6.810  11.612 -0.9758  1.3209 -0.6165
19351TIP3   OH279543   1.908   0.453  12.776 -0.1380  0.5055 -0.3042
19351TIP3    H179544   1.962   0.473  12.699 -0.8047 -1.1955 -1.2608
19351TIP3    H279545   1.825   0.423  12.739 -0.2631 -0.9104  1.0631
19352TIP3   OH279546   0.921   2.169   1.765 -0.4271  0.9041  0.0370
19352TIP3    H179547   0.921   2.151   1.858  0.1926  0.9913  0.0562
19352TIP3    H279548   1.014   2.175   1.741 -0.5550 -0.1846 -0.7965
19353TIP3   OH279549   1.078   0.914  11.189  0.0570  0.0048 -0.5495
19353TIP3    H179550   1.124   0.992  11.158 -0.9605 -0.0699 -2.3520
19353TIP3    H279551   1.082   0.920  11.285  2.3437  0.8341 -0.6537
19354TIP3   OH279552   3.103   6.409  13.849 -0.5189 -0.5555  0.3992
19354TIP3    H179553   3.102   6.497  13.812 -0.6645 -1.4905 -1.9906
19354TIP3    H279554   3.057   6.417  13.932  0.1301  1.7442  0.5997
19355TIP3   OH279555   3.461   5.310   6.614  0.4448 -0.6684  0.3281
19355TIP3    H179556   3.555   5.322   6.628  0.4973 -0.6184 -0.0698
19355TIP3    H279557   3.436   5.241   6.676  0.5108  0.1501  1.3010
19356TIP3   OH279558   3.635   5.247   4.881 -0.5477  0.0043  0.1888
19356TIP3    H179559   3.685   5.176   4.920 -0.3454  0.0532  0.0222
19356TIP3    H279560   3.677   5.327   4.913  0.2553  0.0507 -0.9063
19357TIP3   OH279561   1.116   3.486   0.285 -0.2950  0.3124 -0.1642
19357TIP3    H179562   1.060   3.414   0.256  1.2368 -0.8645 -0.3584
19357TIP3    H279563   1.203   3.465   0.249  0.2191  2.2319 -0.1659
19358TIP3   OH279564   0.792   0.265   4.102  0.6535 -0.3522 -0.3984
19358TIP3    H179565   0.733   0.268   4.178  0.7797  3.1488 -0.2754
19358TIP3    H279566   0.733   0.256   4.027  0.3013 -0.8560 -0.0733
19359TIP3   OH279567   0.229   0.238  13.766  0.3084  0.3431 -0.7347
19359TIP3    H179568   0.295   0.268  13.703  0.1844 -1.0049 -1.5468
19359TIP3    H279569   0.151   0.288  13.746  1.1879  2.3704  0.5987
19360TIP3   OH279570   6.593   6.182   3.359  0.3033  0.1554 -0.4375
19360TIP3    H179571   6.677   6.207   3.321  1.4818  0.6883  2.2686
19360TIP3    H279572   6.529   6.232   3.309  1.7378  1.1032 -1.4290
19361TIP3   OH279573   3.434   6.440   2.352  0.4595 -0.1164  0.0451
19361TIP3    H179574   3.502   6.463   2.416  0.9154  0.6519 -0.7036
19361TIP3    H279575   3.381   6.519   2.344 -0.1208 -0.4949  0.1160
19362TIP3   OH279576   0.465   2.965   2.956 -0.4125 -0.1404  0.8182
19362TIP3    H179577   0.385   2.931   2.995 -0.3351 -1.8282 -0.3930
19362TIP3    H279578   0.436   3.012   2.877 -0.2760  0.0966  0.9058
19363TIP3   OH279579   2.010   2.784  11.521  0.2096  0.7931  0.5848
19363TIP3    H179580   1.987   2.744  11.438  0.4479  1.6535  0.0882
19363TIP3    H279581   1.943   2.754  11.582 -2.7376  3.6716 -0.9266
19364TIP3   OH279582   4.219   3.882  15.990 -0.0490  0.3327 -0.3162
19364TIP3    H179583   4.294   3.932  16.022 -0.7558  0.4515  1.2422
19364TIP3    H279584   4.175   3.942  15.929 -0.3552  1.3114  0.8138
19365TIP3   OH279585   0.493   1.908   0.576 -0.8068  0.4874  0.4346
19365TIP3    H179586   0.520   1.821   0.604 -1.3668 -0.5788 -2.1305
19365TIP3    H279587   0.417   1.928   0.631 -1.5834 -1.2916  0.0735
19366TIP3   OH279588   3.146   0.457  12.511  0.2979 -0.4946 -0.4177
19366TIP3    H179589   3.075   0.416  12.462 -0.6857  0.7798 -0.1214
19366TIP3    H279590   3.141   0.418  12.598  0.7027 -1.2435 -0.7283
19367TIP3   OH279591   6.763   0.345   1.058  0.3358 -0.2401 -0.2563
19367TIP3    H179592   6.749   0.368   0.966  0.6207 -1.1695 -0.5516
19367TIP3    H279593   6.694   0.391   1.105  2.0560  2.8422 -0.4941
19368TIP3   OH279594   5.762   3.317   4.087 -0.0558 -0.7247  0.4307
19368TIP3    H179595   5.700   3.264   4.037  0.8613 -1.4125 -0.0192
19368TIP3    H279596   5.829   3.254   4.116  1.0966  0.1843 -0.1780
19369TIP3   OH279597   1.647   4.966   3.938 -0.2927  0.1959 -0.2488
19369TIP3    H179598   1.727   4.939   3.893  0.9191  0.2052  1.8102
19369TIP3    H279599   1.626   5.051   3.899  1.4697  0.8188  0.0564
19370TIP3   OH279600   1.056   1.432  12.070 -0.1447  0.2204 -0.4270
19370TIP3    H179601   1.045   1.526  12.083 -0.4397  0.3310 -1.3631
19370TIP3    H279602   1.005   1.392  12.140  0.8955  0.7494  0.6450
19371TIP3   OH279603   0.462   0.804  12.894 -0.6236 -0.2827  0.3339
19371TIP3    H179604   0.455   0.838  12.805  1.7691 -2.8893 -1.0165
19371TIP3    H279605   0.402   0.729  12.896 -0.3049 -0.5339  0.7550
19372TIP3   OH279606   3.788   1.173   4.314 -0.7165  0.0489  0.2573
19372TIP3    H179607   3.784   1.114   4.389 -0.6624 -0.1101  0.1370
19372TIP3    H279608   3.787   1.261   4.351  0.0109 -0.0315  0.4767
19373TIP3   OH279609   1.824   6.119   2.294  0.5432 -0.3097  0.1395
19373TIP3    H179610   1.879   6.180   2.244  1.2238 -1.8421 -1.0714
19373TIP3    H279611   1.822   6.040   2.240 -0.3263 -1.3511  1.6468
19374TIP3   OH279612   6.508   3.082  12.295 -0.0434 -0.3537  0.6901
19374TIP3    H179613   6.582   3.111  12.242  1.3661  0.2495  2.8687
19374TIP3    H279614   6.453   3.033  12.234  1.7503 -0.1838 -1.1807
19375TIP3   OH279615   4.408   5.615   3.419  0.2483  0.2235 -0.7042
19375TIP3    H179616   4.359   5.609   3.501 -0.1378 -2.7318 -1.0299
19375TIP3    H279617   4.348   5.580   3.353  1.0467  1.2539 -2.0517
19376TIP3   OH279618   0.218   0.000  15.578 -0.2316 -0.1336 -0.3940
19376TIP3    H179619   0.266   0.068  15.531 -1.2077 -0.4052 -1.8391
19376TIP3    H279620   0.145   0.047  15.620 -1.3645 -0.3356 -2.0330
19377TIP3   OH279621   2.376   2.378  11.983  0.2075 -0.0710  0.3210
19377TIP3    H179622   2.428   2.299  11.970 -0.2892 -0.5399  1.0498
19377TIP3    H279623   2.440   2.448  11.997  0.7453  0.1836 -2.7017
19378TIP3   OH279624   1.917   5.725   0.253 -0.1733 -0.4847  0.4082
19378TIP3    H179625   1.955   5.788   0.314  1.5550 -0.5431 -0.5553
19378TIP3    H279626   1.958   5.642   0.274 -0.3967 -0.7294 -0.0965
19379TIP3   OH279627   0.074   4.866   4.739  0.0296 -0.5850  0.5975
19379TIP3    H179628   0.143   4.804   4.762 -0.7122 -1.4622  0.5156
19379TIP3    H279629   0.077   4.870   4.643  0.7104  0.2606  0.6442
19380TIP3   OH279630   0.938   4.271  15.551  0.1292 -0.5792  0.0802
19380TIP3    H179631   0.971   4.360  15.539  0.2773 -0.6440  0.0053
19380TIP3    H279632   0.988   4.236  15.624 -2.2626  0.5559  2.4480
19381TIP3   OH279633   1.796   4.855   5.073  0.3575  0.4750  0.2835
19381TIP3    H179634   1.745   4.915   5.019  0.9699  1.5839  0.9122
19381TIP3    H279635   1.813   4.780   5.016  0.1728  1.1952 -0.7397
19382TIP3   OH279636   2.394   2.453  16.336 -0.2370 -0.5083  0.4590
19382TIP3    H179637   2.361   2.493  16.416  1.2275  2.4662 -0.2701
19382TIP3    H279638   2.317   2.439  16.282 -0.9292  0.5610  1.1334
19383TIP3   OH279639   4.714   5.008  13.045  0.0978 -0.1125 -0.0500
19383TIP3    H179640   4.741   4.979  12.958  0.1135 -1.4881  0.3839
19383TIP3    H279641   4.700   5.102  13.036 -0.2259 -0.2842 -1.6150
19384TIP3   OH279642   0.469   0.763  15.892 -0.1744  0.0661  0.0943
19384TIP3    H179643   0.484   0.678  15.934  2.1561  0.4057  0.0430
19384TIP3    H279644   0.501   0.827  15.955  0.0789  0.7940 -0.7511
19385TIP3   OH279645   4.286   6.305  16.231  0.2471  0.2531 -0.6390
19385TIP3    H179646   4.231   6.286  16.155  0.7126  0.6652 -1.0890
19385TIP3    H279647   4.373   6.276  16.204  0.8104  2.1351 -1.0158
19386TIP3   OH279648   1.916   0.718  15.056  0.0736  1.2069 -0.0705
19386TIP3    H179649   1.981   0.662  15.097 -1.9826  0.3928  2.3508
19386TIP3    H279650   1.914   0.690  14.965 -0.3449 -2.2584  0.8645
19387TIP3   OH279651   1.103   0.138  11.702  0.3067  0.5047 -0.2663
19387TIP3    H179652   1.038   0.080  11.741 -0.3562  0.4564 -1.3931
19387TIP3    H279653   1.174   0.142  11.766  0.4661 -1.7282 -0.2125
19388TIP3   OH279654   1.023   3.675   4.969 -0.0523 -0.0788 -0.1124
19388TIP3    H179655   0.938   3.652   5.006  0.8619 -0.4031  1.8960
19388TIP3    H279656   1.087   3.647   5.035  1.5776  0.8478 -1.2239
19389TIP3   OH279657   0.553   2.713   2.899 -0.1385 -0.1204  0.1576
19389TIP3    H179658   0.538   2.785   2.961 -2.1090 -1.6956  1.6357
19389TIP3    H279659   0.547   2.753   2.813 -2.2215  1.3400  0.9253
19390TIP3   OH279660   6.114   5.476   2.284 -0.4748 -0.5453  0.3260
19390TIP3    H179661   6.209   5.467   2.282 -0.4230 -0.4237  1.6573
19390TIP3    H279662   6.085   5.438   2.201  0.6571 -1.5971  0.3844
19391TIP3   OH279663   2.374   1.315   4.233  0.2288 -0.3624 -0.2144
19391TIP3    H179664   2.459   1.296   4.271 -0.4131  0.0239  1.4837
19391TIP3    H279665   2.393   1.348   4.145  1.6659 -3.0978 -1.0302
19392TIP3   OH279666   3.636   3.663   1.750 -0.2675  0.1250 -0.9784
19392TIP3    H179667   3.607   3.589   1.804 -1.1960  0.4479 -1.0172
19392TIP3    H279668   3.566   3.728   1.758  0.6659  1.1259 -0.7242
19393TIP3   OH279669   5.080   5.877   2.430  0.2339 -0.2077  0.3632
19393TIP3    H179670   5.008   5.929   2.464  0.0913 -0.1682  0.0055
19393TIP3    H279671   5.063   5.788   2.462 -0.4215 -0.3619 -0.4010
19394TIP3   OH279672   1.663   0.511   6.471  0.2310  0.0951  0.8180
19394TIP3    H179673   1.705   0.581   6.422 -2.7743  2.3743  1.1902
19394TIP3    H279674   1.626   0.453   6.404  1.5589 -0.4202  0.5017
19395TIP3   OH279675   2.365   2.132  16.617 -0.3177 -0.2072  0.4917
19395TIP3    H179676   2.442   2.188  16.623  0.0456 -0.6322 -0.1055
19395TIP3    H279677   2.317   2.165  16.542  0.1171 -0.9549 -0.1248
19396TIP3   OH279678   1.215   0.329  16.637 -0.1740 -0.2622  0.4033
19396TIP3    H179679   1.130   0.305  16.673 -0.2389  1.5714  1.6414
19396TIP3    H279680   1.269   0.347  16.715  0.8975 -0.0090 -0.3809
19397TIP3   OH279681   4.278   4.023  11.481 -0.2452 -0.0169  0.1183
19397TIP3    H179682   4.294   4.116  11.496 -0.6570 -0.0083  0.5366
19397TIP3    H279683   4.352   3.994  11.428 -0.0666  0.5286  0.0646
19398TIP3   OH279684   2.638   3.828  12.974  0.4103  0.2445  0.0093
19398TIP3    H179685   2.551   3.868  12.977  0.8724  1.2314  0.9436
19398TIP3    H279686   2.644   3.776  13.054  0.9539  0.8141  0.3503
19399TIP3   OH279687   0.092   6.321  16.367  0.8095  0.2470  0.3688
19399TIP3    H179688   0.168   6.363  16.408  1.6987 -0.6981 -0.2596
19399TIP3    H279689   0.123   6.294  16.280  0.0894 -1.1082  0.4962
19400TIP3   OH279690   1.980   6.394   1.835  0.5177 -0.4335  0.0110
19400TIP3    H179691   2.057   6.434   1.875  0.8046 -0.8958 -0.0704
19400TIP3    H279692   1.988   6.301   1.855  0.2600 -0.5597 -0.4523
19401TIP3   OH279693   3.869   3.445   0.974 -0.7588 -0.2811  0.1535
19401TIP3    H179694   3.931   3.424   0.904  0.9596  0.8312  1.2726
19401TIP3    H279695   3.847   3.360   1.013  0.0667 -0.6875 -0.2498
19402TIP3   OH279696   1.207   3.614   0.969  0.8389  0.3837 -0.4624
19402TIP3    H179697   1.290   3.647   1.005 -0.5231  1.4622  1.8759
19402TIP3    H279698   1.203   3.523   0.998  0.1318  1.0182  1.5601
19403TIP3   OH279699   2.635   5.383  11.201  0.3556 -0.4933 -0.1954
19403TIP3    H179700   2.633   5.296  11.160  0.8809 -0.6836  0.1763
19403TIP3    H279701   2.672   5.439  11.133  1.0744 -0.7787 -0.0449
19404TIP3   OH279702   1.509   3.144   4.103 -0.1889  0.0068  0.1252
19404TIP3    H179703   1.551   3.058   4.105  2.2063  1.0609 -0.8392
19404TIP3    H279704   1.535   3.186   4.185  0.9346  0.7415 -0.5708
19405TIP3   OH279705   0.919   0.706   4.439 -0.2758  0.5338  0.2361
19405TIP3    H179706   0.844   0.661   4.402  0.8146  1.0320 -2.8931
19405TIP3    H279707   0.886   0.793   4.462 -1.1951 -0.0939  1.4013
19406TIP3   OH279708   5.069   5.942   5.155 -0.4718 -0.0299  0.4192
19406TIP3    H179709   5.001   5.878   5.132  0.4135 -1.1859  0.8909
19406TIP3    H279710   5.094   5.918   5.245  0.9717 -0.0310  0.0417
19407TIP3   OH279711   6.781   4.857  16.136 -0.1275 -0.0858  0.3120
19407TIP3    H179712   6.719   4.784  16.136 -1.7562  1.2254  0.5328
19407TIP3    H279713   6.752   4.913  16.207 -1.4774  2.7516 -2.2386
19408TIP3   OH279714   0.229   6.749   1.779  0.2142  0.1044  0.0512
19408TIP3    H179715   0.282   6.675   1.747 -0.9711 -1.1213  0.7937
19408TIP3    H279716   0.268   6.826   1.738  0.7138 -1.0575 -1.7956
19409TIP3   OH279717   0.917   6.423   2.883  0.5222 -0.2825 -0.2143
19409TIP3    H179718   0.992   6.481   2.896  0.6447 -0.4427 -0.1949
19409TIP3    H279719   0.841   6.481   2.886  0.7323  0.1408 -1.9331
19410TIP3   OH279720   3.465   5.232   0.407  0.2429  0.2526  0.1465
19410TIP3    H179721   3.456   5.256   0.315  1.1718 -1.1652 -0.3410
19410TIP3    H279722   3.506   5.146   0.406 -0.2798 -0.0661  1.8830
19411TIP3   OH279723   6.083   0.821  12.652 -0.4738 -0.6872  0.6207
19411TIP3    H179724   6.026   0.893  12.677 -0.1414 -0.4492  0.6872
19411TIP3    H279725   6.023   0.755  12.615 -0.5781  0.3727 -1.1889
19412TIP3   OH279726   3.182   3.331   5.130 -0.0390  0.3325  0.3442
19412TIP3    H179727   3.112   3.269   5.114  0.2469 -0.1078  0.7613
19412TIP3    H279728   3.208   3.315   5.221 -0.1112  1.2154  0.5306
19413TIP3   OH279729   5.655   6.025  16.846  0.0532 -0.0183  0.0937
19413TIP3    H179730   5.629   6.086  16.915  0.9187  1.7858 -1.0893
19413TIP3    H279731   5.597   6.046  16.773  0.4455 -0.5541 -0.3773
19414TIP3   OH279732   1.888   5.856  12.663 -0.0480 -0.2764 -0.1912
19414TIP3    H179733   1.897   5.763  12.682  1.3813 -0.5953 -2.0905
19414TIP3    H279734   1.942   5.869  12.585  0.8820  2.4233  0.8033
19415TIP3   OH279735   2.655   0.475   3.500 -0.2855  0.4014 -0.7871
19415TIP3    H179736   2.636   0.482   3.406 -0.6995  2.1049 -0.6083
19415TIP3    H279737   2.601   0.401   3.529  0.4219 -0.6466 -2.0011
19416TIP3   OH279738   4.259   6.198   2.469  0.1167 -0.0205 -0.2561
19416TIP3    H179739   4.222   6.123   2.516  0.7534 -1.0833 -1.3967
19416TIP3    H279740   4.288   6.162   2.385 -0.1450  1.6387 -1.1048
19417TIP3   OH279741   1.427   3.316   2.381  0.1578  0.4376  0.2673
19417TIP3    H179742   1.410   3.371   2.458  2.9903 -0.3044  1.5696
19417TIP3    H279743   1.381   3.235   2.399 -0.1510  0.6877  0.6320
19418TIP3   OH279744   2.521   0.300   3.885 -0.5819 -0.7112  0.3209
19418TIP3    H179745   2.437   0.256   3.893  0.2183 -2.1659  1.1496
19418TIP3    H279746   2.577   0.258   3.950  0.3958  1.2201  0.8177
19419TIP3   OH279747   3.116   3.027   2.424  0.1957 -0.3829 -0.1218
19419TIP3    H179748   3.097   3.118   2.400  0.1124 -0.5715 -0.8084
19419TIP3    H279749   3.150   3.032   2.513  0.2047  0.3249 -0.1582
19420TIP3   OH279750   6.837   4.899  13.242 -0.0493 -0.1891  0.1313
19420TIP3    H179751   6.799   4.982  13.271 -0.9570 -0.5723  0.0747
19420TIP3    H279752   6.880   4.920  13.159 -0.7645  0.1121 -0.1722
19421TIP3   OH279753   5.113   0.218  16.207  0.2689  0.0042 -0.2055
19421TIP3    H179754   5.082   0.290  16.262 -0.7275  0.6093 -1.5149
19421TIP3    H279755   5.096   0.139  16.259 -1.4853  0.4816  0.0183
19422TIP3   OH279756   5.320   6.489  12.364 -0.3801 -0.0890  0.0117
19422TIP3    H179757   5.265   6.550  12.413 -1.9389 -1.0232 -0.5099
19422TIP3    H279758   5.278   6.481  12.278  1.5585  0.5014 -1.0566
19423TIP3   OH279759   4.946   3.426  13.213 -0.3794 -0.7455 -0.0293
19423TIP3    H179760   4.986   3.513  13.217 -0.1830 -0.4418 -4.1658
19423TIP3    H279761   5.018   3.366  13.235  0.6854  0.0276 -1.2545
19424TIP3   OH279762   3.340   0.145   2.837 -0.1138  0.9590  0.0252
19424TIP3    H179763   3.390   0.225   2.818 -0.3367  1.2108  0.4945
19424TIP3    H279764   3.250   0.175   2.846 -0.0270  0.8650  1.4775
19425TIP3   OH279765   2.840   4.851  13.183 -0.7425 -0.2124 -0.5075
19425TIP3    H179766   2.928   4.888  13.184 -1.2987  1.1969  1.2008
19425TIP3    H279767   2.815   4.849  13.090  0.8297 -0.0672 -0.9582
19426TIP3   OH279768   2.226   6.102   5.347  0.0148  0.1185  0.3608
19426TIP3    H179769   2.277   6.106   5.266 -0.4478 -1.4626 -0.0450
19426TIP3    H279770   2.284   6.139   5.414  1.2605 -0.5476 -0.3058
19427TIP3   OH279771   1.653   5.527   3.905  0.0883 -0.0557  0.3622
19427TIP3    H179772   1.669   5.621   3.901  0.4809 -0.1133  0.5344
19427TIP3    H279773   1.665   5.504   3.997  0.4233 -0.3510  0.2454
19428TIP3   OH279774   1.890   3.579   6.121 -0.6064 -0.6339 -1.2703
19428TIP3    H179775   1.818   3.640   6.107 -0.9221 -0.1863  1.6272
19428TIP3    H279776   1.860   3.496   6.082 -2.9849 -0.6062  0.2962
19429TIP3   OH279777   4.732   0.627  13.177 -0.3628  0.2620 -0.3082
19429TIP3    H179778   4.792   0.603  13.247  0.1157  0.3966 -0.6661
19429TIP3    H279779   4.645   0.618  13.216 -0.0810  1.5814  0.7109
19430TIP3   OH279780   4.165   5.179  13.375 -0.0503  0.4759  0.4973
19430TIP3    H179781   4.078   5.139  13.376  0.5431 -0.8800  0.6483
19430TIP3    H279782   4.217   5.120  13.321  1.7416 -0.9374  3.4892
19431TIP3   OH279783   6.553   6.296  13.152  0.0654  0.2150  0.1344
19431TIP3    H179784   6.564   6.234  13.224  0.0608 -0.6500 -0.5842
19431TIP3    H279785   6.544   6.381  13.194 -1.9589 -0.4865  1.2834
19432TIP3   OH279786   6.585   4.528  14.710 -0.0149 -0.9137 -0.0350
19432TIP3    H179787   6.678   4.520  14.685  0.1862 -2.0562  0.9733
19432TIP3    H279788   6.551   4.439  14.705 -0.3949 -0.9450  2.0113
19433TIP3   OH279789   0.213   3.091   2.429  0.3213 -0.1280  0.5375
19433TIP3    H179790   0.241   3.023   2.367  0.3971  0.5710 -0.2127
19433TIP3    H279791   0.157   3.149   2.377 -0.6407 -0.2123  1.4425
19434TIP3   OH279792   3.676   1.759   3.753  0.0371 -0.2197  0.4926
19434TIP3    H179793   3.725   1.732   3.675 -1.5089 -2.0185  0.0659
19434TIP3    H279794   3.608   1.817   3.719  0.6563  0.7241  0.8258
19435TIP3   OH279795   0.953   0.571  11.241  0.2548  0.2780  0.1487
19435TIP3    H179796   0.876   0.565  11.299  0.0338 -0.9327 -0.2575
19435TIP3    H279797   0.916   0.578  11.153  0.6097  1.2215  0.0552
19436TIP3   OH279798   3.529   0.373   2.699  0.0742  0.1782  0.4792
19436TIP3    H179799   3.620   0.372   2.728  0.8502  0.8358 -1.7696
19436TIP3    H279800   3.532   0.405   2.609 -2.3165 -0.4718  0.0910
19437TIP3   OH279801   1.408   0.774   2.587  0.1236  0.5964 -0.3056
19437TIP3    H179802   1.446   0.686   2.585 -2.1793 -0.7291  3.8123
19437TIP3    H279803   1.473   0.827   2.632  0.3231  0.3115 -0.2563
19438TIP3   OH279804   1.968   4.330  16.069 -0.1091 -0.2784  0.1629
19438TIP3    H179805   1.946   4.292  15.984 -0.7312 -3.6048  1.6654
19438TIP3    H279806   1.901   4.296  16.129  1.9364 -0.4705  2.5053
19439TIP3   OH279807   5.606   2.535   0.996  0.0993  0.1312  0.7895
19439TIP3    H179808   5.560   2.562   0.917 -0.0874 -2.7746 -0.2081
19439TIP3    H279809   5.694   2.571   0.985 -0.1087  0.3178 -0.4400
19440TIP3   OH279810   4.001   6.313  13.112  0.3087 -0.7625 -0.7971
19440TIP3    H179811   3.968   6.226  13.136 -0.8640  0.1786  1.2404
19440TIP3    H279812   4.088   6.296  13.077  0.0027 -2.7782 -0.7298
19441TIP3   OH279813   2.232   3.359  13.677  0.6174 -0.4599  0.4438
19441TIP3    H179814   2.260   3.275  13.711 -1.5778 -0.7958  1.5880
19441TIP3    H279815   2.158   3.339  13.619  0.4081  0.6171  0.3041
19442TIP3   OH279816   0.438   3.659   4.799  0.8349 -0.1032 -0.5632
19442TIP3    H179817   0.444   3.736   4.742  0.3004 -0.3852 -1.0002
19442TIP3    H279818   0.346   3.635   4.797 -0.1518  2.2987  3.6308
19443TIP3   OH279819   5.294   4.803  13.216  0.1720  0.7311  0.6430
19443TIP3    H179820   5.342   4.747  13.277 -0.1001  0.9531  1.0624
19443TIP3    H279821   5.302   4.758  13.131 -0.3082 -0.1144  1.0356
19444TIP3   OH279822   5.296   3.625   3.205 -0.2490 -0.0801  0.9948
19444TIP3    H179823   5.230   3.558   3.217  0.8758 -1.6605 -1.0320
19444TIP3    H279824   5.379   3.579   3.217  0.6723  0.1329 -3.1975
19445TIP3   OH279825   3.376   3.926   6.193 -0.0677  0.4160 -0.0643
19445TIP3    H179826   3.435   3.893   6.261 -0.1059 -1.4571 -0.8892
19445TIP3    H279827   3.335   3.848   6.157 -0.6920  1.4406 -1.6760
19446TIP3   OH279828   1.790   2.675   0.309  0.1306  0.3469 -0.3658
19446TIP3    H179829   1.826   2.586   0.305 -0.7420 -0.0356 -0.0744
19446TIP3    H279830   1.780   2.692   0.403  1.0019  1.0643 -0.3877
19447TIP3   OH279831   4.506   6.255  12.220 -0.3553  0.1271 -0.0281
19447TIP3    H179832   4.432   6.297  12.263 -0.2025  0.9179 -0.5012
19447TIP3    H279833   4.542   6.196  12.286 -0.0249  1.4196  0.9935
19448TIP3   OH279834   6.079   6.680  16.309 -0.1974  0.5596  0.3709
19448TIP3    H179835   6.060   6.602  16.362  0.0627  0.1092 -0.1867
19448TIP3    H279836   6.170   6.668  16.282 -0.8418 -0.1106 -1.6583
19449TIP3   OH279837   1.734   2.151  15.728  0.7360  0.1381  0.0406
19449TIP3    H179838   1.730   2.246  15.719  0.0334  0.1585  0.5244
19449TIP3    H279839   1.792   2.123  15.657  1.3863  0.9720  0.2283
19450TIP3   OH279840   1.239   3.865  14.493  0.1748 -0.1892  0.0862
19450TIP3    H179841   1.232   3.881  14.399  0.7242  1.0121  0.2372
19450TIP3    H279842   1.294   3.787  14.500  0.8848  0.2443 -0.5764
19451TIP3   OH279843   1.720   6.127  15.018 -0.8982 -0.9740 -0.1311
19451TIP3    H179844   1.724   6.050  14.962  0.5730 -0.5784 -0.6363
19451TIP3    H279845   1.630   6.130  15.050 -1.2480 -2.3010 -0.9284
19452TIP3   OH279846   1.209   6.504  13.419  1.0407  0.4583 -0.1845
19452TIP3    H179847   1.188   6.592  13.450  0.6179  0.5438 -0.7076
19452TIP3    H279848   1.303   6.507  13.400  1.3553  0.3545  1.2319
19453TIP3   OH279849   4.819   1.339  11.384  0.0445  0.1818  0.5358
19453TIP3    H179850   4.768   1.419  11.390  1.7697  1.5271 -1.2749
19453TIP3    H279851   4.804   1.307  11.294  0.2264 -0.9184  0.8750
19454TIP3   OH279852   6.821   2.985  15.008 -0.2700 -0.0612  0.1830
19454TIP3    H179853   6.761   3.059  15.012  0.2851  0.3859  0.3354
19454TIP3    H279854   6.879   3.005  14.935 -1.0546 -1.0774 -0.7563
19455TIP3   OH279855   1.381   5.309  13.134 -0.0786 -0.5174 -0.0328
19455TIP3    H179856   1.442   5.339  13.201  0.9024 -1.3986 -0.4930
19455TIP3    H279857   1.425   5.234  13.094 -0.6462 -0.0361 -1.6442
19456TIP3   OH279858   0.843   5.409  12.816  0.0756  0.7063 -0.4363
19456TIP3    H179859   0.778   5.348  12.851  1.1195  0.4837  1.2072
19456TIP3    H279860   0.820   5.494  12.854  0.5878  0.6730 -0.0423
19457TIP3   OH279861   6.471   5.266  10.543 -0.4001 -0.1919 -0.0654
19457TIP3    H179862   6.376   5.259  10.542 -0.2830 -2.5164  0.6616
19457TIP3    H279863   6.502   5.177  10.525  1.6637  0.7747 -1.7160
19458TIP3   OH279864   5.570   5.204  14.868  0.2685  0.0640  0.2766
19458TIP3    H179865   5.475   5.207  14.879  0.1936 -0.5765 -0.1793
19458TIP3    H279866   5.595   5.295  14.848 -0.3276  0.1227 -0.2198
19459TIP3   OH279867   1.418   5.021   2.976  0.2386 -0.8057 -0.3792
19459TIP3    H179868   1.422   4.968   3.056  1.2149 -0.0935  0.0770
19459TIP3    H279869   1.367   5.098   3.001  2.6703  0.6697  0.3949
19460TIP3   OH279870   6.212   1.487   3.082 -0.7882  0.6095 -0.1219
19460TIP3    H179871   6.307   1.501   3.090 -0.5255 -1.4045  1.0385
19460TIP3    H279872   6.195   1.488   2.988  0.0009  2.9546 -0.3115
19461TIP3   OH279873   0.133   4.359   2.234 -0.2284 -0.1384  0.3809
19461TIP3    H179874   0.165   4.428   2.176 -1.0131  0.0100  0.1059
19461TIP3    H279875   0.191   4.362   2.310 -0.4760  1.0927  0.5459
19462TIP3   OH279876   1.244   2.146   2.136 -0.2251  0.1565  0.3927
19462TIP3    H179877   1.285   2.124   2.220 -0.5321 -1.7604  0.0966
19462TIP3    H279878   1.315   2.181   2.083 -0.0920  1.7087  1.5275
19463TIP3   OH279879   1.416   4.294   5.422  0.3779 -0.1873  0.0396
19463TIP3    H179880   1.425   4.203   5.395  2.0057  0.2382 -0.9662
19463TIP3    H279881   1.496   4.337   5.392 -0.2261  1.5288  0.7253
19464TIP3   OH279882   3.608   4.573  16.764  0.3812 -0.2675  0.5197
19464TIP3    H179883   3.685   4.521  16.790  1.8254  0.3512 -2.1472
19464TIP3    H279884   3.638   4.663  16.770 -0.3540  0.0087  0.0433
19465TIP3   OH279885   6.713   5.718   3.463 -0.0178  0.0287 -0.2833
19465TIP3    H179886   6.757   5.793   3.424 -0.7886  0.9804  0.6336
19465TIP3    H279887   6.785   5.660   3.491  0.5853  0.6415 -0.5335
19466TIP3   OH279888   2.816   0.080   0.880 -0.1503  0.2882 -0.0196
19466TIP3    H179889   2.816   0.176   0.872  0.5172  0.2812 -0.1337
19466TIP3    H279890   2.849   0.064   0.969  1.0895  0.1324 -0.4964
19467TIP3   OH279891   4.274   6.012  11.689 -0.5716 -0.4520  0.2243
19467TIP3    H179892   4.231   6.098  11.694 -0.9959 -0.5808 -0.9218
19467TIP3    H279893   4.346   6.025  11.627  0.5961 -0.4412  1.5395
19468TIP3   OH279894   2.489   3.253   0.114  0.7785  0.3820  0.0173
19468TIP3    H179895   2.519   3.340   0.142  0.9017 -0.1498  1.6262
19468TIP3    H279896   2.474   3.263   0.020  0.1002  2.3540  0.2738
19469TIP3   OH279897   3.334   2.184  16.182  0.0579 -0.4913  0.2556
19469TIP3    H179898   3.295   2.179  16.269 -1.0379  0.2655 -0.1666
19469TIP3    H279899   3.379   2.269  16.181 -0.1643 -0.3725  0.0060
19470TIP3   OH279900   3.335   5.226  16.825 -0.2684  0.0202  0.1583
19470TIP3    H179901   3.344   5.133  16.806 -1.2590  0.0432 -0.5249
19470TIP3    H279902   3.308   5.265  16.742 -1.7098  0.6167  0.8519
19471TIP3   OH279903   1.904   1.707   2.073  0.2787  0.6684 -0.0306
19471TIP3    H179904   1.976   1.747   2.122  0.0805  0.7554  0.1945
19471TIP3    H279905   1.938   1.622   2.045  0.2472  0.4319  0.6343
19472TIP3   OH279906   6.732   4.075  14.531 -0.1798  0.6838 -0.1730
19472TIP3    H179907   6.783   3.994  14.537 -0.7382  0.3662  0.3985
19472TIP3    H279908   6.641   4.046  14.534 -0.4368  1.1830 -1.8971
19473TIP3   OH279909   5.457   4.289  13.209  0.2587  0.0110  0.7752
19473TIP3    H179910   5.502   4.288  13.293  1.1315 -1.5625  0.3395
19473TIP3    H279911   5.471   4.378  13.175  2.6817 -0.2630  0.8886
19474TIP3   OH279912   0.523   5.114   4.576  0.2633 -0.0778 -0.4187
19474TIP3    H179913   0.431   5.091   4.592  0.0187  0.7571 -0.5620
19474TIP3    H279914   0.569   5.030   4.578 -0.3358 -0.4076  0.7132
19475TIP3   OH279915   0.806   5.204   3.242  0.1350  0.1728 -0.4138
19475TIP3    H179916   0.717   5.220   3.274  0.1127  0.5468 -0.6597
19475TIP3    H279917   0.798   5.207   3.147 -0.1266 -2.6762 -0.5510
19476TIP3   OH279918   1.678   6.525  16.157 -0.0807 -0.2650 -0.5314
19476TIP3    H179919   1.754   6.583  16.150  0.4661 -0.7180  1.2599
19476TIP3    H279920   1.690   6.461  16.086  0.8716  0.0458 -0.6621
19477TIP3   OH279921   5.859   5.496   5.683 -0.5038 -0.8182  0.0147
19477TIP3    H179922   5.885   5.530   5.597 -0.4591  0.1679  0.4017
19477TIP3    H279923   5.904   5.411   5.689  0.2346 -0.4910 -0.5581
19478TIP3   OH279924   5.614   4.700   2.344 -0.2105 -0.2426  0.0822
19478TIP3    H179925   5.615   4.795   2.356  1.9974 -0.1533 -0.4388
19478TIP3    H279926   5.541   4.670   2.398 -0.6650  1.7003  0.6275
19479TIP3   OH279927   0.361   6.140   6.175 -0.0082 -0.0643  0.2996
19479TIP3    H179928   0.391   6.060   6.218 -1.0580 -0.1755  0.8508
19479TIP3    H279929   0.386   6.210   6.235 -0.8037 -0.1536  0.7416
19480TIP3   OH279930   3.080   2.482   0.609  0.1691  0.1592  0.4005
19480TIP3    H179931   3.108   2.484   0.517  1.4570  0.2376  0.7754
19480TIP3    H279932   3.111   2.397   0.641 -1.7957 -0.6375  0.3285
19481TIP3   OH279933   4.224   4.997  10.973 -0.3359 -0.2051 -0.0279
19481TIP3    H179934   4.186   5.085  10.978 -1.1566 -0.5988  1.7322
19481TIP3    H279935   4.296   4.999  11.036  0.7665 -0.3156 -1.2517
19482TIP3   OH279936   6.387   1.029   0.080  0.0299 -0.3660 -0.1276
19482TIP3    H179937   6.397   0.944   0.124 -1.2650  0.0687  1.0923
19482TIP3    H279938   6.319   1.074   0.131  1.3177  1.7820 -0.2076
19483TIP3   OH279939   6.295   4.985   1.243 -0.0532 -0.2638 -0.3371
19483TIP3    H179940   6.275   4.893   1.224  1.4727 -0.9023  0.9742
19483TIP3    H279941   6.243   5.034   1.179  0.1752 -2.0685 -2.0031
19484TIP3   OH279942   5.575   6.498  16.443 -0.2308 -0.0698  0.4952
19484TIP3    H179943   5.610   6.496  16.354  0.8761 -0.2865  0.9178
19484TIP3    H279944   5.577   6.406  16.472 -0.3673  0.0251  0.8150
19485TIP3   OH279945   0.917   2.047  15.358 -0.2651  0.7153  0.6431
19485TIP3    H179946   0.972   1.989  15.305 -2.0574 -0.1331 -0.3611
19485TIP3    H279947   0.921   2.131  15.314  2.1377  1.3935  1.9582
19486TIP3   OH279948   5.882   1.869   0.601 -0.1980 -0.7105 -0.0226
19486TIP3    H179949   5.876   1.824   0.686 -0.0006  0.1573  0.4676
19486TIP3    H279950   5.948   1.936   0.615 -3.3013  2.5443  0.6233
19487TIP3   OH279951   2.494   0.416  10.917 -0.2082  0.4224  0.0053
19487TIP3    H179952   2.477   0.505  10.887 -2.4821  0.4468  1.1455
19487TIP3    H279953   2.587   0.402  10.899 -0.7406  1.2808 -4.5709
19488TIP3   OH279954   3.681   1.327   3.014  0.1277  0.3631 -0.1547
19488TIP3    H179955   3.645   1.252   3.061  0.3656 -0.1896 -0.8313
19488TIP3    H279956   3.754   1.291   2.964  0.6278  1.1695 -0.0158
19489TIP3   OH279957   5.079   1.300  16.278  0.2445  0.2567 -0.3039
19489TIP3    H179958   5.041   1.388  16.270  0.9261  0.6652  0.7738
19489TIP3    H279959   5.008   1.246  16.312 -0.1448  0.4085 -0.8619
19490TIP3   OH279960   1.128   1.512  11.133  0.1134  0.5466 -0.5114
19490TIP3    H179961   1.179   1.509  11.214 -1.5581 -1.8887  0.5987
19490TIP3    H279962   1.191   1.534  11.065  1.9159  1.0360  1.2247
19491TIP3   OH279963   0.843   0.491  16.704 -0.3346 -0.1100  0.0224
19491TIP3    H179964   0.842   0.472  16.798  2.7131 -0.1833  0.1399
19491TIP3    H279965   0.900   0.567  16.695 -2.1881  1.1906 -1.6606
19492TIP3   OH279966   4.698   1.148   1.782 -0.1756 -0.5326  0.4670
19492TIP3    H179967   4.721   1.135   1.874 -1.3727 -1.1430  0.6919
19492TIP3    H279968   4.673   1.061   1.750 -0.0493 -0.2767 -0.3701
19493TIP3   OH279969   3.635   6.128  15.882  0.1063 -0.0600 -0.3963
19493TIP3    H179970   3.568   6.130  15.814 -1.2135  0.1171  0.8732
19493TIP3    H279971   3.717   6.147  15.835 -0.5117 -1.5319 -2.1905
19494TIP3   OH279972   6.430   2.836  14.837  0.0235 -0.1588  0.3383
19494TIP3    H179973   6.427   2.898  14.910 -2.5043  1.2128 -0.8088
19494TIP3    H279974   6.338   2.820  14.815  0.6435  0.1785 -3.0671
19495TIP3   OH279975   4.013   5.979   5.123  0.3626 -0.2873  0.0789
19495TIP3    H179976   3.954   5.927   5.067 -0.3323 -2.5770  2.6728
19495TIP3    H279977   3.956   6.044   5.163 -0.1518 -1.4569  1.3417
19496TIP3   OH279978   0.520   2.027   2.958 -0.2440  0.1900  0.0661
19496TIP3    H179979   0.457   2.024   3.030  0.0875 -1.4793  0.3197
19496TIP3    H279980   0.473   1.992   2.883 -0.6141  1.9981 -0.6082
19497TIP3   OH279981   3.108   3.796  15.182  0.6079 -0.1241  0.4607
19497TIP3    H179982   3.197   3.769  15.159 -0.1335  0.1064 -3.4225
19497TIP3    H279983   3.052   3.730  15.140 -1.0595  1.6400 -0.2209
19498TIP3   OH279984   3.327   1.363   0.830  0.0249  0.7799  0.2399
19498TIP3    H179985   3.349   1.416   0.754 -0.7985  1.2022  0.2797
19498TIP3    H279986   3.232   1.349   0.823 -0.5200  2.7552  2.3554
19499TIP3   OH279987   0.128   2.486   5.209 -0.2340  0.0820  0.0764
19499TIP3    H179988   0.142   2.580   5.205 -1.6512  0.3105  0.1253
19499TIP3    H279989   0.114   2.467   5.301  4.2768 -0.8941  0.8059
19500TIP3   OH279990   4.442   1.406  13.429  0.0783  0.2440  0.6343
19500TIP3    H179991   4.501   1.473  13.463  0.6100  0.2301 -0.2347
19500TIP3    H279992   4.495   1.326  13.427 -0.3618 -0.0699  1.0540
19501TIP3   OH279993   1.920   1.582   3.457  0.2411 -0.5933  0.4062
19501TIP3    H179994   1.851   1.578   3.524 -0.4135 -0.2650 -0.2321
19501TIP3    H279995   1.961   1.667   3.470 -0.5007 -0.1280 -0.1834
19502TIP3   OH279996   4.456   0.018  14.263  0.2331  0.3065  0.8236
19502TIP3    H179997   4.390   0.087  14.257  0.1895  0.1459 -1.3177
19502TIP3    H279998   4.414  -0.050  14.316 -0.4379  1.1352  1.3908
19503TIP3   OH279999   0.665   6.583   4.640  0.2267  0.1357 -0.2548
19503TIP3    H180000   0.669   6.674   4.610 -0.8614  0.4671  0.5383
19503TIP3    H280001   0.573   6.569   4.661  0.5234 -0.8968  0.4288
19504TIP3   OH280002   4.909   0.702  15.868  0.0712 -0.4018 -0.0329
19504TIP3    H180003   4.834   0.700  15.927  0.9249 -1.0137  1.0683
19504TIP3    H280004   4.936   0.794  15.867 -1.2780  0.0271 -1.2535
19505TIP3   OH280005   0.303   6.822   0.756 -0.0491 -0.1111 -0.2614
19505TIP3    H180006   0.250   6.894   0.721  0.5276  0.5724  0.2569
19505TIP3    H280007   0.265   6.803   0.841  1.3755  1.3531  0.7605
19506TIP3   OH280008   4.279   5.019   5.258 -0.0654 -0.2441 -0.1315
19506TIP3    H180009   4.277   5.046   5.167 -0.5525  1.6314  0.3980
19506TIP3    H280010   4.353   5.066   5.297  0.3411 -1.2692  0.3838
19507TIP3   OH280011   5.723   0.487   4.597  0.0492 -0.3553  0.1074
19507TIP3    H180012   5.658   0.419   4.577  0.2868 -0.6438  0.3024
19507TIP3    H280013   5.674   0.569   4.592 -0.2031 -0.5250 -0.3166
19508TIP3   OH280014   3.659   3.667  14.886  0.4062 -0.4792  0.0263
19508TIP3    H180015   3.699   3.735  14.832  0.3802 -0.4658  0.0240
19508TIP3    H280016   3.694   3.682  14.974  0.3250 -0.4041  0.0456
19509TIP3   OH280017   5.031   5.484  13.295  0.1108 -0.1826 -0.3664
19509TIP3    H180018   4.960   5.433  13.333  0.1170 -0.6789 -0.9967
19509TIP3    H280019   5.085   5.419  13.250  1.5146  0.0436  0.9097
19510TIP3   OH280020   4.092   5.176   1.884 -0.7338 -0.0947 -0.0922
19510TIP3    H180021   4.146   5.137   1.815 -0.2826  0.1680  0.1069
19510TIP3    H280022   4.003   5.150   1.862 -0.5065 -0.7282 -0.3022
19511TIP3   OH280023   0.191   6.498  14.419 -0.0919 -0.0301 -0.1497
19511TIP3    H180024   0.192   6.571  14.356 -0.8017 -0.9141 -1.2409
19511TIP3    H280025   0.140   6.430  14.375 -0.3497 -0.7991  1.2863
19512TIP3   OH280026   0.188   6.692  10.528 -0.1914 -0.2186 -0.4303
19512TIP3    H180027   0.141   6.628  10.581 -2.2114 -0.3026 -2.1625
19512TIP3    H280028   0.254   6.640  10.481  0.9711 -0.2902  1.2152
19513TIP3   OH280029   5.947   1.412  12.907  0.3966  0.2060  0.5689
19513TIP3    H180030   5.989   1.425  12.992 -0.9388  2.4054  0.9570
19513TIP3    H280031   5.926   1.319  12.905  4.5831 -0.9732  0.5851
19514TIP3   OH280032   0.376   1.065   5.055 -0.0921 -0.9621  0.3148
19514TIP3    H180033   0.283   1.083   5.044  0.1925 -0.3885 -1.5574
19514TIP3    H280034   0.415   1.087   4.970  1.7439 -1.2401  1.0300
19515TIP3   OH280035   5.917   6.095   5.443  0.2969  0.0978 -0.5695
19515TIP3    H180036   5.827   6.123   5.426 -0.0812  0.5194  1.7521
19515TIP3    H280037   5.913   6.000   5.443 -0.1446  0.1131 -0.4896
19516TIP3   OH280038   2.380   5.624   2.408 -0.0291  0.2027  0.3363
19516TIP3    H180039   2.286   5.636   2.392  0.1315  2.9045  0.9714
19516TIP3    H280040   2.416   5.713   2.408  2.4766 -0.7333  0.5849
19517TIP3   OH280041   2.453   2.722   0.412  0.4239 -0.0971 -0.1915
19517TIP3    H180042   2.472   2.672   0.492 -0.4293 -0.4781 -0.2185
19517TIP3    H280043   2.531   2.710   0.358  0.5808 -0.7035  0.1594
19518TIP3   OH280044   5.948   2.627   3.859  0.4300 -0.0766 -0.2876
19518TIP3    H180045   5.935   2.668   3.773 -2.6823 -0.1273  0.0541
19518TIP3    H280046   5.861   2.595   3.884  1.5044 -1.2422  2.3132
19519TIP3   OH280047   3.335   3.213   3.993  0.6610 -0.1599 -0.0197
19519TIP3    H180048   3.288   3.282   4.039  0.2580 -0.1743 -0.3935
19519TIP3    H280049   3.421   3.210   4.034  0.8817  0.9355 -0.3605
19520TIP3   OH280050   2.076   1.594   4.447  0.6044 -0.2841  0.1143
19520TIP3    H180051   1.982   1.611   4.442  0.7809  0.4052 -1.4218
19520TIP3    H280052   2.083   1.509   4.491 -0.7505 -0.5024 -0.0591
19521TIP3   OH280053   1.457   6.299   0.537  0.0314  0.1324  0.2456
19521TIP3    H180054   1.512   6.283   0.614  2.7548  3.0447 -0.8747
19521TIP3    H280055   1.425   6.212   0.512  3.3755 -1.6757  1.6146
19522TIP3   OH280056   2.313   4.098   0.878  1.0907  0.5595 -0.5763
19522TIP3    H180057   2.287   4.041   0.951 -1.2909  0.7290 -1.2044
19522TIP3    H280058   2.294   4.186   0.909 -1.0314  0.5597 -1.7576
19523TIP3   OH280059   0.805   4.652  15.205  0.0541 -0.1673 -0.1292
19523TIP3    H180060   0.792   4.649  15.300  1.3940  0.4422  0.0978
19523TIP3    H280061   0.895   4.621  15.192  0.9604  2.4715 -0.9122
19524TIP3   OH280062   2.964   6.024  16.628 -0.4594 -0.1086 -0.2444
19524TIP3    H180063   2.991   6.071  16.549 -0.2241 -0.7633 -0.5624
19524TIP3    H280064   2.992   6.079  16.701 -0.9151  0.6296 -0.6225
19525TIP3   OH280065   2.330   6.276  10.439 -0.6663  0.2561  0.1007
19525TIP3    H180066   2.311   6.266  10.346  0.5251  2.5688 -0.4620
19525TIP3    H280067   2.260   6.331  10.473  0.4673  1.9012 -0.1375
19526TIP3   OH280068   0.550   1.529  12.989 -0.2324  0.1257  0.0593
19526TIP3    H180069   0.518   1.458  12.934  1.0921  1.1056 -2.0940
19526TIP3    H280070   0.640   1.544  12.959 -0.3455  2.4682  0.6840
19527TIP3   OH280071   0.360   1.320   2.934  0.2839  0.5107 -0.2662
19527TIP3    H180072   0.320   1.364   2.860 -1.0964 -0.9103 -0.4307
19527TIP3    H280073   0.286   1.280   2.981  1.3571 -0.7822  0.3992
19528TIP3   OH280074   1.932   4.068  10.833 -0.2022  0.7052 -0.1583
19528TIP3    H180075   1.895   4.098  10.749  1.2498  0.4187 -0.9279
19528TIP3    H280076   1.965   3.980  10.815 -1.6541 -0.1855  1.2766
19529TIP3   OH280077   1.042   4.520   4.144  0.2659  0.4701  0.1378
19529TIP3    H180078   1.132   4.539   4.119 -0.1369  0.1377 -1.7566
19529TIP3    H280079   0.993   4.599   4.122 -0.1591  0.0628 -0.4122
19530TIP3   OH280080   2.928   0.571   0.747  0.1639 -0.6147  0.2624
19530TIP3    H180081   2.942   0.666   0.748 -0.6997 -0.4826  1.5294
19530TIP3    H280082   3.015   0.535   0.732  0.4087  0.3738 -0.9144
19531TIP3   OH280083   0.846   0.945   4.668 -0.9440  0.1166 -0.1153
19531TIP3    H180084   0.814   0.897   4.744 -0.3069  0.7571  0.5722
19531TIP3    H280085   0.940   0.954   4.682 -0.8047  0.1816 -1.0197
19532TIP3   OH280086   6.219   0.788   4.948  0.2329  0.1816  0.5887
19532TIP3    H180087   6.130   0.822   4.964 -0.4733 -1.7825  1.1496
19532TIP3    H280088   6.240   0.741   5.029  1.0982 -0.7805 -0.1841
19533TIP3   OH280089   6.545   6.114   1.684 -0.2428  0.4435 -0.1330
19533TIP3    H180090   6.458   6.104   1.645  0.2874 -0.8750 -1.0681
19533TIP3    H280091   6.606   6.096   1.612  0.7942  0.1543  0.7773
19534TIP3   OH280092   5.085   4.481  13.994  0.0563  0.4318 -0.9773
19534TIP3    H180093   5.127   4.565  14.014 -1.1943  0.7630  0.4818
19534TIP3    H280094   4.997   4.506  13.965 -0.6665 -0.3958  0.4373
19535TIP3   OH280095   5.217   4.082  16.347 -0.3530 -0.1843  0.1051
19535TIP3    H180096   5.158   4.111  16.416 -1.5530 -2.4130  0.1123
19535TIP3    H280097   5.291   4.143  16.351 -1.0700  0.6258  2.3663
19536TIP3   OH280098   2.951   1.275  15.572  0.3049  0.0001 -0.1484
19536TIP3    H180099   2.924   1.363  15.599 -0.2252 -0.2418  0.1470
19536TIP3    H280100   3.031   1.258  15.621 -0.5332 -0.3497  1.1605
19537TIP3   OH280101   4.244   3.819   0.760  0.4719 -0.1191 -0.4410
19537TIP3    H180102   4.188   3.743   0.778  1.9982 -0.8887  1.4223
19537TIP3    H280103   4.271   3.807   0.668 -2.0984  0.1407 -1.3091
19538TIP3   OH280104   2.683   6.006   3.202  0.0094 -0.0479 -0.4816
19538TIP3    H180105   2.659   6.024   3.293 -0.3768 -0.4516 -0.4968
19538TIP3    H280106   2.707   6.091   3.166  2.2782 -0.1786  0.5866
19539TIP3   OH280107   2.534   1.183  16.498 -0.2796 -0.2254  0.1620
19539TIP3    H180108   2.478   1.239  16.552 -0.4673 -1.3374  1.1597
19539TIP3    H280109   2.509   1.093  16.522  1.2397 -0.7492 -0.0991
19540TIP3   OH280110   0.258   0.026  12.961 -1.1506 -0.0222  0.7870
19540TIP3    H180111   0.342   0.001  12.924 -1.4363  0.3684 -0.1667
19540TIP3    H280112   0.232   0.104  12.911 -0.8103  1.5441  2.8706
19541TIP3   OH280113   5.998   5.220  12.072  0.0832 -0.2322 -0.2506
19541TIP3    H180114   5.959   5.143  12.032 -0.9869 -0.0803  0.4528
19541TIP3    H280115   5.924   5.280  12.085  0.3926 -0.2191  1.7915
19542TIP3   OH280116   1.588   3.825   0.640 -0.2506  0.1026  0.3118
19542TIP3    H180117   1.641   3.865   0.709 -0.6935  3.2216 -1.0110
19542TIP3    H280118   1.501   3.815   0.679 -0.9084  3.2691 -0.1193
19543TIP3   OH280119   0.931   3.185  17.028 -0.0112  0.3801  0.8783
19543TIP3    H180120   1.013   3.232  17.013  0.4395 -0.3478  1.0201
19543TIP3    H280121   0.952   3.122  17.097 -0.3397 -0.6732  0.0476
19544TIP3   OH280122   0.567   4.670   2.089 -0.6265 -0.2226 -0.2082
19544TIP3    H180123   0.559   4.733   2.161 -1.2861  0.6981 -1.0731
19544TIP3    H280124   0.660   4.671   2.067 -0.9083  2.0928 -1.6193
19545TIP3   OH280125   2.593   5.714  12.312 -0.5865 -0.4403 -0.2987
19545TIP3    H180126   2.628   5.689  12.397 -0.8610 -0.7722 -0.2813
19545TIP3    H280127   2.499   5.698  12.319 -0.4211 -2.0108 -1.1887
19546TIP3   OH280128   2.700   2.514   5.958  0.0960 -0.4032 -0.2035
19546TIP3    H180129   2.747   2.432   5.971 -0.9723 -1.1026 -0.6071
19546TIP3    H280130   2.735   2.549   5.877  0.8282 -0.2614  0.1689
19547TIP3   OH280131   6.579   6.072  16.163  0.2336 -0.1723  0.0944
19547TIP3    H180132   6.499   6.084  16.112 -0.7675 -3.2983  0.7168
19547TIP3    H280133   6.560   6.113  16.247  0.0752  0.8132 -0.4031
19548TIP3   OH280134   1.676   4.313  13.887  0.7583 -0.4033  0.1615
19548TIP3    H180135   1.764   4.345  13.905  0.7063 -0.4315  0.4605
19548TIP3    H280136   1.640   4.292  13.973  0.0381  0.6833  0.1354
19549TIP3   OH280137   1.818   2.034   5.022  0.3427 -0.0191 -0.1347
19549TIP3    H180138   1.797   1.958   5.076  0.8789 -0.1519 -0.1029
19549TIP3    H280139   1.879   2.000   4.956  0.1911  0.2768 -0.4295
19550TIP3   OH280140   4.066   6.665  14.817 -0.0570 -0.0119 -0.0366
19550TIP3    H180141   4.118   6.614  14.879  1.2347 -1.0920 -1.9277
19550TIP3    H280142   4.120   6.741  14.797 -1.4807  1.6233  1.8673
19551TIP3   OH280143   1.598   6.515   3.777 -0.4320  0.1660  1.0392
19551TIP3    H180144   1.521   6.490   3.726 -0.2941 -1.5970  1.6210
19551TIP3    H280145   1.568   6.512   3.868  0.0911  0.3842  1.2190
19552TIP3   OH280146   4.114   5.928  12.695  0.0848 -0.0213 -0.5444
19552TIP3    H180147   4.051   5.856  12.698 -0.4401  0.3732 -1.4374
19552TIP3    H280148   4.184   5.903  12.755 -1.1747 -0.2389  0.8838
19553TIP3   OH280149   3.945   3.340  15.393 -0.9935  0.3332 -0.4061
19553TIP3    H180150   3.893   3.296  15.460 -1.8643  1.5737 -0.2081
19553TIP3    H280151   3.995   3.406  15.441  1.7540 -1.5899 -0.4325
19554TIP3   OH280152   4.413   6.194  14.173  0.3035 -0.0225  0.1491
19554TIP3    H180153   4.327   6.195  14.214  0.4168 -1.6502  0.4932
19554TIP3    H280154   4.447   6.106  14.191  1.6384  0.2708 -0.7995
19555TIP3   OH280155   3.942   6.430  13.846  0.1794  0.3397  0.2565
19555TIP3    H180156   3.882   6.418  13.773  0.5973  1.1863 -0.2484
19555TIP3    H280157   4.028   6.442  13.805  0.8067 -1.3698  0.9855
19556TIP3   OH280158   5.858   5.914   6.161 -0.0265 -0.1903 -0.0860
19556TIP3    H180159   5.945   5.890   6.127  0.3320 -0.2623  0.8495
19556TIP3    H280160   5.850   6.007   6.141  0.9081  0.1761  1.1131
19557TIP3   OH280161   1.835   0.154   3.765  0.0131  0.2468 -0.2246
19557TIP3    H180162   1.766   0.220   3.754 -0.8005 -0.5775 -0.1425
19557TIP3    H280163   1.799   0.092   3.828  0.4767 -0.6719 -0.8453
19558TIP3   OH280164   4.015   6.583  15.153 -0.0604  0.5171 -0.0945
19558TIP3    H180165   4.036   6.512  15.214  0.8365  0.0708 -0.8958
19558TIP3    H280166   4.085   6.646  15.165  0.3271  0.2513 -0.9205
19559TIP3   OH280167   4.454   5.150   5.607 -0.4817 -0.2593  0.8270
19559TIP3    H180168   4.417   5.071   5.646  3.5167 -1.4910  2.5838
19559TIP3    H280169   4.406   5.222   5.648 -3.2577 -1.6104  0.2233
19560TIP3   OH280170   5.997   3.419  15.963 -0.2901 -0.7208  0.5631
19560TIP3    H180171   5.926   3.387  15.907 -0.2879 -2.2651  1.4011
19560TIP3    H280172   5.964   3.501  16.000 -1.2501 -0.9340  0.2010
19561TIP3   OH280173   6.031   1.020   3.110  0.0139 -0.7119 -0.3195
19561TIP3    H180174   5.945   1.036   3.148 -0.2526 -0.4722 -0.9917
19561TIP3    H280175   6.052   1.102   3.065  0.2649 -1.0150 -0.7636
19562TIP3   OH280176   6.641   1.284   1.473 -0.7196 -0.1514  0.0652
19562TIP3    H180177   6.685   1.349   1.528 -0.4636  1.2418 -1.6884
19562TIP3    H280178   6.628   1.208   1.530  3.3518 -0.4296  0.8588
19563TIP3   OH280179   0.189   4.145  12.224  0.1968  0.0974 -0.0438
19563TIP3    H180180   0.150   4.072  12.271  0.6410  0.2936  0.6352
19563TIP3    H280181   0.170   4.222  12.278 -0.3611  0.5108 -0.8028
19564TIP3   OH280182   2.694   1.799  16.813  0.3265 -0.7954 -0.4683
19564TIP3    H180183   2.701   1.704  16.799 -1.8188 -1.2174  0.9207
19564TIP3    H280184   2.609   1.811  16.854  0.6170  1.7521 -0.4641
19565TIP3   OH280185   6.729   3.614   0.444 -0.1560 -0.3073  1.0029
19565TIP3    H180186   6.809   3.564   0.458  0.4887  0.5174  0.3358
19565TIP3    H280187   6.708   3.601   0.352 -1.2390 -1.1444  1.3449
19566TIP3   OH280188   4.215   0.549   0.385 -0.2108 -0.0303 -0.3021
19566TIP3    H180189   4.257   0.566   0.301  0.8073  1.0429  0.4073
19566TIP3    H280190   4.280   0.500   0.436 -0.9982 -1.1017 -0.2911
19567TIP3   OH280191   4.390   4.782   6.121  0.2819 -0.4835 -0.4878
19567TIP3    H180192   4.419   4.863   6.079 -1.9577  0.9176  0.5270
19567TIP3    H280193   4.405   4.797   6.214 -1.0905 -0.8003 -0.1993
19568TIP3   OH280194   3.300   1.908  12.454  0.2522  0.0755 -0.0171
19568TIP3    H180195   3.270   1.931  12.366  0.1428  2.2745  0.5392
19568TIP3    H280196   3.360   1.979  12.478  2.0413 -1.6219  0.8595
19569TIP3   OH280197   0.784   0.341  14.760  0.3972 -0.0800 -0.2479
19569TIP3    H180198   0.870   0.359  14.723  1.5683 -2.2496  1.2259
19569TIP3    H280199   0.791   0.367  14.851 -1.2960  1.8271 -0.5888
19570TIP3   OH280200   6.057   5.004   0.087 -0.1815  0.1460  0.1239
19570TIP3    H180201   6.020   4.980   0.002 -0.1580 -0.2473  0.2194
19570TIP3    H280202   6.011   5.084   0.112  1.6539  1.8205 -1.4647
19571TIP3   OH280203   4.931   4.833  13.119  0.1769  0.4604  0.0620
19571TIP3    H180204   4.880   4.909  13.145 -1.7033 -1.0528  1.1118
19571TIP3    H280205   4.884   4.796  13.045  0.0001 -0.6556  0.6929
19572TIP3   OH280206   6.461   6.839  13.309  1.1759 -0.1511 -0.0666
19572TIP3    H180207   6.553   6.864  13.310  1.0380  0.4002  1.9632
19572TIP3    H280208   6.429   6.857  13.397 -0.5042 -1.7791 -0.2673
19573TIP3   OH280209   3.061   5.100  17.019  0.2277 -0.1513 -0.3712
19573TIP3    H180210   3.075   5.016  16.975  0.1662 -0.4119  0.0970
19573TIP3    H280211   3.147   5.142  17.018  0.6678 -0.9538  0.8669
19574TIP3   OH280212   5.102   2.915   0.645  0.3760 -0.0751  0.2406
19574TIP3    H180213   5.153   2.838   0.669 -1.2980 -1.6405 -0.9992
19574TIP3    H280214   5.020   2.906   0.694  0.2278  1.0538  0.2365
19575TIP3   OH280215   5.918   4.500   5.414  0.2106 -0.7220  0.8663
19575TIP3    H180216   5.953   4.423   5.459  0.1600 -0.3081  1.6204
19575TIP3    H280217   5.922   4.477   5.321 -2.0301 -2.6275  1.1491
19576TIP3   OH280218   4.335   5.859   1.585  0.0229 -0.3893 -0.2802
19576TIP3    H180219   4.298   5.791   1.642  1.0594 -1.2030 -0.5299
19576TIP3    H280220   4.376   5.921   1.645  0.7778 -1.0411 -0.0930
19577TIP3   OH280221   0.180   1.636  11.223 -0.2431  0.2259  0.3147
19577TIP3    H180222   0.110   1.694  11.254 -0.1624  0.4666  0.0518
19577TIP3    H280223   0.259   1.673  11.263 -0.0421  0.9580 -0.7294
19578TIP3   OH280224   0.183   5.594   3.209  0.2158 -0.2831  0.3617
19578TIP3    H180225   0.200   5.642   3.290 -3.0698  0.4829  0.7313
19578TIP3    H280226   0.225   5.646   3.141  1.0541  0.3171  1.3087
19579TIP3   OH280227   4.058   6.086   5.889  0.4885  0.4614 -0.2029
19579TIP3    H180228   4.134   6.135   5.857  1.6488 -1.1072  0.0371
19579TIP3    H280229   4.012   6.148   5.945  0.7700  1.9073 -1.5003
19580TIP3   OH280230   2.087   6.356   1.567  0.5115  0.0176  0.2021
19580TIP3    H180231   2.053   6.401   1.644 -2.3087  0.1967 -1.0399
19580TIP3    H280232   2.073   6.418   1.495  1.6159 -0.7734 -0.7315
19581TIP3   OH280233   4.333   6.846   0.318 -0.0883  0.0356  0.6264
19581TIP3    H180234   4.298   6.929   0.284 -0.0449  0.5126  1.6985
19581TIP3    H280235   4.428   6.857   0.312 -0.0765  0.2522  1.1999
19582TIP3   OH280236   0.436   3.997   2.113  0.1039  0.0049  0.3304
19582TIP3    H180237   0.458   3.996   2.019  0.5204 -3.1480  0.3444
19582TIP3    H280238   0.342   3.983   2.115  0.2026 -0.7120  0.3505
19583TIP3   OH280239   4.914   2.028   0.059  0.7439 -0.7066  0.1357
19583TIP3    H180240   5.004   2.037   0.091  0.0643 -0.6947  2.1561
19583TIP3    H280241   4.874   1.964   0.119 -1.2125  0.9386  0.6752
19584TIP3   OH280242   5.372   2.800   3.722 -0.0058 -0.0399 -0.0665
19584TIP3    H180243   5.311   2.767   3.788  0.4420  0.0088  0.3761
19584TIP3    H280244   5.399   2.723   3.673 -1.3553  0.0872 -1.0714
19585TIP3   OH280245   5.564   5.704  12.707 -0.2689 -0.1101  0.5548
19585TIP3    H180246   5.487   5.738  12.661 -0.7560 -0.0972  1.3554
19585TIP3    H280247   5.618   5.781  12.725 -0.6832  0.0615  1.1021
19586TIP3   OH280248   5.912   0.275  15.682  0.1339 -0.5085 -0.6108
19586TIP3    H180249   5.866   0.354  15.712  2.4624  0.6742  0.1398
19586TIP3    H280250   5.923   0.223  15.762  2.0828  0.3541 -0.2536
19587TIP3   OH280251   1.604   6.343  14.828 -0.0101 -0.0180  0.0506
19587TIP3    H180252   1.624   6.377  14.741 -0.0795 -0.0604  0.0184
19587TIP3    H280253   1.512   6.365  14.843  0.9071  3.3725  1.6339
19588TIP3   OH280254   2.993   0.116   4.769  0.5457  0.0715 -0.7186
19588TIP3    H180255   3.079   0.106   4.808  1.3183  3.9322 -1.0875
19588TIP3    H280256   2.932   0.100   4.840  1.5704 -1.0665 -0.0530
19589TIP3   OH280257   1.020   0.764   0.931 -0.2636 -0.5031  0.3393
19589TIP3    H180258   0.928   0.738   0.937 -0.9724  1.7314  0.2271
19589TIP3    H280259   1.028   0.803   0.844  0.2761  1.0137  1.0344
19590TIP3   OH280260   1.521   5.100  13.083 -0.4288  0.1473  0.4178
19590TIP3    H180261   1.550   5.011  13.101  2.5115  0.8607 -0.3333
19590TIP3    H280262   1.487   5.097  12.994 -0.1446 -0.1592  0.3218
19591TIP3   OH280263   1.162   2.309  12.403  0.1089  0.1074 -0.2140
19591TIP3    H180264   1.156   2.214  12.392 -4.1477  0.1319  0.4248
19591TIP3    H280265   1.152   2.323  12.497  1.1545  1.2192 -0.2476
19592TIP3   OH280266   4.376   6.472  13.386  0.1982 -0.2061  0.1779
19592TIP3    H180267   4.417   6.457  13.301  0.7947  0.2015  0.3816
19592TIP3    H280268   4.283   6.483  13.367  0.1673 -1.1709 -0.2941
19593TIP3   OH280269   4.091   6.852   4.283  0.3322 -0.0714 -0.1684
19593TIP3    H180270   4.169   6.845   4.227  1.3354  0.8131  1.0481
19593TIP3    H280271   4.084   6.767   4.325  1.3221  0.1887  0.5495
19594TIP3   OH280272   1.959   3.289   5.069  0.2066  0.0187 -0.5291
19594TIP3    H180273   1.897   3.216   5.069 -0.6396  0.6257  2.0526
19594TIP3    H280274   1.912   3.362   5.030 -0.6541  0.3692  1.0652
19595TIP3   OH280275   2.049   0.449   2.856  0.5883  0.0610 -0.3811
19595TIP3    H180276   2.134   0.485   2.829 -0.5423  2.6053 -0.8304
19595TIP3    H280277   2.013   0.516   2.915 -2.1378  0.2640 -2.1322
19596TIP3   OH280278   4.170   2.228  13.951  0.4261  0.5796  0.1319
19596TIP3    H180279   4.163   2.173  14.029  0.4160 -0.0171 -0.2910
19596TIP3    H280280   4.222   2.303  13.979 -0.9481  1.1794  1.1750
19597TIP3   OH280281   6.654   0.938  16.721 -0.2127 -0.1736 -0.5449
19597TIP3    H180282   6.593   0.962  16.790 -0.0906  0.4588 -0.6492
19597TIP3    H280283   6.616   0.977  16.641  0.7626  0.9976 -0.4717
19598TIP3   OH280284   0.723   6.721   2.291 -0.2497  0.0007  0.3893
19598TIP3    H180285   0.734   6.806   2.249 -1.5317 -0.9198 -1.9825
19598TIP3    H280286   0.777   6.662   2.238 -2.8402 -1.4149 -0.8677
19599TIP3   OH280287   0.072   1.079  10.860 -0.4425  0.3555  0.0620
19599TIP3    H180288   0.067   1.167  10.895  0.2718  0.1106  0.7979
19599TIP3    H280289   0.155   1.077  10.811 -0.6296  0.1952 -0.2571
19600TIP3   OH280290   1.807   5.899  16.144 -0.0555 -0.3252  0.4372
19600TIP3    H180291   1.895   5.931  16.165  1.0905 -2.6978 -0.3516
19600TIP3    H280292   1.807   5.890  16.048 -0.9556 -0.8763  0.4768
19601TIP3   OH280293   4.027   5.478   1.432  0.0800 -0.2455 -0.3775
19601TIP3    H180294   4.078   5.490   1.512  1.7810 -0.7954 -1.3231
19601TIP3    H280295   3.967   5.553   1.431  0.1286 -0.1403  1.3091
19602TIP3   OH280296   6.153   1.292   5.717  0.6591 -0.0842 -0.5641
19602TIP3    H180297   6.202   1.241   5.653 -0.0471  2.0383 -2.9554
19602TIP3    H280298   6.156   1.239   5.797  2.3031 -2.4719 -2.0670
19603TIP3   OH280299   3.666   3.977   0.978 -0.2066 -0.8221 -0.0673
19603TIP3    H180300   3.709   3.988   0.893 -0.1780 -0.1300  0.0334
19603TIP3    H280301   3.735   3.945   1.036  0.1412  0.1136  0.0494
19604TIP3   OH280302   4.693   4.476  13.809 -0.4777  0.5745  0.0813
19604TIP3    H180303   4.689   4.559  13.858  0.0166  0.6919 -0.0724
19604TIP3    H280304   4.655   4.497  13.724 -0.5994  0.5731  0.1347
19605TIP3   OH280305   3.906   5.227  15.674  0.2740  0.0420  0.0648
19605TIP3    H180306   3.975   5.288  15.698 -0.3221 -0.0531  2.2257
19605TIP3    H280307   3.932   5.194  15.588  1.1822  2.4773 -0.6854
19606TIP3   OH280308   0.871   1.834  12.841  0.0240 -0.3783 -0.1205
19606TIP3    H180309   0.824   1.883  12.773  1.4511 -0.2210 -1.0303
19606TIP3    H280310   0.823   1.752  12.849  0.0405 -0.5473 -1.5877
19607TIP3   OH280311   3.313   6.295   1.310  0.3202 -0.0197  0.1734
19607TIP3    H180312   3.331   6.281   1.217  1.8815  1.0233  0.2846
19607TIP3    H280313   3.386   6.252   1.355  1.5375  2.4916  0.7518
19608TIP3   OH280314   0.490   5.410   6.485 -0.0109  0.5111  0.4169
19608TIP3    H180315   0.482   5.375   6.574 -1.5945  0.1784  0.1681
19608TIP3    H280316   0.479   5.505   6.496 -0.4020  0.4513  0.5573
19609TIP3   OH280317   0.629   0.862   1.087 -0.1297  0.1347  0.0336
19609TIP3    H180318   0.659   0.771   1.081 -1.0647 -0.1236 -1.0195
19609TIP3    H280319   0.679   0.899   1.160  0.3868 -1.1735  0.3681
19610TIP3   OH280320   3.428   6.556   4.758 -0.1982  0.0609  0.1177
19610TIP3    H180321   3.473   6.527   4.837  0.3592 -1.1941 -0.6346
19610TIP3    H280322   3.498   6.579   4.697 -0.5976  3.1095  0.6473
19611TIP3   OH280323   5.483   3.861  16.007  0.2411 -0.3937 -0.0749
19611TIP3    H180324   5.454   3.952  16.015  0.2624 -0.3853 -0.0936
19611TIP3    H280325   5.429   3.825  15.937 -0.8431 -0.8265  0.9383
19612TIP3   OH280326   0.916   5.266  11.365 -0.5447  0.0022 -0.5935
19612TIP3    H180327   0.825   5.292  11.350 -0.8159 -0.1098  0.7633
19612TIP3    H280328   0.967   5.323  11.308 -1.4103  0.5875 -0.8003
19613TIP3   OH280329   6.777   3.412   2.531 -0.5370 -0.3029 -0.2200
19613TIP3    H180330   6.729   3.420   2.449 -1.1144  1.6858  0.2735
19613TIP3    H280331   6.719   3.452   2.596  1.2649  1.0937  0.5874
19614TIP3   OH280332   4.892   1.721   5.752 -0.0954  0.4019  0.3662
19614TIP3    H180333   4.956   1.686   5.815 -0.8285 -0.7907  0.4883
19614TIP3    H280334   4.893   1.815   5.766  2.1725  0.5166 -0.1518
19615TIP3   OH280335   5.124   0.395  14.858 -0.3171  0.0105 -0.4941
19615TIP3    H180336   5.198   0.445  14.894 -1.3528  1.1974  0.0682
19615TIP3    H280337   5.114   0.321  14.919  0.5265 -0.2933 -0.7022
19616TIP3   OH280338   2.435   3.134   3.935  0.2634 -0.2898  0.3846
19616TIP3    H180339   2.449   3.182   3.853 -1.6092 -1.7919 -0.9123
19616TIP3    H280340   2.492   3.058   3.928 -0.1008 -0.5593  0.3426
19617TIP3   OH280341   1.704   3.539  16.473 -0.0651 -0.0336 -0.3201
19617TIP3    H180342   1.622   3.580  16.443  1.1496  3.3676  0.5321
19617TIP3    H280343   1.693   3.531  16.568  0.6775  0.7276 -0.1630
19618TIP3   OH280344   0.459   0.154   4.009  0.0619  0.1840  0.2649
19618TIP3    H180345   0.426   0.232   3.966  0.6960  0.0318 -0.5128
19618TIP3    H280346   0.493   0.186   4.093 -0.2252  0.6398  0.2130
19619TIP3   OH280347   0.654   4.850  10.970 -0.1818 -0.1987  0.0701
19619TIP3    H180348   0.596   4.801  10.912 -0.2515  1.5920 -1.4781
19619TIP3    H280349   0.711   4.899  10.911  1.3156 -0.0712  1.5540
19620TIP3   OH280350   4.136   3.391   6.063 -0.3770 -0.7299 -0.1305
19620TIP3    H180351   4.063   3.444   6.094 -2.6132 -3.2989 -0.5685
19620TIP3    H280352   4.150   3.327   6.132  1.3042 -0.4691 -0.1958
19621TIP3   OH280353   1.967   6.519  13.214 -0.1606  0.4806 -0.4581
19621TIP3    H180354   2.036   6.464  13.250 -0.0066  0.4053 -0.8653
19621TIP3    H280355   2.002   6.608  13.219 -0.1581  0.4752 -0.3813
19622TIP3   OH280356   4.011   0.105   3.713  0.4604  0.0234  0.5022
19622TIP3    H180357   3.938   0.127   3.655 -0.4350 -0.8928  1.2545
19622TIP3    H280358   4.089   0.112   3.657 -0.2820  0.1158 -0.5445
19623TIP3   OH280359   0.903   1.925  16.566 -0.3294  0.3258 -0.8023
19623TIP3    H180360   0.824   1.921  16.619  0.5661  0.8153  0.6187
19623TIP3    H280361   0.972   1.950  16.627  0.9830 -0.3301 -1.9533
19624TIP3   OH280362   1.430   2.960  14.729 -0.4376 -0.7533 -0.0055
19624TIP3    H180363   1.410   3.031  14.668  0.4542  1.3794  2.0260
19624TIP3    H280364   1.345   2.922  14.750 -0.8408 -0.9665 -1.8692
19625TIP3   OH280365   2.171   2.307   3.352 -0.0153  0.2854  0.3709
19625TIP3    H180366   2.076   2.304   3.340 -0.1353  0.2580  1.2735
19625TIP3    H280367   2.186   2.254   3.430  0.9563 -1.4321 -0.9144
19626TIP3   OH280368   4.029   4.094  15.057  0.3983  0.2797  0.4429
19626TIP3    H180369   4.063   4.115  14.971  1.0639 -0.1874  0.5861
19626TIP3    H280370   4.015   4.179  15.100 -0.1541  0.5204 -0.1964
19627TIP3   OH280371   3.349   0.381  14.350  0.5869 -0.2326  0.2379
19627TIP3    H180372   3.330   0.288  14.353  1.3692 -0.3847  1.9119
19627TIP3    H280373   3.266   0.422  14.324 -0.1651 -1.2968  0.8910
19628TIP3   OH280374   0.653   3.249  14.287  0.1453 -0.6743 -0.4077
19628TIP3    H180375   0.574   3.292  14.253  0.6249  0.4633 -0.1379
19628TIP3    H280376   0.725   3.292  14.241  0.6918 -0.4442  0.6385
19629TIP3   OH280377   5.880   4.731  14.340 -0.7549  0.4156 -0.4667
19629TIP3    H180378   5.880   4.825  14.356 -0.2619  0.3772 -0.2083
19629TIP3    H280379   5.893   4.692  14.427  2.4546  0.2034 -0.9189
19630TIP3   OH280380   2.773   0.587   0.514  0.0178 -0.9165  0.5361
19630TIP3    H180381   2.813   0.596   0.601  0.2267  1.2469  0.2789
19630TIP3    H280382   2.841   0.619   0.454 -0.5206 -1.3590 -0.3178
19631TIP3   OH280383   2.956   6.762  14.736 -0.2006 -0.2443  0.1003
19631TIP3    H180384   2.886   6.806  14.785 -0.5319 -2.0553  1.3574
19631TIP3    H280385   2.911   6.711  14.669 -0.4744 -3.3927  2.4377
19632TIP3   OH280386   0.334   2.557   0.428  0.7725 -0.2942 -0.1989
19632TIP3    H180387   0.272   2.493   0.395 -0.1570  0.8943 -0.8715
19632TIP3    H280388   0.418   2.535   0.386  0.4410 -0.9901 -0.4975
19633TIP3   OH280389   6.230   3.738  11.184  0.2857 -0.1274 -0.3445
19633TIP3    H180390   6.291   3.683  11.135  0.6928 -1.1685  1.2416
19633TIP3    H280391   6.145   3.693  11.175 -0.4384  1.5521 -2.9147
19634TIP3   OH280392   4.341   3.025   4.297 -0.1248 -0.0444 -0.1271
19634TIP3    H180393   4.390   3.107   4.295  0.5051 -0.4077 -0.0232
19634TIP3    H280394   4.324   3.004   4.205  2.4308 -1.3586 -0.3933
19635TIP3   OH280395   2.653   3.908   5.053  0.1487 -0.1724  0.1113
19635TIP3    H180396   2.627   3.877   4.966  0.4245  1.8349 -0.7523
19635TIP3    H280397   2.672   4.001   5.040  2.0618 -0.2320  1.9175
19636TIP3   OH280398   0.576   0.350   4.978  0.3350 -0.1476 -0.0048
19636TIP3    H180399   0.591   0.444   4.981  1.0111 -0.2759  1.5460
19636TIP3    H280400   0.529   0.335   4.895 -0.4361  1.6241  0.0837
19637TIP3   OH280401   4.666   4.343  17.095  0.2649  0.3851  0.2867
19637TIP3    H180402   4.668   4.297  17.179 -1.5959  0.3510  0.3441
19637TIP3    H280403   4.758   4.364  17.078  1.0954 -2.3460  0.8163
19638TIP3   OH280404   5.972   2.366  11.891 -0.1371  0.2006 -0.6573
19638TIP3    H180405   5.955   2.418  11.812  0.6450 -0.7653 -1.4939
19638TIP3    H280406   5.910   2.399  11.956 -0.6371  1.1760 -1.6068
19639TIP3   OH280407   4.572   1.947   5.566  0.0810  0.0190 -0.0436
19639TIP3    H180408   4.658   1.956   5.525  0.1922 -0.5891  0.0514
19639TIP3    H280409   4.588   1.892   5.643 -0.5017 -0.6423 -0.3877
19640TIP3   OH280410   3.557   4.360   4.240  0.3863 -0.0386  0.1726
19640TIP3    H180411   3.550   4.388   4.331  0.6791  2.0960 -0.3976
19640TIP3    H280412   3.507   4.425   4.191  0.5305 -0.9342 -1.2240
19641TIP3   OH280413   0.816   4.216  15.311  0.0263 -0.7464  0.5305
19641TIP3    H180414   0.872   4.280  15.267 -0.8655  0.5673  1.2352
19641TIP3    H280415   0.857   4.205  15.397 -1.2549  0.9458  1.4088
19642TIP3   OH280416   2.091   1.332  14.067 -0.5576 -0.3654  0.2594
19642TIP3    H180417   2.127   1.363  13.984 -0.6021 -1.0021 -0.0006
19642TIP3    H280418   2.165   1.294  14.114 -0.2452  1.1651  1.1006
19643TIP3   OH280419   1.898   5.406  15.390 -0.2788  0.7870  0.7474
19643TIP3    H180420   1.868   5.318  15.413 -1.5495  1.0764  0.3099
19643TIP3    H280421   1.829   5.440  15.333  1.0825  1.3917 -0.6217
19644TIP3   OH280422   4.386   3.652   2.291  0.5400  0.1960  1.0810
19644TIP3    H180423   4.313   3.699   2.332 -0.3738 -0.9803  0.8399
19644TIP3    H280424   4.463   3.682   2.338 -0.2633  0.3438  2.3477
19645TIP3   OH280425   0.315   5.315   3.301  0.3995  0.4226 -0.0132
19645TIP3    H180426   0.292   5.230   3.263 -0.5393  0.0793  1.2468
19645TIP3    H280427   0.246   5.374   3.270 -0.7634 -0.0071  1.5932
19646TIP3   OH280428   6.528   1.361  10.975  0.1281 -0.5364 -0.3263
19646TIP3    H180429   6.617   1.368  10.941 -0.5953 -0.7357 -2.4060
19646TIP3    H280430   6.503   1.270  10.956 -0.6227 -0.3888 -0.0712
19647TIP3   OH280431   3.717   1.889   4.807 -0.0357  0.2007 -0.2686
19647TIP3    H180432   3.689   1.864   4.719 -0.5985  1.4310 -0.4670
19647TIP3    H280433   3.785   1.955   4.792 -0.7566  1.0768  0.1872
19648TIP3   OH280434   2.861   4.537   5.143  0.5216  0.2945 -0.6214
19648TIP3    H180435   2.853   4.442   5.135  0.6646  0.0428  1.5028
19648TIP3    H280436   2.945   4.558   5.102  1.2597 -0.7538  0.2890
19649TIP3   OH280437   5.529   2.315   3.742 -0.2232 -0.0691 -0.9921
19649TIP3    H180438   5.454   2.366   3.772  0.8709  1.0932 -0.1333
19649TIP3    H280439   5.528   2.323   3.647 -1.8297 -1.0503 -1.0997
19650TIP3   OH280440   4.683   6.031   5.573  0.4353 -0.7436 -0.1681
19650TIP3    H180441   4.710   6.089   5.502  2.4977 -0.7398  0.5393
19650TIP3    H280442   4.750   5.962   5.573 -1.0648 -2.2784  0.0351
19651TIP3   OH280443   4.939   0.223   1.168 -0.3623 -0.0491  0.0422
19651TIP3    H180444   4.860   0.214   1.114 -0.7451 -0.5011  0.6516
19651TIP3    H280445   5.008   0.247   1.106 -1.2770  1.9371 -0.2899
19652TIP3   OH280446   6.442   4.000  17.014  0.1479  0.2620 -0.0878
19652TIP3    H180447   6.392   4.003  16.932 -0.8580 -1.8668  0.4130
19652TIP3    H280448   6.448   4.092  17.041  1.7317  1.2324 -3.2321
19653TIP3   OH280449   3.356   5.202   4.786 -0.4728  0.6878  0.2115
19653TIP3    H180450   3.428   5.252   4.825 -1.0009  1.1355  0.6157
19653TIP3    H280451   3.335   5.249   4.706 -0.6666  0.8582  0.3616
19654TIP3   OH280452   5.914   1.161  13.772 -0.3358  0.2033  0.1658
19654TIP3    H180453   6.005   1.156  13.802  0.1277 -0.1860 -1.2274
19654TIP3    H280454   5.895   1.255  13.770  0.4613  0.3628 -0.7052
19655TIP3   OH280455   0.765   0.048  12.411  0.1554 -0.2341  0.2945
19655TIP3    H180456   0.857   0.075  12.413  0.6677 -1.8682 -0.1762
19655TIP3    H280457   0.766  -0.044  12.436 -1.2903 -0.4538 -0.3600
19656TIP3   OH280458   6.063   1.764   1.375 -0.3814 -0.5915 -0.1159
19656TIP3    H180459   6.064   1.706   1.451 -2.7727 -1.7406 -0.8541
19656TIP3    H280460   6.100   1.712   1.304  1.3434  0.2959  0.0806
19657TIP3   OH280461   3.330   2.754   2.025 -0.2515  0.0091 -0.6393
19657TIP3    H180462   3.353   2.726   1.936 -1.5814  0.4927 -1.1451
19657TIP3    H280463   3.358   2.845   2.030 -0.3224  0.0291 -0.6119
19658TIP3   OH280464   1.715   4.899   5.720 -0.0014 -0.2928  0.2461
19658TIP3    H180465   1.663   4.824   5.691 -0.9037  0.5311 -0.3192
19658TIP3    H280466   1.791   4.860   5.764 -0.4628 -1.5295 -0.0170
19659TIP3   OH280467   1.643   4.450  11.766 -0.4130  0.0493 -0.1304
19659TIP3    H180468   1.729   4.454  11.724 -0.4054 -3.2322 -0.6708
19659TIP3    H280469   1.580   4.455  11.694 -0.5261 -1.0531 -0.1300
19660TIP3   OH280470   3.034   0.021   1.451 -0.2911 -0.4715 -0.3674
19660TIP3    H180471   3.028  -0.058   1.398 -2.2882 -0.6282  0.0351
19660TIP3    H280472   2.953   0.024   1.501 -0.7131  2.2840 -1.0195
19661TIP3   OH280473   3.941   2.629  16.210 -0.4888 -0.6188 -0.2412
19661TIP3    H180474   3.858   2.589  16.185  0.9602 -2.4535 -2.5009
19661TIP3    H280475   3.989   2.560  16.256  0.8815 -0.5559 -1.5069
19662TIP3   OH280476   1.381   1.136   6.228  0.3696 -0.0505  0.4799
19662TIP3    H180477   1.414   1.046   6.232 -1.0235 -0.5718  0.8442
19662TIP3    H280478   1.318   1.142   6.300 -1.9858  0.1824 -1.4902
19663TIP3   OH280479   0.153   5.846  14.674  0.1328 -0.6118  0.7434
19663TIP3    H180480   0.114   5.931  14.652  0.6178 -0.4956  0.2758
19663TIP3    H280481   0.132   5.832  14.766  0.9180  0.5051  1.1106
19664TIP3   OH280482   4.700   2.076   3.111 -0.3446 -0.2895 -0.5041
19664TIP3    H180483   4.646   2.059   3.033  1.4979  1.4528 -2.3083
19664TIP3    H280484   4.681   2.167   3.133  1.4003  0.2138 -0.9002
19665TIP3   OH280485   2.732   6.261   3.072 -0.5075  0.2374  0.7788
19665TIP3    H180486   2.670   6.328   3.100 -1.8106 -0.0364 -1.2541
19665TIP3    H280487   2.708   6.243   2.981 -0.1812 -2.9668  1.2385
19666TIP3   OH280488   1.078   4.158   5.227  0.2810  0.1007  0.5572
19666TIP3    H180489   1.089   4.123   5.316 -2.3724  1.8558  1.7048
19666TIP3    H280490   0.985   4.149   5.209  0.6676  0.3132 -1.8653
19667TIP3   OH280491   3.379   2.360  14.398 -0.0104  0.1006 -0.2270
19667TIP3    H180492   3.423   2.430  14.349 -0.3243  1.1757  0.9652
19667TIP3    H280493   3.372   2.288  14.335  1.2190  0.7740 -1.1921
19668TIP3   OH280494   2.238   3.904  16.664  0.1463 -0.1281  0.3586
19668TIP3    H180495   2.197   3.828  16.624  1.3045 -0.4307 -0.3097
19668TIP3    H280496   2.329   3.877  16.678  0.4803  1.0052  0.4633
19669TIP3   OH280497   0.105   5.933  16.283 -0.2612 -0.1044 -0.5112
19669TIP3    H180498   0.011   5.914  16.282 -0.3053  0.1153 -0.6016
19669TIP3    H280499   0.136   5.905  16.197 -0.3003  0.1036 -0.5930
19670TIP3   OH280500   0.809   6.011   3.078 -0.3041  0.9024 -0.2028
19670TIP3    H180501   0.787   5.920   3.098 -0.0688  1.1375  1.2484
19670TIP3    H280502   0.878   6.004   3.011 -1.4964  0.0828 -1.4171
19671TIP3   OH280503   4.746   4.636  13.400  0.6293 -0.2279  0.2548
19671TIP3    H180504   4.777   4.713  13.448  1.9939  0.3422 -1.4104
19671TIP3    H280505   4.700   4.583  13.465 -0.0463  1.8134  1.5229
19672TIP3   OH280506   1.980   1.338   6.572 -0.2358 -0.5898 -0.4778
19672TIP3    H180507   2.027   1.277   6.630  0.1188 -0.0297 -0.1673
19672TIP3    H280508   1.920   1.282   6.523 -0.2691 -1.1293  0.1555
19673TIP3   OH280509   0.392   3.158  15.195 -0.0076  0.4358 -0.6296
19673TIP3    H180510   0.447   3.116  15.261  1.7532  3.4769  0.0241
19673TIP3    H280511   0.450   3.220  15.150 -2.4853  2.7771 -0.9042
19674TIP3   OH280512   1.247   5.556  14.465 -1.0752 -0.0457  0.5224
19674TIP3    H180513   1.249   5.466  14.497  0.4427 -0.1351  0.2247
19674TIP3    H280514   1.234   5.547  14.370  1.7674 -0.1256  0.0540
19675TIP3   OH280515   1.768   6.610  11.576 -0.6353 -0.4528  0.1671
19675TIP3    H180516   1.828   6.585  11.645  0.6853 -0.4941 -0.9635
19675TIP3    H280517   1.681   6.584  11.608 -0.7538  3.2155  3.6577
19676TIP3   OH280518   0.160   1.169   1.171  0.1152  0.3381  0.4972
19676TIP3    H180519   0.093   1.237   1.180 -0.5429 -0.3427  0.9445
19676TIP3    H280520   0.138   1.125   1.089  0.8142  0.9428 -0.0253
19677TIP3   OH280521   3.631   5.960   4.549  0.6958 -0.2288  0.0462
19677TIP3    H180522   3.599   5.995   4.632  1.6080  1.7997 -0.4043
19677TIP3    H280523   3.603   6.023   4.483 -1.6261 -2.6867 -1.5597
19678TIP3   OH280524   5.955   5.059   3.635 -0.3969 -0.6560 -0.2531
19678TIP3    H180525   5.901   5.005   3.577  1.7709 -2.7588 -0.5006
19678TIP3    H280526   6.017   4.996   3.673  0.4637  1.2603  1.6696
19679TIP3   OH280527   2.376   4.547   3.332 -0.1473  0.3234 -0.0194
19679TIP3    H180528   2.426   4.609   3.385  0.8820  1.4458 -2.1959
19679TIP3    H280529   2.291   4.590   3.318 -1.2181 -0.8554  2.2729
19680TIP3   OH280530   5.312   6.468  15.065  0.5449 -0.3107 -0.5198
19680TIP3    H180531   5.270   6.551  15.086  0.4511 -0.1510 -1.3414
19680TIP3    H280532   5.262   6.403  15.115  0.3290  0.0688 -0.2410
19681TIP3   OH280533   0.988   3.011  12.024 -0.4027 -0.0196 -0.2517
19681TIP3    H180534   1.015   3.023  12.116 -0.5902 -1.1370 -0.0317
19681TIP3    H280535   0.923   3.078  12.009 -0.4096  0.1442  0.4589
19682TIP3   OH280536   4.015   2.929   2.042  0.2970 -0.2170  0.2015
19682TIP3    H180537   4.029   2.943   1.949 -0.7216 -0.7753 -0.0446
19682TIP3    H280538   3.942   2.867   2.047 -1.1498  1.4886  1.4054
19683TIP3   OH280539   4.070   2.962  15.422 -0.8332  0.3472 -0.4816
19683TIP3    H180540   4.126   2.885  15.415  1.0400  1.6107 -0.0881
19683TIP3    H280541   3.989   2.929  15.461 -0.3160 -1.4933 -0.8486
19684TIP3   OH280542   3.470   4.103  14.480 -0.2058 -0.0622 -0.3693
19684TIP3    H180543   3.540   4.050  14.444  0.1358  1.7297 -2.5747
19684TIP3    H280544   3.394   4.082  14.426 -1.3818 -1.7507  1.7933
19685TIP3   OH280545   5.392   4.112   2.224 -0.2355 -0.4346  0.6835
19685TIP3    H180546   5.361   4.032   2.182 -0.2471  0.4432 -1.0988
19685TIP3    H280547   5.365   4.182   2.165 -0.7317  0.9691  2.4761
19686TIP3   OH280548   5.483   5.709  15.106 -0.3595 -0.6549  0.0862
19686TIP3    H180549   5.462   5.783  15.162  0.1797  0.2228 -0.8393
19686TIP3    H280550   5.423   5.640  15.134 -3.0326  1.0700 -1.0024
19687TIP3   OH280551   2.328   5.007   4.430  0.5110  0.3743 -0.3579
19687TIP3    H180552   2.265   5.029   4.498 -0.4494  0.4700 -1.2533
19687TIP3    H280553   2.387   5.082   4.427 -0.3493  1.0514 -0.6596
19688TIP3   OH280554   1.328   5.044  15.078  0.7308  0.3608 -0.3496
19688TIP3    H180555   1.368   4.970  15.032 -1.4129 -0.0735 -1.6474
19688TIP3    H280556   1.277   5.002  15.148 -1.4371  0.4131 -1.7969
19689TIP3   OH280557   0.755   1.181  12.425  0.1569  0.0973  0.0305
19689TIP3    H180558   0.683   1.119  12.433  0.4155  0.0670  2.9964
19689TIP3    H280559   0.718   1.265  12.451  0.5045  0.6871 -1.2938
19690TIP3   OH280560   3.990   6.693  13.162  0.4034  0.0310  0.5189
19690TIP3    H180561   4.000   6.763  13.097  0.9203 -0.5317 -0.0160
19690TIP3    H280562   3.905   6.711  13.202 -0.6469 -0.4454 -1.3545
19691TIP3   OH280563   5.574   6.244   1.736  0.0417 -0.2966  0.2747
19691TIP3    H180564   5.610   6.332   1.738  2.3196 -1.1614  1.3183
19691TIP3    H280565   5.562   6.221   1.828  0.8022 -1.5190  0.0960
19692TIP3   OH280566   3.401   5.986  15.432 -0.2887 -0.7812  0.2802
19692TIP3    H180567   3.323   5.950  15.476  0.1051 -1.1571  0.6736
19692TIP3    H280568   3.451   5.910  15.405  1.1370 -0.5784  2.1447
19693TIP3   OH280569   0.656   0.022   3.186 -0.6111  0.8274 -0.0090
19693TIP3    H180570   0.709   0.063   3.254 -0.1267 -0.5118  0.4691
19693TIP3    H280571   0.577  -0.008   3.232 -0.4945  0.3397 -0.1137
19694TIP3   OH280572   4.903   5.237  11.216 -0.2266  0.2847 -0.2127
19694TIP3    H180573   4.825   5.271  11.173  0.3370 -0.1578 -1.6543
19694TIP3    H280574   4.941   5.312  11.262 -1.9626  0.3027  1.3145
19695TIP3   OH280575   0.890   5.461   1.990  0.1024 -0.2078  0.0820
19695TIP3    H180576   0.836   5.382   1.992  0.0028 -0.1333  1.1636
19695TIP3    H280577   0.927   5.467   2.078  0.6201  0.6009 -0.1761
19696TIP3   OH280578   6.642   5.846   0.879  0.0920 -0.5796  0.2974
19696TIP3    H180579   6.731   5.823   0.852  1.0305  1.7717  1.1293
19696TIP3    H280580   6.622   5.785   0.950  0.1010 -2.5952 -1.3352
19697TIP3   OH280581   2.720   3.893   2.220  0.1361  0.4475 -0.4517
19697TIP3    H180582   2.692   3.984   2.212  0.6489  0.7712  1.0228
19697TIP3    H280583   2.790   3.883   2.155 -0.7353  0.7517 -1.4447
19698TIP3   OH280584   4.909   0.755   0.018 -0.3364  0.3024 -0.2029
19698TIP3    H180585   4.920   0.660   0.029 -1.3795  0.2507  0.5226
19698TIP3    H280586   4.962   0.793   0.088 -1.3744  0.1862  0.6646
19699TIP3   OH280587   4.529   6.229   5.340 -0.2058 -1.1893 -0.1717
19699TIP3    H180588   4.597   6.238   5.407 -0.3611 -0.0710 -0.1393
19699TIP3    H280589   4.522   6.135   5.325  0.9758 -1.3566  0.2020
19700TIP3   OH280590   2.496   1.401   2.649  0.1949 -0.8453 -0.0928
19700TIP3    H180591   2.410   1.361   2.634 -1.2644  2.3082 -0.8559
19700TIP3    H280592   2.546   1.381   2.570 -0.3513 -1.4355 -0.3012
19701TIP3   OH280593   2.262   6.801   3.840 -0.2110  0.2883  0.0373
19701TIP3    H180594   2.350   6.822   3.808 -0.6502  1.9109 -0.2357
19701TIP3    H280595   2.237   6.721   3.794  0.7311  0.3691 -0.6431
19702TIP3   OH280596   1.035   3.995   2.110  0.6914  1.0019 -0.5796
19702TIP3    H180597   1.059   4.081   2.075  2.3655  0.7927 -0.0484
19702TIP3    H280598   1.111   3.939   2.092  0.4634  0.1703  0.8545
19703TIP3   OH280599   1.478   5.853  12.472 -0.2942  0.3908 -0.4637
19703TIP3    H180600   1.524   5.907  12.408  0.5682 -0.7210 -0.8253
19703TIP3    H280601   1.490   5.763  12.440 -0.4584 -0.1310  0.8769
19704TIP3   OH280602   6.095   6.388   0.410  0.4899  0.1130 -0.7955
19704TIP3    H180603   6.071   6.416   0.498  1.1240  0.1365 -0.6299
19704TIP3    H280604   6.104   6.470   0.361 -0.0632  0.0928 -0.9420
19705TIP3   OH280605   1.885   0.760   3.772 -0.5036  0.1989 -0.3185
19705TIP3    H180606   1.903   0.669   3.748 -0.9527 -0.0700  0.3533
19705TIP3    H280607   1.876   0.759   3.867  0.7407  1.1694 -0.1706
19706TIP3   OH280608   2.961   3.762  14.880  0.5211 -0.4556 -0.1010
19706TIP3    H180609   3.049   3.787  14.908  0.7393 -0.2160 -0.9431
19706TIP3    H280610   2.941   3.683  14.929  0.9633 -0.1709  0.5463
19707TIP3   OH280611   0.859   2.935   4.419 -0.1871  0.1570  0.5430
19707TIP3    H180612   0.870   2.940   4.514 -0.3126  2.1912  0.4980
19707TIP3    H280613   0.933   2.983   4.384 -1.2594  1.2711 -0.2832
19708TIP3   OH280614   2.303   1.710   4.079 -0.5582 -0.0404 -0.0905
19708TIP3    H180615   2.315   1.617   4.062 -1.6731 -0.0210 -1.1714
19708TIP3    H280616   2.391   1.748   4.072 -0.0891 -1.0176  0.4458
19709TIP3   OH280617   3.711   3.419   5.650 -0.5118 -0.0125  0.1324
19709TIP3    H180618   3.688   3.427   5.742  3.9228 -0.3345  1.4710
19709TIP3    H280619   3.751   3.503   5.628  0.8220 -0.8293 -0.6999
19710TIP3   OH280620   0.958   1.843  15.707 -0.0609 -0.0573  0.4377
19710TIP3    H180621   0.974   1.824  15.800 -0.2452  0.8109  0.6509
19710TIP3    H280622   1.042   1.870  15.673 -0.3775  1.5227  0.8298
19711TIP3   OH280623   6.414   6.413   0.811  0.5515 -0.2408  0.0003
19711TIP3    H180624   6.377   6.380   0.730  2.1452  0.4084 -1.0492
19711TIP3    H280625   6.340   6.451   0.858 -0.2395  0.3603 -1.6563
19712TIP3   OH280626   1.998   4.304  13.547  0.0457  0.1045 -0.8485
19712TIP3    H180627   1.927   4.358  13.582  1.3100  1.3200 -0.0403
19712TIP3    H280628   2.000   4.326  13.454 -0.6004  0.0929 -0.8743
19713TIP3   OH280629   4.012   3.802  13.981 -0.1911  0.1262 -0.0646
19713TIP3    H180630   4.055   3.763  14.057 -0.5847 -0.0680  0.0649
19713TIP3    H280631   4.039   3.893  13.982  1.5104 -0.3275 -0.9173
19714TIP3   OH280632   5.626   1.866  13.683 -0.6790 -0.5639 -0.0928
19714TIP3    H180633   5.555   1.811  13.716 -0.6969  0.2026  1.2068
19714TIP3    H280634   5.656   1.820  13.604 -0.2166 -2.8185  1.3037
19715TIP3   OH280635   4.893   1.220   0.718 -0.1835  0.5150  0.0024
19715TIP3    H180636   4.813   1.213   0.769 -0.6811  1.6301 -0.6026
19715TIP3    H280637   4.899   1.137   0.671 -0.0312 -0.2867  1.3930
19716TIP3   OH280638   0.490   4.231  16.299 -0.0259 -0.4188  0.5673
19716TIP3    H180639   0.468   4.217  16.207 -3.4908  2.1725  0.8049
19716TIP3    H280640   0.435   4.170  16.347 -1.2936  0.9817  0.9685
19717TIP3   OH280641   2.560   3.909   4.201  0.0185  0.5893  0.2677
19717TIP3    H180642   2.559   4.004   4.216 -0.0768  0.8398 -1.2155
19717TIP3    H280643   2.552   3.899   4.107  1.1525 -0.8850  0.2878
19718TIP3   OH280644   0.752   2.500  14.487  0.3474 -0.1324  0.0308
19718TIP3    H180645   0.745   2.404  14.486 -1.2599 -0.1926  3.2172
19718TIP3    H280646   0.674   2.529  14.440  0.3492 -0.4030 -0.1456
19719TIP3   OH280647   1.286   2.345   0.332 -0.1891 -0.3080  0.4638
19719TIP3    H180648   1.328   2.428   0.351  1.0239 -0.9180  0.4991
19719TIP3    H280649   1.269   2.306   0.418 -0.1071 -0.4199  0.4296
19720TIP3   OH280650   3.276   5.644  11.682  0.2253  0.3263  0.4199
19720TIP3    H180651   3.347   5.704  11.704  2.4062 -1.9277 -0.0755
19720TIP3    H280652   3.295   5.616  11.593 -0.7428 -1.0600  0.6214
19721TIP3   OH280653   4.626   6.330   6.495  0.5731  0.0951  0.5045
19721TIP3    H180654   4.627   6.360   6.404  0.3790  1.4413  0.9256
19721TIP3    H280655   4.597   6.239   6.490 -0.5999  0.5100 -0.6860
19722TIP3   OH280656   5.328   0.448   4.274  0.2836 -0.6740 -0.2718
19722TIP3    H180657   5.301   0.479   4.188  1.4543  0.6950 -0.1854
19722TIP3    H280658   5.260   0.385   4.299 -1.7292  1.1036 -0.9124
19723TIP3   OH280659   0.359   0.987   0.424 -0.2594 -0.4033  0.3286
19723TIP3    H180660   0.408   0.909   0.449 -0.7976 -0.8018  0.1663
19723TIP3    H280661   0.273   0.975   0.465 -0.2999  0.1755  0.4200
19724TIP3   OH280662   2.862   2.411   4.087  0.5313  0.2128  0.1589
19724TIP3    H180663   2.782   2.455   4.059  0.6183  0.7233  0.7094
19724TIP3    H280664   2.852   2.321   4.056  0.0801  0.4624 -0.4300
19725TIP3   OH280665   5.373   1.037   5.616 -0.3517  0.1066 -0.1130
19725TIP3    H180666   5.364   1.050   5.711 -0.3791  1.0896 -0.2434
19725TIP3    H280667   5.324   1.109   5.577 -0.8093 -0.6134 -0.8874
19726TIP3   OH280668   0.103   3.281  14.446  0.0767  0.3663 -0.1718
19726TIP3    H180669   0.172   3.240  14.394 -0.9177 -1.3237 -0.2299
19726TIP3    H280670   0.143   3.361  14.479  1.7678 -0.1102 -0.9318
19727TIP3   OH280671   1.373   1.549   5.812 -0.6384  0.6015  0.4069
19727TIP3    H180672   1.364   1.456   5.791 -0.1210  1.0949 -2.2618
19727TIP3    H280673   1.454   1.554   5.863 -0.1098 -0.2985 -0.3089
19728TIP3   OH280674   3.034   0.323   5.722  0.1536  0.1606 -0.6084
19728TIP3    H180675   2.965   0.335   5.787 -0.5980 -1.6191 -1.0175
19728TIP3    H280676   3.017   0.236   5.685  2.8186 -0.5000 -0.4804
19729TIP3   OH280677   3.428   4.754  13.023 -0.4880 -0.4245 -0.2037
19729TIP3    H180678   3.468   4.823  13.076 -0.6609 -0.3346 -0.1885
19729TIP3    H280679   3.382   4.699  13.087 -1.1856  0.0131 -0.3137
19730TIP3   OH280680   5.419   4.193   0.934 -0.3401 -0.6718  0.1348
19730TIP3    H180681   5.399   4.100   0.925  0.1491 -1.1593  3.1507
19730TIP3    H280682   5.443   4.204   1.026  0.0131  2.3805 -0.2181
19731TIP3   OH280683   5.539   1.019  13.301 -0.3129  1.0783 -0.1989
19731TIP3    H180684   5.608   1.071  13.343  0.1916 -0.3630  0.8159
19731TIP3    H280685   5.571   1.007  13.211 -1.5464  4.4392 -1.2527
19732TIP3   OH280686   1.324   3.305   4.375  0.5267  0.2056  0.5127
19732TIP3    H180687   1.279   3.225   4.403 -0.4254  0.2990 -0.6837
19732TIP3    H280688   1.411   3.275   4.348  0.9464 -0.0897  2.0879
19733TIP3   OH280689   5.905   5.146   2.538 -0.3030  0.1063 -0.2015
19733TIP3    H180690   5.847   5.222   2.540 -0.5797  0.0159 -2.1800
19733TIP3    H280691   5.942   5.141   2.626 -1.6601  1.4398  0.4886
19734TIP3   OH280692   5.764   6.062   4.086 -0.3014  0.1691 -0.2429
19734TIP3    H180693   5.763   6.137   4.026 -1.2955  0.2062 -0.2001
19734TIP3    H280694   5.758   6.101   4.173 -0.2923  0.0598 -0.1939
19735TIP3   OH280695   2.635   6.397   4.399 -0.1775  0.3157 -0.2994
19735TIP3    H180696   2.583   6.337   4.345 -0.3191 -0.2028  0.3951
19735TIP3    H280697   2.717   6.409   4.350  0.4479 -1.5804  0.1887
19736TIP3   OH280698   1.817   2.904  14.586 -0.2298 -0.1132  0.5188
19736TIP3    H180699   1.886   2.945  14.639 -0.2428 -3.0648  3.1436
19736TIP3    H280700   1.827   2.810  14.602 -3.0493 -0.8886 -1.3896
19737TIP3   OH280701   0.562   2.912  12.844  0.0897 -0.0425  0.7291
19737TIP3    H180702   0.542   2.998  12.808 -0.1714  0.6508  2.4411
19737TIP3    H280703   0.634   2.927  12.905  0.4061 -1.1398  0.6575
19738TIP3   OH280704   2.320   0.292  14.749 -0.2763  0.1863 -0.1817
19738TIP3    H180705   2.247   0.343  14.782  1.0869  2.1739 -0.0355
19738TIP3    H280706   2.383   0.358  14.718  1.2261 -1.4439 -0.7665
19739TIP3   OH280707   5.131   1.509   1.143  0.1315 -0.3373  0.0949
19739TIP3    H180708   5.162   1.541   1.058  1.7671 -0.7354  0.4988
19739TIP3    H280709   5.210   1.478   1.187 -0.7778 -0.7570  1.5075
19740TIP3   OH280710   5.040   6.187   0.506 -0.2443  0.0017 -0.0803
19740TIP3    H180711   5.110   6.222   0.452  0.6698 -0.6965  0.6117
19740TIP3    H280712   5.084   6.156   0.586 -1.0399 -2.1369 -0.3946
19741TIP3   OH280713   1.978   1.273   1.154 -0.0767  0.0493  0.2299
19741TIP3    H180714   1.939   1.276   1.242 -0.8271  2.1998 -0.1255
19741TIP3    H280715   1.903   1.269   1.095  0.2963  1.5703 -0.3856
19742TIP3   OH280716   3.853   0.183   3.086 -0.3833 -0.1005 -0.1393
19742TIP3    H180717   3.835   0.090   3.100  1.4509 -0.2904  1.3786
19742TIP3    H280718   3.928   0.185   3.028  0.3506  0.3687  0.7964
19743TIP3   OH280719   5.932   2.257   5.759 -0.2038 -0.6790  0.3961
19743TIP3    H180720   6.015   2.227   5.796 -0.6075 -2.9167 -0.3578
19743TIP3    H280721   5.875   2.268   5.834  0.3036 -0.6823  0.7888
19744TIP3   OH280722   2.628   1.047  12.988  0.1300 -0.2216 -0.1242
19744TIP3    H180723   2.697   1.113  12.978 -0.2285 -0.0273 -1.6546
19744TIP3    H280724   2.555   1.094  13.028 -1.3793  1.3869 -4.2222
19745TIP3   OH280725   6.284   1.250  16.449 -0.5147 -0.1113  0.0937
19745TIP3    H180726   6.313   1.167  16.485 -0.1687 -0.1028 -0.1558
19745TIP3    H280727   6.189   1.247  16.454 -0.4704  0.0027  1.2473
19746TIP3   OH280728   3.617   4.508  14.752  0.2168  0.1825 -0.7750
19746TIP3    H180729   3.578   4.435  14.705  0.3468  0.7239 -1.7470
19746TIP3    H280730   3.670   4.466  14.820 -1.4539 -0.5689  0.1175
19747TIP3   OH280731   1.922   4.186   3.467 -0.5582  0.7355  0.4991
19747TIP3    H180732   1.969   4.236   3.399  0.1425  0.3910  0.7198
19747TIP3    H280733   1.867   4.126   3.417 -2.3358  2.5012  0.2018
19748TIP3   OH280734   0.086   3.027   1.686 -0.1718  0.1587  0.8653
19748TIP3    H180735   0.081   2.937   1.720 -0.0552 -0.8278 -1.5607
19748TIP3    H280736   0.180   3.048   1.690 -0.2019  0.2136  1.4600
19749TIP3   OH280737   2.364   5.512   1.359 -0.3086  0.3199  0.1040
19749TIP3    H180738   2.431   5.554   1.414  0.4603  0.2254 -0.7395
19749TIP3    H280739   2.407   5.434   1.324 -1.7751 -1.3605  1.8112
19750TIP3   OH280740   1.793   6.020   3.489  0.0781 -0.6074  0.4098
19750TIP3    H180741   1.881   6.043   3.458 -0.4643 -0.8875 -1.4296
19750TIP3    H280742   1.753   6.104   3.512  0.1686 -0.2612 -0.6279
19751TIP3   OH280743   1.309   6.081   0.487 -0.1990  0.0226 -0.5631
19751TIP3    H180744   1.330   6.039   0.404 -0.7623  0.0914 -0.7460
19751TIP3    H280745   1.238   6.029   0.524 -2.2906  1.8556 -1.7187
19752TIP3   OH280746   3.687   4.495  12.418 -0.1166  0.8786 -0.2562
19752TIP3    H180747   3.659   4.534  12.336 -0.7036  2.3454  0.6063
19752TIP3    H280748   3.607   4.488  12.471  0.2129 -0.2141  0.1389
19753TIP3   OH280749   0.447   5.382  12.505 -0.6124  0.7272  0.1227
19753TIP3    H180750   0.377   5.316  12.503  0.1860 -0.2719  2.1817
19753TIP3    H280751   0.462   5.398  12.598  1.1523  1.7670 -0.2959
19754TIP3   OH280752   1.777   5.808  15.622 -0.4569  0.3014  0.6350
19754TIP3    H180753   1.746   5.776  15.706  0.3536  2.9436  2.0602
19754TIP3    H280754   1.872   5.797  15.625 -0.5232 -0.9265 -0.6071
19755TIP3   OH280755   5.121   4.275   5.458  0.3338 -0.1836  0.0333
19755TIP3    H180756   5.057   4.345   5.446 -1.5271 -1.5066  1.6291
19755TIP3    H280757   5.110   4.248   5.549 -0.2126 -3.6491 -0.9208
19756TIP3   OH280758   3.592   0.061   3.958 -0.8811 -0.1543 -0.5666
19756TIP3    H180759   3.562   0.134   3.903  0.0778 -0.7068 -1.8816
19756TIP3    H280760   3.532  -0.010   3.939 -0.6080 -0.3148 -0.8451
19757TIP3   OH280761   0.502   4.322  16.598 -0.0837  0.1451 -0.1879
19757TIP3    H180762   0.462   4.239  16.573 -0.0874 -0.7625  2.5056
19757TIP3    H280763   0.499   4.376  16.518 -2.5271 -1.4652 -1.2862
19758TIP3   OH280764   2.025   5.866   4.909 -0.1006  0.1159  0.4464
19758TIP3    H180765   1.937   5.905   4.906  0.1580  0.6552 -0.8814
19758TIP3    H280766   2.009   5.773   4.925 -0.9284  0.1794  0.0523
19759TIP3   OH280767   4.531   4.043   1.099 -0.1876 -0.5032 -0.5478
19759TIP3    H180768   4.589   4.040   1.175 -0.4679 -0.4686 -0.3312
19759TIP3    H280769   4.524   3.952   1.070 -0.5220 -0.5938 -0.1935
19760TIP3   OH280770   1.372   5.530   3.097  0.2098 -0.1653  0.0017
19760TIP3    H180771   1.410   5.602   3.149  0.6250 -0.0271 -0.4873
19760TIP3    H280772   1.394   5.552   3.007 -0.0156 -0.7023 -0.1834
19761TIP3   OH280773   1.353   3.127   3.397  0.0191 -0.0468  0.8872
19761TIP3    H180774   1.331   3.095   3.484 -0.8899 -0.0928  0.6531
19761TIP3    H280775   1.294   3.079   3.338 -0.6372  1.2635  0.4224
19762TIP3   OH280776   4.921   6.603   0.552 -0.2399  0.4913 -0.6836
19762TIP3    H180777   4.976   6.581   0.477 -0.0753  3.1229 -1.4472
19762TIP3    H280778   4.970   6.669   0.600 -2.3128  2.4015 -0.9902
19763TIP3   OH280779   4.388   6.821  16.098 -0.2287 -0.1502  0.1711
19763TIP3    H180780   4.316   6.885  16.097 -0.1910 -0.1100 -0.0673
19763TIP3    H280781   4.345   6.736  16.094 -0.3357 -0.1960  1.7462
19764TIP3   OH280782   3.163   2.388  13.744 -0.5389 -0.0637 -0.3752
19764TIP3    H180783   3.122   2.343  13.670 -1.8631  0.6729 -0.1246
19764TIP3    H280784   3.179   2.476  13.712  0.2719 -0.1585 -0.2482
19765TIP3   OH280785   1.264   5.884  13.583  0.3900 -0.0816  0.5778
19765TIP3    H180786   1.226   5.891  13.496 -2.2145 -0.6797  1.5807
19765TIP3    H280787   1.285   5.791  13.593  2.6346  0.2800 -0.0820
19766TIP3   OH280788   1.023   0.512   3.733 -0.0145  0.0688 -0.4955
19766TIP3    H180789   1.117   0.520   3.716  0.1457  1.4480  0.7944
19766TIP3    H280790   0.981   0.554   3.658  0.3328 -1.2537 -1.4701
19767TIP3   OH280791   6.820   6.164   6.480  0.5407  0.6311  0.2294
19767TIP3    H180792   6.787   6.165   6.570 -0.6959  2.8974 -0.1785
19767TIP3    H280793   6.808   6.254   6.449  0.6421 -0.1583 -2.3059
19768TIP3   OH280794   3.786   6.455  16.356  0.2482  0.2563 -0.1014
19768TIP3    H180795   3.856   6.450  16.290  0.5410  0.7509  0.1619
19768TIP3    H280796   3.832   6.456  16.440 -0.0601  0.7583  0.0712
19769TIP3   OH280797   1.085   1.940   3.976  0.3856  0.2077  0.0751
19769TIP3    H180798   1.118   1.973   4.059 -0.0423 -0.3860  0.4954
19769TIP3    H280799   1.163   1.922   3.924  0.6347  1.3402  0.0395
19770TIP3   OH280800   3.730   3.029  10.553 -0.1517  0.1800 -0.2733
19770TIP3    H180801   3.682   2.957  10.594 -0.2741  1.2015  1.4443
19770TIP3    H280802   3.678   3.052  10.476 -1.2563 -0.1765  0.3452
19771TIP3   OH280803   3.440   0.813   1.656 -0.2504  0.6729 -0.3924
19771TIP3    H180804   3.417   0.881   1.593  1.5738  0.9285 -0.8500
19771TIP3    H280805   3.536   0.818   1.663 -0.0411 -1.8826 -0.4986
19772TIP3   OH280806   4.402   6.090   3.196 -0.4647 -0.7037  0.4067
19772TIP3    H180807   4.454   6.019   3.157  1.0270  0.7506 -0.3678
19772TIP3    H280808   4.403   6.159   3.130 -1.7406  0.1259  1.2197
19773TIP3   OH280809   2.033   6.293   4.089  0.5491  0.4347 -0.2708
19773TIP3    H180810   2.106   6.293   4.027  0.7393 -0.3314 -0.0583
19773TIP3    H280811   1.970   6.353   4.051  1.7890  2.0892  0.1454
19774TIP3   OH280812   3.333   6.830  12.133 -0.3507 -0.4146 -0.1389
19774TIP3    H180813   3.350   6.916  12.173 -1.2773 -0.1642 -0.2408
19774TIP3    H280814   3.414   6.808  12.088  0.4324 -0.3194  1.1899
19775TIP3   OH280815   3.879   6.623   0.091 -0.2365  0.2423 -0.0539
19775TIP3    H180816   3.872   6.577   0.007  2.1140 -2.1654  0.9388
19775TIP3    H280817   3.798   6.601   0.137  0.3705 -2.2462 -0.0140
19776TIP3   OH280818   6.630   3.797  15.952  0.1487 -0.0205  0.6183
19776TIP3    H180819   6.617   3.737  15.878 -0.7698  1.1712 -0.2336
19776TIP3    H280820   6.699   3.756  16.004  0.2437 -1.3130 -0.4586
19777TIP3   OH280821   2.861   5.036   5.010 -0.2582 -0.0917  0.2361
19777TIP3    H180822   2.786   5.095   5.019 -0.2190 -0.0817  0.5023
19777TIP3    H280823   2.928   5.090   4.969 -0.0209  0.2325  1.0208
19778TIP3   OH280824   5.842   4.920  13.437 -0.2081  0.0508 -0.0997
19778TIP3    H180825   5.902   4.916  13.512 -2.4934 -0.2251  1.8106
19778TIP3    H280826   5.805   5.008  13.441 -0.3882  0.0152 -0.8919
19779TIP3   OH280827   3.296   3.262  15.521  0.3162 -0.4327 -0.1671
19779TIP3    H180828   3.293   3.357  15.530 -0.1625 -0.5592  1.2017
19779TIP3    H280829   3.386   3.239  15.545 -0.0193 -0.4619  1.0917
19780TIP3   OH280830   0.241   6.201  12.544  0.2672  0.8724 -0.0739
19780TIP3    H180831   0.196   6.261  12.603  2.1524 -0.3799  2.8376
19780TIP3    H280832   0.223   6.114  12.578  1.9104  0.1264 -0.9646
19781TIP3   OH280833   2.078   6.082   3.170  0.4527 -0.3205  0.3719
19781TIP3    H180834   2.108   6.047   3.086 -0.6002  1.1572 -0.6770
19781TIP3    H280835   1.985   6.059   3.173 -0.3335  2.4268 -0.4574
19782TIP3   OH280836   4.487   1.178   2.102 -0.0650  0.2843 -0.3307
19782TIP3    H180837   4.487   1.267   2.137 -3.4921  0.4898 -0.4950
19782TIP3    H280838   4.562   1.136   2.143  0.5376  2.6694  1.2393
19783TIP3   OH280839   0.385   6.501  15.101 -0.2359 -0.2129  0.0229
19783TIP3    H180840   0.363   6.462  15.017  0.4109 -0.2875 -0.1087
19783TIP3    H280841   0.410   6.591  15.081  2.1209 -0.8562 -0.1566
19784TIP3   OH280842   3.304   3.740   7.404 -0.5583  0.5619 -1.0798
19784TIP3    H180843   3.363   3.664   7.405  1.8546  2.3148 -0.7670
19784TIP3    H280844   3.273   3.744   7.314 -0.2734 -0.4704 -1.2434
19785TIP3   OH280845   5.174   0.514  13.358  0.2229  0.4038 -0.0921
19785TIP3    H180846   5.199   0.479  13.272  1.4509  0.8968  0.0489
19785TIP3    H280847   5.079   0.522  13.353  0.1911 -0.3331 -1.1163
19786TIP3   OH280848   0.932   5.490  16.427  1.1046 -0.0485 -0.2002
19786TIP3    H180849   0.992   5.429  16.469  0.9744 -0.4437 -0.5761
19786TIP3    H280850   0.983   5.571  16.416  1.6335 -0.4386 -0.6852
19787TIP3   OH280851   4.677   1.414  12.267  0.0070  0.2142  0.6499
19787TIP3    H180852   4.768   1.383  12.262  0.1267  0.7327 -0.8387
19787TIP3    H280853   4.630   1.360  12.204 -0.1978  1.6349 -0.4487
19788TIP3   OH280854   0.716   3.951  15.282 -0.0801 -0.0564 -0.1065
19788TIP3    H180855   0.625   3.959  15.254 -0.6237 -0.9123  1.2748
19788TIP3    H280856   0.756   4.035  15.260 -0.9328 -0.0151 -1.6330
19789TIP3   OH280857   1.856   5.105   3.209 -0.2453 -0.0501  0.5515
19789TIP3    H180858   1.911   5.113   3.287 -0.1838  0.6476  0.4461
19789TIP3    H280859   1.909   5.141   3.138 -0.7993  0.5720  0.4373
19790TIP3   OH280860   1.025   2.478   1.868 -0.3080  0.3038 -0.3635
19790TIP3    H180861   1.020   2.466   1.962  0.0869  0.7354 -0.2811
19790TIP3    H280862   1.085   2.410   1.838 -2.1189 -1.2674 -0.6162
19791TIP3   OH280863   0.680   1.764   0.177  0.6024 -0.3415  0.3073
19791TIP3    H180864   0.670   1.797   0.088  0.9533  0.1893  0.4647
19791TIP3    H280865   0.649   1.673   0.171  2.2102 -0.8760 -0.7476
19792TIP3   OH280866   2.116   3.188   2.123  0.0644  1.0306 -0.3290
19792TIP3    H180867   2.051   3.242   2.079  0.0299  1.4149  0.1835
19792TIP3    H280868   2.066   3.113   2.156 -0.0731  1.1888 -0.1728
19793TIP3   OH280869   1.848   4.861  10.339  0.1908 -0.2437 -0.3962
19793TIP3    H180870   1.931   4.843  10.384 -0.6942 -1.0059  0.9808
19793TIP3    H280871   1.832   4.954  10.355  0.7925 -0.0780 -0.7140
19794TIP3   OH280872   3.173   3.258  12.039  0.0318  0.0596  0.1946
19794TIP3    H180873   3.201   3.182  12.090  0.1681 -0.7283 -1.0073
19794TIP3    H280874   3.106   3.300  12.094 -0.2328 -1.0776  0.7771
19795TIP3   OH280875   6.260   5.044  11.903 -0.2400 -0.2339  0.2273
19795TIP3    H180876   6.191   5.107  11.883  1.3250  1.6333  0.3124
19795TIP3    H280877   6.291   5.014  11.817  0.2812  0.6262  0.1023
19796TIP3   OH280878   1.929   6.381   4.318 -0.2388 -0.0076  0.6729
19796TIP3    H180879   1.978   6.374   4.236 -0.9261  0.1641  0.2299
19796TIP3    H280880   1.850   6.328   4.303  0.4669 -1.4724  1.8926
19797TIP3   OH280881   4.702   4.713  15.065  0.5437  0.0537  0.3468
19797TIP3    H180882   4.774   4.703  15.003  0.0528  2.1020 -0.6597
19797TIP3    H280883   4.737   4.683  15.149  2.2944  0.2270 -0.2942
19798TIP3   OH280884   1.444   0.858  15.186 -0.3779  0.1908 -0.0560
19798TIP3    H180885   1.421   0.939  15.142  1.8709  0.6820 -0.4601
19798TIP3    H280886   1.493   0.808  15.121  0.1558 -0.5202  0.8615
19799TIP3   OH280887   2.666   1.680  11.393  0.0232 -0.0518  0.4085
19799TIP3    H180888   2.718   1.718  11.464  1.6075  1.1549 -1.3298
19799TIP3    H280889   2.722   1.614  11.354 -0.4195  0.0453 -0.4049
19800TIP3   OH280890   2.801   4.128   1.431 -0.2491 -0.6849  0.5246
19800TIP3    H180891   2.745   4.128   1.509  1.0480  1.6683  1.5663
19800TIP3    H280892   2.884   4.091   1.461  1.1483  2.5633  1.1414
19801TIP3   OH280893   6.782   1.515   3.674  0.3921 -0.3185 -0.0858
19801TIP3    H180894   6.774   1.606   3.645  0.2833 -0.0424  0.7711
19801TIP3    H280895   6.702   1.499   3.724  0.6734 -0.7003  0.2487
19802TIP3   OH280896   1.509   2.341  16.308 -0.4472  0.5703  0.1149
19802TIP3    H180897   1.543   2.302  16.389  0.8938  0.7051 -0.3662
19802TIP3    H280898   1.453   2.273  16.270 -0.8028  0.3744  0.9597
19803TIP3   OH280899   1.509   4.079  15.492  0.1790 -0.3118 -0.1245
19803TIP3    H180900   1.436   4.107  15.548  0.5948 -0.8224  0.6799
19803TIP3    H280901   1.551   4.008  15.540  0.7272 -0.5634 -0.9548
19804TIP3   OH280902   2.675   3.381  13.300 -0.0590 -0.7098 -0.2103
19804TIP3    H180903   2.610   3.350  13.363  0.4790 -0.4290  0.4983
19804TIP3    H280904   2.759   3.367  13.343  0.4132 -1.7535 -1.4095
19805TIP3   OH280905   4.464   0.789  16.961  0.1399  0.3369 -0.3802
19805TIP3    H180906   4.407   0.844  17.015 -0.3046  0.8671 -1.3687
19805TIP3    H280907   4.552   0.822  16.980  0.2594 -0.9309  1.6724
19806TIP3   OH280908   1.880   5.919   6.312 -0.0400  0.0864 -0.4086
19806TIP3    H180909   1.961   5.880   6.280  0.7660  0.2578  1.3076
19806TIP3    H280910   1.898   6.013   6.316 -0.7689  0.2766 -1.1774
19807TIP3   OH280911   3.695   6.018  12.453  1.0513  0.4676  0.4086
19807TIP3    H180912   3.622   6.069  12.419  0.2344 -1.4488 -0.8697
19807TIP3    H280913   3.659   5.969  12.527  1.5257  0.8488  0.9027
19808TIP3   OH280914   5.177   5.915  12.329  0.5023 -0.5338 -0.3550
19808TIP3    H180915   5.159   5.866  12.409  1.8888 -2.5681 -1.2047
19808TIP3    H280916   5.273   5.926  12.329  0.3195  1.5571 -0.6070
19809TIP3   OH280917   5.687   1.801  17.072  0.1226 -0.4511  0.2608
19809TIP3    H180918   5.761   1.802  17.133  0.8399  1.2633 -0.5804
19809TIP3    H280919   5.704   1.728  17.013  0.7937 -0.4822  0.4945
19810TIP3   OH280920   2.347   6.209   2.324  0.2430 -0.1484 -0.3067
19810TIP3    H180921   2.424   6.153   2.324  0.2725 -0.1381  1.0783
19810TIP3    H280922   2.333   6.230   2.232  2.7826  1.0625 -0.5006
19811TIP3   OH280923   3.154   6.020   4.047  0.1882 -0.1510  0.1340
19811TIP3    H180924   3.124   5.936   4.013 -0.8694 -0.8370  2.5516
19811TIP3    H280925   3.100   6.035   4.124  2.8755  0.9035  1.9573
19812TIP3   OH280926   3.086   1.729   4.788  0.0440  0.2163 -0.6628
19812TIP3    H180927   3.094   1.823   4.771 -0.8206  0.3846 -0.1943
19812TIP3    H280928   3.045   1.723   4.874  0.6504 -0.6040 -0.4143
19813TIP3   OH280929   5.071   2.509   1.963 -0.1722  0.6217  0.0247
19813TIP3    H180930   5.036   2.501   2.051  1.3395  0.4590  0.6320
19813TIP3    H280931   4.999   2.482   1.906 -1.1369  0.6538  1.2049
19814TIP3   OH280932   3.050   1.881  13.181 -0.0664  0.1534 -0.0536
19814TIP3    H180933   2.988   1.932  13.128  0.3314  0.7445  0.0443
19814TIP3    H280934   3.135   1.895  13.138  0.4488  1.4845  1.3133
19815TIP3   OH280935   4.649   1.347   1.185  0.4374 -0.3527 -0.1943
19815TIP3    H180936   4.700   1.397   1.122  0.6398 -0.4919 -0.1418
19815TIP3    H280937   4.558   1.374   1.170  0.2155 -1.9058 -1.9663
19816TIP3   OH280938   5.408   1.253   5.180  0.3018 -0.7233  0.4596
19816TIP3    H180939   5.468   1.319   5.144 -0.3553 -0.4336 -0.1319
19816TIP3    H280940   5.321   1.287   5.159 -0.3075  0.8409  4.5726
19817TIP3   OH280941   0.017   3.826   1.124  0.0478 -0.6011  0.2771
19817TIP3    H180942   0.032   3.759   1.058  0.1132  0.6237 -0.9817
19817TIP3    H280943   0.093   3.821   1.181  0.7984 -0.5708 -0.7037
19818TIP3   OH280944   0.701   2.598  13.665  0.0653  0.1387 -0.2262
19818TIP3    H180945   0.705   2.527  13.729  0.3503 -0.8501 -1.3136
19818TIP3    H280946   0.790   2.635  13.666  0.3582 -0.5327 -0.7666
19819TIP3   OH280947   4.709   4.290   4.423  0.1854  0.0444 -0.6033
19819TIP3    H180948   4.724   4.383   4.440 -0.7636  0.0759  0.1520
19819TIP3    H280949   4.633   4.289   4.364  0.6610 -0.2274 -1.2111
19820TIP3   OH280950   1.732   5.649   2.578 -0.5483  0.2644 -0.1737
19820TIP3    H180951   1.726   5.745   2.582  0.3020  0.2891  1.1864
19820TIP3    H280952   1.819   5.632   2.544 -0.3554 -0.0127  0.4407
19821TIP3   OH280953   1.679   0.203   4.753  0.2036  0.4040 -0.0962
19821TIP3    H180954   1.605   0.206   4.813  0.2533  2.6609 -0.0626
19821TIP3    H280955   1.666   0.278   4.694  1.7918  0.1075 -0.8977
19822TIP3   OH280956   3.738   4.227  11.283  0.1336  0.0884 -0.4543
19822TIP3    H180957   3.798   4.283  11.332 -0.0547  0.5131 -0.7034
19822TIP3    H280958   3.787   4.146  11.268  0.0625 -0.1881  0.7452
19823TIP3   OH280959   1.773   1.053   2.641 -0.3337  0.1609 -0.2528
19823TIP3    H180960   1.847   1.068   2.699  0.4897  0.5878 -1.3751
19823TIP3    H280961   1.705   1.017   2.697  0.9559 -0.9242  0.6681
19824TIP3   OH280962   1.956   3.932   1.805 -0.3776  0.0980 -0.0134
19824TIP3    H180963   2.014   3.900   1.736 -2.1809 -0.7905 -1.1906
19824TIP3    H280964   1.952   3.860   1.868 -1.1683 -0.3786 -0.5836
19825TIP3   OH280965   0.277   1.654  10.260  0.4316  0.0671 -0.2622
19825TIP3    H180966   0.206   1.700  10.216  0.3374  0.0574 -0.1226
19825TIP3    H280967   0.246   1.643  10.350  1.9995  3.1811  0.8089
19826TIP3   OH280968   1.202   0.078   3.487  0.4074 -0.4059 -0.3109
19826TIP3    H180969   1.144   0.119   3.551  1.5550 -0.2425  0.6552
19826TIP3    H280970   1.168  -0.011   3.479  0.7363 -0.6914  1.1767
19827TIP3   OH280971   3.773   3.457  11.821 -0.0136 -0.2938 -0.1166
19827TIP3    H180972   3.835   3.389  11.794  2.4873  1.2981  1.3076
19827TIP3    H280973   3.714   3.413  11.882  0.0167 -1.7219 -1.0720
19828TIP3   OH280974   6.300   2.433   5.781  0.2452 -0.3796  0.1508
19828TIP3    H180975   6.337   2.445   5.869 -1.7798 -0.4628  1.0859
19828TIP3    H280976   6.376   2.431   5.723  1.5776  2.0006  1.6137
19829TIP3   OH280977   4.018   1.154   0.558 -0.0600  0.2294  0.1153
19829TIP3    H180978   4.050   1.175   0.470  0.5167  1.2618  0.5455
19829TIP3    H280979   3.998   1.240   0.597  2.0844  0.0281  1.8669
19830TIP3   OH280980   5.390   0.254  12.950 -0.0517 -0.1881 -0.0759
19830TIP3    H180981   5.458   0.246  12.883 -0.1215  1.0172 -0.3140
19830TIP3    H280982   5.350   0.167  12.954 -0.8562  0.0120 -2.4858
19831TIP3   OH280983   5.113   4.181  13.934  0.4382 -0.1604  0.0531
19831TIP3    H180984   5.166   4.111  13.973 -0.8242 -0.2583  1.7167
19831TIP3    H280985   5.159   4.261  13.958  1.2926 -0.3355 -0.9124
19832TIP3   OH280986   2.069   5.137   3.027  0.0832  0.1095  0.5253
19832TIP3    H180987   2.153   5.124   3.071  0.7460  3.0658  0.3072
19832TIP3    H280988   2.084   5.109   2.937  1.0166  1.1491  0.3490
19833TIP3   OH280989   0.067   6.003   5.556 -0.1876  0.1928  0.1173
19833TIP3    H180990   0.014   6.060   5.611  0.2582 -1.1059  2.0058
19833TIP3    H280991   0.141   6.056   5.528 -1.9262  1.7715 -1.8245
19834TIP3   OH280992   6.226   3.474  15.364  0.2161  0.4825 -0.7440
19834TIP3    H180993   6.194   3.407  15.425 -0.1672 -0.4194 -1.8992
19834TIP3    H280994   6.238   3.552  15.418  0.5637 -0.4833  0.6108
19835TIP3   OH280995   6.491   2.465   2.535 -0.0281 -0.1432  0.0260
19835TIP3    H180996   6.419   2.527   2.523 -0.4024 -0.1673  1.7920
19835TIP3    H280997   6.570   2.517   2.522 -0.3349  0.0079 -1.4030
19836TIP3   OH280998   4.887   2.350  13.388  0.2380 -0.0745 -0.4946
19836TIP3    H180999   4.946   2.345  13.464  1.5619 -0.4670 -1.5183
19836TIP3    H281000   4.943   2.377  13.316 -0.9196 -0.1351 -1.4437
19837TIP3   OH281001   5.688   1.388  13.300  0.3557 -0.2722  0.2089
19837TIP3    H181002   5.669   1.448  13.228  0.2708 -0.9118 -0.3124
19837TIP3    H281003   5.612   1.395  13.358  0.4847  0.3414  0.3066
19838TIP3   OH281004   1.429   1.023   1.975 -0.2269 -0.4000 -0.0463
19838TIP3    H181005   1.379   1.062   2.047  0.0684 -0.4061  0.1650
19838TIP3    H281006   1.398   1.068   1.897 -1.1457 -0.9618 -0.0278
19839TIP3   OH281007   3.488   4.180  13.248  0.3230  0.1451  0.3642
19839TIP3    H181008   3.399   4.191  13.216  0.2788  1.3260  0.8623
19839TIP3    H281009   3.502   4.085  13.248 -1.5093 -0.1760  1.8781
19840TIP3   OH281010   2.228   0.989   3.644 -0.0394  0.1171  1.3938
19840TIP3    H181011   2.132   0.987   3.644 -0.1416  1.7695  2.9122
19840TIP3    H281012   2.254   0.899   3.662 -1.2884 -0.3581  0.9780
19841TIP3   OH281013   5.404   3.587   1.661  0.2789 -0.6956  0.0204
19841TIP3    H181014   5.439   3.615   1.746 -1.1154 -1.7529  0.9864
19841TIP3    H281015   5.379   3.669   1.618  0.7201 -0.1563  0.7495
19842TIP3   OH281016   2.150   3.199  16.663 -0.5074  0.4389 -0.1767
19842TIP3    H181017   2.190   3.112  16.668  1.1560  1.1037 -1.0028
19842TIP3    H281018   2.135   3.213  16.570 -1.2661  0.8214 -0.0000
19843TIP3   OH281019   3.292   3.420  15.819  0.1290  0.0038 -0.2629
19843TIP3    H181020   3.259   3.342  15.865 -1.1216 -0.6482 -2.1355
19843TIP3    H281021   3.224   3.487  15.834  0.6381  0.3844  0.3806
19844TIP3   OH281022   4.337   2.363   1.451 -0.0618 -0.1899 -0.5775
19844TIP3    H181023   4.282   2.285   1.447  0.4449 -0.6595  0.9073
19844TIP3    H281024   4.385   2.363   1.368 -2.3160  0.2941 -1.9655
19845TIP3   OH281025   2.319   4.008   1.699  0.5781  0.0472  0.4724
19845TIP3    H181026   2.307   4.050   1.784 -1.4517  0.7153 -0.0984
19845TIP3    H281027   2.264   3.930   1.702  1.1911 -0.4214  0.0614
19846TIP3   OH281028   0.156   3.471  14.646  0.1585  0.0876 -0.5836
19846TIP3    H181029   0.072   3.436  14.676  0.6108 -1.9510 -1.4833
19846TIP3    H281030   0.195   3.509  14.725 -1.7788  1.5429 -0.2499
19847TIP3   OH281031   0.390   6.783  14.985 -0.2019 -0.5967  0.1634
19847TIP3    H181032   0.379   6.807  15.077  1.1909  0.2427  0.1316
19847TIP3    H281033   0.407   6.865  14.940 -1.5271 -0.9155 -0.9810
19848TIP3   OH281034   0.076   5.258   6.500  0.3290  0.1912  0.1575
19848TIP3    H181035   0.066   5.344   6.541  0.0611 -0.5778  1.7810
19848TIP3    H281036   0.014   5.260   6.427 -0.3086  1.0805  0.6904
19849TIP3   OH281037   1.788   1.526  16.910 -0.1178 -0.8415  0.6208
19849TIP3    H181038   1.722   1.582  16.868  1.1540 -1.5156 -2.5776
19849TIP3    H281039   1.845   1.587  16.957  1.2599  0.7748 -2.7812
19850TIP3   OH281040   6.370   0.939  16.860  0.0945 -0.3243  0.5704
19850TIP3    H181041   6.326   0.874  16.915  1.8197 -1.0374  1.1728
19850TIP3    H281042   6.367   1.020  16.911  0.7280 -0.7218  1.2633
19851TIP3   OH281043   0.546   0.274   6.149 -0.3431  0.1875 -0.2099
19851TIP3    H181044   0.592   0.321   6.219  1.9831 -1.0726 -0.7939
19851TIP3    H281045   0.520   0.343   6.087 -2.4892  1.3300  1.7950
19852TIP3   OH281046   5.918   2.137   5.491  0.6274  0.0983  0.5187
19852TIP3    H181047   5.898   2.214   5.438 -1.0719 -1.1465 -0.7522
19852TIP3    H281048   5.909   2.168   5.582  1.1801  1.6590  0.0731
19853TIP3   OH281049   2.448   1.582  15.078 -0.3757  0.5128 -0.3867
19853TIP3    H181050   2.473   1.532  15.000 -1.1393 -0.1012 -0.2513
19853TIP3    H281051   2.402   1.658  15.043 -0.3327  0.4653 -0.5518
19854TIP3   OH281052   4.152   2.185  15.896 -0.4166 -0.5403  0.1967
19854TIP3    H181053   4.124   2.273  15.922 -1.4056 -0.9169  0.4359
19854TIP3    H281054   4.160   2.137  15.978  0.5982 -0.5468  0.0991
19855TIP3   OH281055   1.466   5.526  11.784 -0.3975 -0.2127  0.0436
19855TIP3    H181056   1.395   5.589  11.793  0.8872  1.5986 -1.6105
19855TIP3    H281057   1.443   5.476  11.705  0.0611  0.2553 -0.3905
19856TIP3   OH281058   4.176   3.701  14.302  0.3583 -0.0886  0.3167
19856TIP3    H181059   4.228   3.738  14.231  1.9829 -1.1274  0.9160
19856TIP3    H281060   4.090   3.743  14.293  1.0828  1.1850 -1.1021
19857TIP3   OH281061   1.662   0.586   1.702 -0.6221  0.0152 -0.3786
19857TIP3    H181062   1.573   0.613   1.726 -0.7718  1.4463 -2.2593
19857TIP3    H281063   1.707   0.572   1.785 -2.0655  1.1079  0.6304
19858TIP3   OH281064   4.397   2.295   1.700  0.1129  0.0525  0.1050
19858TIP3    H181065   4.400   2.384   1.735 -0.2561  0.2783 -0.4140
19858TIP3    H281066   4.356   2.305   1.614  2.0075 -0.3327 -0.8988
19859TIP3   OH281067   2.739   2.059   0.424 -0.0141 -0.1939 -0.2133
19859TIP3    H181068   2.825   2.099   0.412  0.9125 -1.8625  0.6134
19859TIP3    H281069   2.744   1.976   0.376 -1.7427  0.3930 -1.5299
19860TIP3   OH281070   5.871   4.497  14.561  0.4102  0.1629  0.1573
19860TIP3    H181071   5.775   4.502  14.563  0.3171  0.8633 -2.1815
19860TIP3    H281072   5.900   4.575  14.609 -0.1978  0.2299  0.4303
19861TIP3   OH281073   2.733   3.928   6.559 -0.2585 -0.6944  0.7943
19861TIP3    H181074   2.740   3.933   6.654 -0.5634  0.4774  0.7741
19861TIP3    H281075   2.668   3.995   6.536 -1.9456 -2.5272 -0.0545
19862TIP3   OH281076   0.585   0.956  12.422 -0.3681  0.5631  0.2359
19862TIP3    H181077   0.555   0.926  12.337 -1.9946  3.4555 -0.3559
19862TIP3    H281078   0.512   0.937  12.482 -0.8067  1.8533  0.1462
19863TIP3   OH281079   2.586   5.790  13.647 -0.2315  0.5139  0.1970
19863TIP3    H181080   2.599   5.700  13.617  2.4161  1.4080 -1.7077
19863TIP3    H281081   2.649   5.800  13.718 -0.0992  1.0114  0.0121
19864TIP3   OH281082   0.763   2.237   3.824 -0.6742  0.3053  0.0714
19864TIP3    H181083   0.775   2.143   3.838 -1.2645 -0.0665 -1.6928
19864TIP3    H281084   0.835   2.262   3.766  1.1877  1.5955  2.7571
19865TIP3   OH281085   1.315   3.476  15.904  0.2857 -0.1375 -0.1172
19865TIP3    H181086   1.297   3.383  15.898 -0.6806  0.0943 -1.1055
19865TIP3    H281087   1.345   3.501  15.816  1.8044  0.2418  0.4820
19866TIP3   OH281088   0.815   2.308   5.299  0.5371  0.6034 -0.1029
19866TIP3    H181089   0.908   2.318   5.322  0.6074 -1.6984  0.8311
19866TIP3    H281090   0.768   2.318   5.382  0.0244  0.8255 -0.4162
19867TIP3   OH281091   0.905   4.707  11.059  0.0755 -0.0655  0.0812
19867TIP3    H181092   0.961   4.764  11.112  0.8680  0.9961 -1.8128
19867TIP3    H281093   0.835   4.763  11.027 -0.9594 -0.9241  0.7467
19868TIP3   OH281094   4.827   2.617  15.419  0.8712  0.4777  0.0723
19868TIP3    H181095   4.799   2.709  15.416  0.3517  0.3095 -0.6889
19868TIP3    H281096   4.911   2.616  15.374  1.0907  0.6491  0.4759
19869TIP3   OH281097   4.034   3.082   3.544  0.0810 -0.0242  0.0228
19869TIP3    H181098   4.064   3.148   3.481 -1.7922 -1.2897 -2.3978
19869TIP3    H281099   3.938   3.085   3.538 -0.1206 -0.9936  2.0102
19870TIP3   OH281100   4.566   2.194   5.367 -0.8300  0.1070  0.1624
19870TIP3    H181101   4.520   2.276   5.381 -0.0028  0.6327 -0.1402
19870TIP3    H281102   4.530   2.135   5.433 -1.0976  0.8452  0.6877
19871TIP3   OH281103   3.628   1.198   5.671  0.0080 -0.3451 -0.1595
19871TIP3    H181104   3.675   1.143   5.609  1.2554  1.0095 -0.4658
19871TIP3    H281105   3.694   1.223   5.736 -0.4008  1.1651 -0.2953
19872TIP3   OH281106   0.595   0.294   2.612  0.2136 -0.3767  0.4683
19872TIP3    H181107   0.563   0.204   2.621 -4.4319  0.7617 -1.7852
19872TIP3    H281108   0.516   0.348   2.617  2.7367  3.6313  1.1601
19873TIP3   OH281109   4.484   6.032  13.456 -0.6254 -0.5325 -0.0629
19873TIP3    H181110   4.421   6.076  13.398 -2.2360 -1.9616  0.5061
19873TIP3    H281111   4.453   6.052  13.544  0.7709  0.1654  0.2911
19874TIP3   OH281112   3.490   0.645  13.269  0.3688 -0.2497  0.5039
19874TIP3    H181113   3.425   0.590  13.224 -0.6608  1.5040 -0.2621
19874TIP3    H281114   3.571   0.594  13.267 -0.4211 -1.5099 -0.6066
19875TIP3   OH281115   1.512   1.062  10.672  0.0712  0.4531  0.3766
19875TIP3    H181116   1.591   1.011  10.693  0.7997  1.7350  0.8551
19875TIP3    H281117   1.487   1.103  10.755 -1.1273  0.0402  0.2331
19876TIP3   OH281118   2.980   2.645  14.256  0.2071 -0.4701 -0.2574
19876TIP3    H181119   2.990   2.729  14.301  1.1488  0.0372 -1.3515
19876TIP3    H281120   3.046   2.647  14.187 -0.3021 -1.7786 -0.8146
19877TIP3   OH281121   3.966   6.105  11.693  0.5170  0.0894 -0.6179
19877TIP3    H181122   3.934   6.157  11.620 -0.1729  0.2287 -0.2259
19877TIP3    H281123   3.936   6.016  11.675  0.1099  0.1732 -0.3783
19878TIP3   OH281124   3.668   2.940   0.008  0.2286 -0.0110  0.5662
19878TIP3    H181125   3.746   2.891  -0.017 -1.0956 -1.2180 -1.3773
19878TIP3    H281126   3.692   2.980   0.092  2.7660 -0.6798  0.2503
19879TIP3   OH281127   6.714   4.490  15.726  0.3751  0.3459 -0.0753
19879TIP3    H181128   6.714   4.418  15.663 -1.2538 -1.4257  1.8093
19879TIP3    H281129   6.675   4.564  15.679  2.1450  0.1006 -2.0807
19880TIP3   OH281130   2.392   0.960  11.688  1.0174  0.6403  0.0905
19880TIP3    H181131   2.458   0.989  11.751 -0.5589  1.4234  1.4606
19880TIP3    H281132   2.361   0.876  11.723 -0.1715  1.2825  0.6682
19881TIP3   OH281133   3.770   1.431  13.472  0.0941 -0.6911  0.7486
19881TIP3    H181134   3.677   1.451  13.461 -0.2109 -1.2258  2.1032
19881TIP3    H281135   3.779   1.341  13.439  0.7190  0.2664 -1.9100
19882TIP3   OH281136   2.120   3.976  16.970  0.6098 -0.1616 -0.6469
19882TIP3    H181137   2.036   3.931  16.979  1.1873 -0.9780  0.8973
19882TIP3    H281138   2.158   3.940  16.890 -0.0338 -0.5810 -0.7715
19883TIP3   OH281139   2.137   3.979  13.812 -0.0161 -0.6624  0.9006
19883TIP3    H181140   2.215   4.034  13.809 -1.0983  0.9367  1.1646
19883TIP3    H281141   2.164   3.901  13.860  1.0941  0.4182  2.0934
19884TIP3   OH281142   0.518   3.235  12.462  0.3516  0.0188  0.1432
19884TIP3    H181143   0.552   3.324  12.474  0.1677  0.3850 -1.7254
19884TIP3    H281144   0.510   3.200  12.551  0.1970  1.9531  0.9422
19885TIP3   OH281145   0.574   0.456  15.356  0.1300 -0.0938 -0.6738
19885TIP3    H181146   0.629   0.388  15.395 -1.2589 -0.7281  0.2963
19885TIP3    H281147   0.535   0.501  15.430 -0.0198  0.8818 -1.3272
19886TIP3   OH281148   4.936   5.611  12.004 -0.3040 -0.1208 -0.8267
19886TIP3    H181149   5.019   5.569  11.978  0.2854  0.3522  0.2027
19886TIP3    H281150   4.960   5.702  12.019 -1.0684  0.0593 -0.7015
19887TIP3   OH281151   3.703   4.814   4.360 -0.5394  0.0276 -0.3786
19887TIP3    H181152   3.695   4.769   4.276  1.6764  0.5502 -0.9401
19887TIP3    H281153   3.714   4.907   4.337  1.1954  0.0434  0.3920
19888TIP3   OH281154   6.058   1.624   3.787  0.6505  0.4848 -0.5496
19888TIP3    H181155   6.050   1.708   3.834  1.2213  0.4692 -0.4173
19888TIP3    H281156   6.120   1.642   3.717  1.4492 -0.0466  0.0059
19889TIP3   OH281157   2.989   5.975  10.500 -0.4787  0.0411 -0.9472
19889TIP3    H181158   2.893   5.971  10.495 -0.4124 -1.6570 -1.4483
19889TIP3    H281159   3.019   5.923  10.426  0.8725  1.5631 -1.5352
19890TIP3   OH281160   5.813   6.099  12.505 -0.4824 -0.2584 -0.3498
19890TIP3    H181161   5.780   6.155  12.435  1.4661  1.6472  0.1645
19890TIP3    H281162   5.884   6.149  12.546  0.4252 -2.5250  1.0829
19891TIP3   OH281163   5.835   3.414   5.353  0.3658  0.2224  0.1662
19891TIP3    H181164   5.888   3.415   5.433  0.4429  0.9935  0.1125
19891TIP3    H281165   5.881   3.473   5.293  0.5701 -0.7179 -0.6236
19892TIP3   OH281166   4.306   4.105   4.893 -0.1592  0.0746 -0.2995
19892TIP3    H181167   4.302   4.185   4.946 -1.4038  0.4523 -0.9256
19892TIP3    H281168   4.337   4.038   4.953  1.5893  1.1523  0.0726
19893TIP3   OH281169   3.574   1.117   2.132  0.1247 -0.2892 -0.1141
19893TIP3    H181170   3.615   1.048   2.184 -0.9776 -1.6000 -0.8995
19893TIP3    H281171   3.635   1.134   2.060  0.0016 -1.1165 -0.4196
19894TIP3   OH281172   3.315   5.458  14.471  0.1614 -0.2172 -0.0904
19894TIP3    H181173   3.275   5.490  14.390  1.0715  0.5935 -0.2304
19894TIP3    H281174   3.247   5.470  14.538 -0.5331 -0.7320 -0.6890
19895TIP3   OH281175   5.910   1.317  13.469  0.7836 -0.0955 -0.6649
19895TIP3    H181176   5.891   1.375  13.542 -2.3034 -2.0556  0.3023
19895TIP3    H281177   5.859   1.352  13.396 -1.5803 -1.7213  0.0842
19896TIP3   OH281178   1.633   0.157  14.211  0.3484  0.5557 -0.1351
19896TIP3    H181179   1.691   0.229  14.237 -1.2647  2.2943 -1.1572
19896TIP3    H281180   1.641   0.153  14.116 -1.6144  1.2286 -0.3584
19897TIP3   OH281181   5.807   5.616   2.729  0.3412  0.1510  0.3530
19897TIP3    H181182   5.767   5.699   2.703  2.1652  1.1793  0.6929
19897TIP3    H281183   5.848   5.584   2.649 -0.1072 -0.2999  0.2959
19898TIP3   OH281184   1.051   2.690  15.374 -0.5304  0.5316  0.9481
19898TIP3    H181185   1.141   2.658  15.367 -0.1402  1.5342  1.1812
19898TIP3    H281186   1.044   2.754  15.304 -2.1562 -1.9128 -1.3017
19899TIP3   OH281187   3.008   3.931   7.003  0.4097  0.0160  0.3152
19899TIP3    H181188   3.010   4.019   6.966 -0.8081 -0.0230  0.1374
19899TIP3    H281189   3.014   3.873   6.926 -2.1482 -0.0660  0.0893
19900TIP3   OH281190   4.331   6.733   3.485 -0.0486 -0.7614  0.0077
19900TIP3    H181191   4.410   6.766   3.441 -0.4501  0.1929 -0.0259
19900TIP3    H281192   4.360   6.711   3.573 -0.1058  1.4171  0.6251
19901TIP3   OH281193   1.193   6.402  15.059 -0.0420 -0.6959 -0.2415
19901TIP3    H181194   1.181   6.401  14.964 -0.4646  0.7242 -0.2156
19901TIP3    H281195   1.137   6.472  15.090  0.9067 -0.4251  0.9545
19902TIP3   OH281196   4.815   6.564  11.201  0.3615  0.6939 -0.3749
19902TIP3    H181197   4.860   6.533  11.123 -0.5793  0.7756 -0.9696
19902TIP3    H281198   4.811   6.487  11.259  0.2665  0.3852 -0.7891
19903TIP3   OH281199   2.052   0.441  16.670  0.0706  0.1026  0.4026
19903TIP3    H181200   2.034   0.362  16.618 -1.0126  0.2937  0.4612
19903TIP3    H281201   2.144   0.433  16.694  0.3581 -0.4400 -0.7935
19904TIP3   OH281202   0.162   2.817  12.956  0.1563 -0.3748  0.2069
19904TIP3    H181203   0.234   2.753  12.954  0.3706 -0.1344  0.1563
19904TIP3    H281204   0.083   2.764  12.953  0.3379 -0.5967 -1.1304
19905TIP3   OH281205   3.368   6.244  11.710  0.1584 -0.1403 -0.1043
19905TIP3    H181206   3.410   6.187  11.773 -1.6070 -2.0858 -0.5601
19905TIP3    H281207   3.403   6.216  11.625  3.2952  3.1331 -0.0998
19906TIP3   OH281208   2.663   6.702  13.746 -0.2224  0.2682  0.0934
19906TIP3    H181209   2.662   6.613  13.783 -0.7510  0.1490 -0.2021
19906TIP3    H281210   2.695   6.689  13.656  0.2075  0.4476  0.2165
19907TIP3   OH281211   5.207   3.748  10.671 -0.0464  0.1861 -0.0581
19907TIP3    H181212   5.262   3.746  10.592 -0.6153  0.1718 -0.4621
19907TIP3    H281213   5.118   3.741  10.638 -0.2971  0.2534  0.5899
19908TIP3   OH281214   1.384   3.656  10.703  0.1374 -0.3714  0.3576
19908TIP3    H181215   1.443   3.590  10.665  2.7929  2.1780 -0.3425
19908TIP3    H281216   1.318   3.671  10.635  1.3016 -0.1885 -0.7786
19909TIP3   OH281217   5.639   4.083   1.973  1.1276 -0.0106 -0.4524
19909TIP3    H181218   5.685   4.133   2.041 -0.7170 -0.1160  0.9343
19909TIP3    H281219   5.556   4.130   1.961 -0.5203 -2.4631  0.6539
19910TIP3   OH281220   5.608   0.297   3.251  0.0412  0.0523 -0.2599
19910TIP3    H181221   5.583   0.347   3.329  0.4891  1.3216 -0.8873
19910TIP3    H281222   5.637   0.212   3.285 -1.3678 -0.0455  0.7920
19911TIP3   OH281223   5.590   2.694  10.430 -0.3976  0.0719 -0.4926
19911TIP3    H181224   5.634   2.610  10.420 -0.7894 -0.4858  2.0387
19911TIP3    H281225   5.500   2.678  10.403 -0.9044 -0.8325  1.5555
19912TIP3   OH281226   5.536   6.312   3.483 -0.2217  0.3996 -0.5326
19912TIP3    H181227   5.488   6.255   3.543 -1.0663  1.4282 -0.2027
19912TIP3    H281228   5.504   6.289   3.396  0.9119 -1.0049 -0.6155
19913TIP3   OH281229   0.436   0.860   3.762  0.0053 -0.1290  0.6412
19913TIP3    H181230   0.456   0.853   3.856  1.7026  1.3027  0.4253
19913TIP3    H281231   0.469   0.946   3.737 -1.8941  0.2050 -0.9593
19914TIP3   OH281232   3.182   2.555  15.439 -0.1628  0.4761  0.0532
19914TIP3    H181233   3.145   2.638  15.408  0.0482  0.3427 -0.5744
19914TIP3    H281234   3.179   2.497  15.362  1.3256  0.4552 -0.0111
19915TIP3   OH281235   4.492   2.586   1.831 -0.1148  0.6117  0.0826
19915TIP3    H181236   4.402   2.579   1.863  0.1371 -2.5247  0.4451
19915TIP3    H281237   4.505   2.680   1.816 -3.0096  1.3023  1.1723
19916TIP3   OH281238   1.035   6.173   0.761  0.0356 -0.3262  0.1717
19916TIP3    H181239   1.031   6.256   0.808  1.9624 -0.9339  1.5206
19916TIP3    H281240   1.116   6.132   0.791 -1.4413 -3.2671  0.5117
19917TIP3   OH281241   2.590   4.090  14.043  0.0102  0.5355 -0.4872
19917TIP3    H181242   2.515   4.100  14.102 -0.0972  1.4288 -0.7583
19917TIP3    H281243   2.657   4.147  14.080 -0.6525  2.5201 -2.1573
19918TIP3   OH281244   0.106   6.355  12.752  0.1304 -0.6890 -0.1206
19918TIP3    H181245   0.037   6.320  12.809 -0.7626  2.7050  1.1490
19918TIP3    H281246   0.173   6.387  12.813  0.3121  0.8065 -1.0614
19919TIP3   OH281247   1.248   3.890  13.293  0.5043 -0.1780  0.1693
19919TIP3    H181248   1.185   3.818  13.301 -0.0273  0.3051  0.3900
19919TIP3    H281249   1.334   3.848  13.299  0.1981 -0.6009  2.1914
19920TIP3   OH281250   5.903   6.539   5.430 -0.3374  0.4646 -0.2450
19920TIP3    H181251   5.937   6.488   5.356  0.6076  1.2036 -0.3409
19920TIP3    H281252   5.809   6.522   5.429 -0.4353  0.8550 -1.9506
19921TIP3   OH281253   3.796   0.629  15.635 -0.0824 -0.1147 -0.4084
19921TIP3    H181254   3.847   0.682  15.573 -0.5720  0.3390 -0.4393
19921TIP3    H281255   3.784   0.545  15.591 -0.7449  0.3295 -1.1109
19922TIP3   OH281256   2.626   2.828  15.181 -0.0240  1.0383 -0.3977
19922TIP3    H181257   2.594   2.839  15.091 -0.5655  1.5330 -0.1558
19922TIP3    H281258   2.549   2.843  15.235 -0.2133 -1.3936  0.1095
19923TIP3   OH281259   1.288   0.712   4.174 -0.4974  0.6908  0.2661
19923TIP3    H181260   1.202   0.731   4.137 -0.4251  0.7907  0.1471
19923TIP3    H281261   1.350   0.742   4.108 -0.3755  0.1921  0.1502
19924TIP3   OH281262   1.189   1.118  10.498  0.1078 -0.3069  0.0457
19924TIP3    H181263   1.188   1.103  10.592 -1.0472 -0.4519  0.0227
19924TIP3    H281264   1.281   1.106  10.473  0.1509 -2.0444  0.8704
19925TIP3   OH281265   4.628   1.932  12.902 -0.3663 -0.1089  0.3676
19925TIP3    H181266   4.668   2.016  12.879 -2.0881  0.7122  0.2451
19925TIP3    H281267   4.562   1.954  12.967 -0.1933 -1.5231  1.0604
19926TIP3   OH281268   5.141   2.081  14.510  0.4469 -0.0209  0.6110
19926TIP3    H181269   5.075   2.141  14.544  0.2113 -0.4889  0.9899
19926TIP3    H281270   5.196   2.061  14.586 -0.4293 -1.5299  0.8740
19927TIP3   OH281271   1.923   5.465  14.928 -0.2934  0.1919 -0.0055
19927TIP3    H181272   1.977   5.537  14.962 -1.6093  0.5736  1.4083
19927TIP3    H281273   1.882   5.501  14.850  0.8416  0.1686 -0.6284
19928TIP3   OH281274   6.053   3.290  12.847 -0.1773  0.3962 -0.4095
19928TIP3    H181275   5.997   3.258  12.918  1.1720  1.0178  0.9991
19928TIP3    H281276   6.099   3.212  12.816 -1.4052 -0.0252 -1.2196
19929TIP3   OH281277   4.842   4.071  16.247 -0.4490 -0.5863  0.3222
19929TIP3    H181278   4.749   4.074  16.268 -1.2561 -1.0730 -2.6680
19929TIP3    H281279   4.845   4.078  16.151  2.5590 -1.2593  0.2679
19930TIP3   OH281280   1.747   3.171  13.693 -0.4898 -0.4556  0.1261
19930TIP3    H181281   1.707   3.085  13.682  0.7407 -0.8094 -2.4463
19930TIP3    H281282   1.805   3.162  13.769 -0.1250 -2.0254 -0.3149
19931TIP3   OH281283   1.441   3.259  16.337  0.2811 -0.1182 -0.2629
19931TIP3    H181284   1.388   3.329  16.298 -0.5842 -0.5390  0.1276
19931TIP3    H281285   1.456   3.197  16.265  0.7240  0.2779 -0.5138
19932TIP3   OH281286   4.546   6.172  11.608 -0.3457  0.1386  0.2235
19932TIP3    H181287   4.618   6.202  11.552 -0.8028 -0.7790 -0.9095
19932TIP3    H281288   4.567   6.205  11.695  0.6960  1.1105 -0.3778
19933TIP3   OH281289   3.282   4.040   2.546 -0.0628 -1.3039 -0.0849
19933TIP3    H181290   3.308   4.130   2.563 -0.4336 -0.7149 -2.3795
19933TIP3    H281291   3.365   3.993   2.535  0.1192 -0.8937 -0.4865
19934TIP3   OH281292   2.244   6.385  11.266 -0.6593  0.1534 -0.0341
19934TIP3    H181293   2.169   6.386  11.207 -0.4861 -0.4359 -0.2746
19934TIP3    H281294   2.294   6.464  11.242 -0.4439 -0.2238 -0.8814
19935TIP3   OH281295   4.662   3.110  15.590 -0.2257 -0.1937 -0.0156
19935TIP3    H181296   4.698   3.034  15.637 -0.3803  0.2968  0.9107
19935TIP3    H281297   4.579   3.079  15.555 -1.1849  0.0507  1.9290
19936TIP3   OH281298   6.768   1.518  13.788 -0.1299 -0.2713 -0.1045
19936TIP3    H181299   6.721   1.513  13.872  1.4815  1.1737  0.9657
19936TIP3    H281300   6.858   1.492  13.809  0.3579  0.3200 -1.3323
19937TIP3   OH281301   2.304   4.420  14.954  0.0630 -0.6320 -0.2430
19937TIP3    H181302   2.232   4.358  14.946  1.5418 -3.0000  2.6346
19937TIP3    H281303   2.271   4.488  15.013 -0.8842  0.2582 -1.7437
19938TIP3   OH281304   6.533   6.546  13.348  0.0527 -0.0935  0.2718
19938TIP3    H181305   6.487   6.614  13.397  0.5772  1.6405 -1.5117
19938TIP3    H281306   6.614   6.532  13.398 -0.4165  0.0206  1.0780
19939TIP3   OH281307   1.474   5.886  13.259 -0.1232 -0.1738  0.1390
19939TIP3    H181308   1.498   5.921  13.173  1.4986  0.9364  0.9945
19939TIP3    H281309   1.379   5.897  13.263 -0.0657  1.0615 -0.9672
19940TIP3   OH281310   6.535   4.456   2.194  0.2829  0.4377 -0.3958
19940TIP3    H181311   6.579   4.440   2.110  0.9744 -0.4611  0.1140
19940TIP3    H281312   6.444   4.473   2.171  0.6559  1.1754 -1.3984
19941TIP3   OH281313   4.114   0.981   3.750 -0.0147 -0.2171 -0.2408
19941TIP3    H181314   4.149   0.955   3.836  1.3805  1.3344 -0.2818
19941TIP3    H281315   4.190   1.016   3.703 -1.3753  2.1540 -0.8209
19942TIP3   OH281316   1.621   1.304  16.747  0.4016 -0.2261 -0.4591
19942TIP3    H181317   1.618   1.395  16.776  0.8515 -0.2479 -0.3375
19942TIP3    H281318   1.542   1.264  16.784  1.3702 -0.4632  1.4835
19943TIP3   OH281319   2.356   5.196   4.657 -0.2472  0.3813 -0.7812
19943TIP3    H181320   2.449   5.210   4.673 -0.5962  1.4868  0.3949
19943TIP3    H281321   2.340   5.239   4.573 -0.0496  1.8675 -0.0968
19944TIP3   OH281322   2.760   0.011  15.289  0.0100  0.2325  0.1332
19944TIP3    H181323   2.702   0.082  15.313  0.0021 -0.0455  0.9714
19944TIP3    H281324   2.733  -0.062  15.345 -0.6816 -0.7762 -1.4305
19945TIP3   OH281325   0.447   2.595   3.188 -0.0352 -0.5342  0.1058
19945TIP3    H181326   0.451   2.508   3.228 -0.4248 -0.2855  0.6907
19945TIP3    H281327   0.359   2.599   3.150  0.2693 -0.7021 -0.6442
19946TIP3   OH281328   2.107   2.389   6.389 -0.6032 -0.3814 -0.1654
19946TIP3    H181329   2.173   2.336   6.434  0.1598 -0.9026 -1.8169
19946TIP3    H281330   2.052   2.423   6.459  0.1662 -1.6341  1.1048
19947TIP3   OH281331   3.866   1.489  15.275 -0.0410 -0.1452  0.6083
19947TIP3    H181332   3.859   1.441  15.358  0.5889  1.3671  1.5908
19947TIP3    H281333   3.779   1.527  15.262 -0.3055 -0.8559  0.2578
19948TIP3   OH281334   3.398   3.815  14.515 -0.1238 -0.0606  0.3748
19948TIP3    H181335   3.333   3.806  14.584  0.5631 -0.6882  0.9590
19948TIP3    H281336   3.482   3.816  14.561  0.2652  1.5377 -0.2944
19949TIP3   OH281337   5.005   4.882  14.456  0.0367  0.0548  0.5916
19949TIP3    H181338   4.954   4.948  14.503 -2.5986 -0.8725 -0.7637
19949TIP3    H281339   4.941   4.813  14.436  1.9645 -1.4053 -0.8509
19950TIP3   OH281340   1.132   1.843  13.204 -0.3979 -1.1356  0.1533
19950TIP3    H181341   1.198   1.910  13.224 -1.9931  0.5748 -0.0403
19950TIP3    H281342   1.114   1.855  13.110 -0.3551 -2.1939 -0.0048
19951TIP3   OH281343   3.044   1.091  14.653  0.1094 -0.3585 -0.1512
19951TIP3    H181344   3.061   1.142  14.732 -1.0506 -0.0991 -0.0522
19951TIP3    H281345   3.038   1.000  14.683  0.0173 -0.3007  0.0015
19952TIP3   OH281346   5.379   0.787  13.031  0.4960 -0.0042 -0.1679
19952TIP3    H181347   5.401   0.709  13.081  1.4316 -0.0136 -0.5774
19952TIP3    H281348   5.460   0.838  13.029 -0.4194  1.6068  1.1815
19953TIP3   OH281349   2.381   1.149  11.464 -0.6124  0.6655 -0.3099
19953TIP3    H181350   2.290   1.139  11.435 -1.0354  0.8816  0.8806
19953TIP3    H281351   2.383   1.110  11.551  0.8545 -0.8681 -0.9743
19954TIP3   OH281352   2.835   0.080   1.683  0.3330  0.7996 -0.4799
19954TIP3    H181353   2.864   0.064   1.773 -2.3231 -1.5329  0.1225
19954TIP3    H281354   2.782   0.160   1.688  0.1151  0.6236  0.0911
19955TIP3   OH281355   5.150   0.056  13.584  0.6185  0.4700 -0.3167
19955TIP3    H181356   5.231   0.094  13.551  1.3240 -1.1870 -0.5850
19955TIP3    H281357   5.131  -0.016  13.525 -1.4185  1.1849 -0.6315
19956TIP3   OH281358   3.627   1.056   1.352 -0.1150 -0.4444 -0.2796
19956TIP3    H181359   3.649   1.131   1.408  0.7706 -0.7236 -0.2292
19956TIP3    H281360   3.637   1.089   1.263 -1.1676 -0.1022 -0.2863
19957TIP3   OH281361   5.053   6.708   0.778  0.0458 -0.0571  0.3260
19957TIP3    H181362   5.013   6.793   0.759 -0.7442 -0.6044 -0.5266
19957TIP3    H281363   5.002   6.674   0.852  0.3954  0.2135  0.7019
19958TIP3   OH281364   6.270   6.295  10.967 -0.1368 -0.2563  0.1428
19958TIP3    H181365   6.248   6.367  11.026 -1.5503 -1.6152  1.3961
19958TIP3    H281366   6.193   6.287  10.910 -0.2356 -1.0926  0.3803
19959TIP3   OH281367   1.193   3.713  15.168 -0.4747 -0.7648 -0.2960
19959TIP3    H181368   1.129   3.664  15.219 -1.1209 -0.6033 -0.9403
19959TIP3    H281369   1.278   3.685  15.202 -0.8848 -1.0401  0.5090
19960TIP3   OH281370   5.506   5.307   1.282 -0.1055 -0.2073 -0.1376
19960TIP3    H181371   5.579   5.343   1.332 -0.5510 -0.9390  1.1066
19960TIP3    H281372   5.459   5.253   1.345 -3.4780  2.5410  0.0437
19961TIP3   OH281373   2.845   6.611   0.945 -0.2733  0.5258  0.3786
19961TIP3    H181374   2.822   6.701   0.968  0.5695  0.5578  1.1346
19961TIP3    H281375   2.939   6.604   0.964  0.3141  0.2983 -2.3136
19962TIP3   OH281376   1.968   4.278  13.026  0.6624  0.1454  0.1982
19962TIP3    H181377   1.952   4.331  13.103 -1.1765  0.1923 -0.1807
19962TIP3    H281378   2.057   4.301  12.999  0.2338  2.3846  0.5381
19963TIP3   OH281379   0.931   2.078  13.516 -0.5402 -0.3596  0.3897
19963TIP3    H181380   0.842   2.051  13.496 -1.1961  2.2255 -0.6525
19963TIP3    H281381   0.929   2.099  13.610 -1.0159 -0.4279  0.3982
19964TIP3   OH281382   4.919   6.361  14.977  0.1837  0.0733  0.9603
19964TIP3    H181383   4.915   6.297  15.048 -0.2050  0.5063  1.3343
19964TIP3    H281384   4.827   6.383  14.960  0.3315  0.7487  1.0328
19965TIP3   OH281385   0.005   5.892   3.231  0.4416  0.4174  0.2959
19965TIP3    H181386  -0.059   5.866   3.165 -1.0848 -1.2266  2.2803
19965TIP3    H281387   0.089   5.888   3.186 -0.4664 -1.1606 -1.4230
19966TIP3   OH281388   1.168   5.915  13.311  0.1996  0.3812 -0.6370
19966TIP3    H181389   1.141   5.860  13.237 -1.2650  1.3273 -0.8430
19966TIP3    H281390   1.145   6.004  13.284 -1.6910  0.6204  1.4845
19967TIP3   OH281391   6.553   5.979  14.735 -0.4838 -0.3913 -0.2974
19967TIP3    H181392   6.497   5.966  14.659  1.2463 -0.4655 -1.6459
19967TIP3    H281393   6.591   5.892  14.752  1.3854  0.1794 -1.2666
19968TIP3   OH281394   5.489   1.553  14.453 -0.4547  0.2230  0.6762
19968TIP3    H181395   5.552   1.524  14.388  0.1469  1.9007  0.4602
19968TIP3    H281396   5.514   1.507  14.533 -1.1428 -1.7840 -0.2132
19969TIP3   OH281397   4.709   6.562   2.331 -0.1192  0.4684 -0.1494
19969TIP3    H181398   4.716   6.657   2.338 -0.7087  0.5609 -0.6952
19969TIP3    H281399   4.662   6.548   2.249 -0.8778 -0.2639  0.3964
19970TIP3   OH281400   5.682   3.158   4.438 -0.5963 -0.5517  0.0638
19970TIP3    H181401   5.778   3.156   4.430 -0.2497  2.1981  2.2373
19970TIP3    H281402   5.665   3.139   4.530 -2.0373  0.4259  0.0213
19971TIP3   OH281403   2.959   2.508  16.763 -0.4404 -0.5744  0.2296
19971TIP3    H181404   2.877   2.509  16.714  1.0987 -1.2959 -2.5759
19971TIP3    H281405   2.961   2.421  16.804 -0.5056 -1.0473 -0.7597
19972TIP3   OH281406   0.796   1.621  12.517  0.6017  0.5185  0.0240
19972TIP3    H181407   0.754   1.538  12.492  0.7727  0.4304  0.0288
19972TIP3    H281408   0.882   1.617  12.476  1.6222 -0.4444  2.1056
19973TIP3   OH281409   0.161   3.869   2.367 -0.1861 -0.0385 -0.5056
19973TIP3    H181410   0.155   3.931   2.294 -0.0179  1.0119  0.3487
19973TIP3    H281411   0.205   3.917   2.436  0.6554 -1.3771 -0.0717
19974TIP3   OH281412   0.439   4.304   3.438  0.0191 -0.2068 -0.8127
19974TIP3    H181413   0.528   4.269   3.435 -0.2734 -1.0099 -0.6005
19974TIP3    H281414   0.446   4.392   3.400  1.2668  0.5741  1.0954
19975TIP3   OH281415   4.825   6.168   4.050 -0.1175  0.0719  0.5437
19975TIP3    H181416   4.776   6.138   3.973 -0.2014  2.1753 -0.2984
19975TIP3    H281417   4.909   6.198   4.015  0.3018 -0.0113  1.4488
19976TIP3   OH281418   3.315   2.643   3.125  0.0931 -0.0604  0.2780
19976TIP3    H181419   3.369   2.580   3.077  0.2947  1.3423 -1.3975
19976TIP3    H281420   3.364   2.659   3.206  0.1361 -1.8580  0.6617
19977TIP3   OH281421   6.480   2.643  13.073 -0.2260 -0.2103  0.2160
19977TIP3    H181422   6.493   2.577  13.141 -1.7090 -0.9956 -0.2328
19977TIP3    H281423   6.394   2.680  13.091 -0.0090  0.6222 -0.3713
19978TIP3   OH281424   3.310   1.586  16.281  0.3052  0.6483 -0.0697
19978TIP3    H181425   3.216   1.592  16.266  0.3005 -0.4402 -0.5197
19978TIP3    H281426   3.350   1.598  16.195  0.5804  1.0547  0.1098
19979TIP3   OH281427   3.176   4.029   2.943  0.6409  0.1868 -0.1244
19979TIP3    H181428   3.156   4.008   2.851 -0.7771  3.5696 -0.7378
19979TIP3    H281429   3.152   4.121   2.952  1.3596  0.1542  3.5312
19980TIP3   OH281430   3.173   2.894   5.619 -0.2912 -0.4175  0.3257
19980TIP3    H181431   3.121   2.815   5.636 -0.4689 -0.0534  1.5908
19980TIP3    H281432   3.219   2.910   5.701  1.0845 -0.1725 -0.4746
19981TIP3   OH281433   2.986   2.338  14.724  0.4585 -0.5965  0.1123
19981TIP3    H181434   3.062   2.396  14.714 -0.3527  0.7596  1.3478
19981TIP3    H281435   2.913   2.388  14.688 -0.2479 -0.8824  1.0979
19982TIP3   OH281436   0.476   1.343  14.542  0.4409 -0.1360 -0.6271
19982TIP3    H181437   0.552   1.398  14.563  0.2057 -0.2344  0.5716
19982TIP3    H281438   0.479   1.273  14.608 -1.1129  0.2799 -0.0691
19983TIP3   OH281439   5.770   0.637   2.636 -0.0501 -0.0522 -0.1047
19983TIP3    H181440   5.790   0.601   2.549 -0.0441  0.0382 -0.1412
19983TIP3    H281441   5.738   0.725   2.618 -1.6424 -0.6016 -0.1400
19984TIP3   OH281442   1.011   5.548  15.489  0.1651  0.2865  0.8885
19984TIP3    H181443   1.036   5.515  15.402 -1.0296 -0.6480  0.8736
19984TIP3    H281444   0.975   5.472  15.534 -0.9918  1.1808  1.5235
19985TIP3   OH281445   4.629   1.908  16.227  0.4236 -0.3266  0.1442
19985TIP3    H181446   4.575   1.856  16.288  0.7919 -0.2431  0.5461
19985TIP3    H281447   4.565   1.950  16.169  0.1740 -3.7335 -2.3467
19986TIP3   OH281448   6.636   1.881   1.314  0.3241  0.3269 -0.3942
19986TIP3    H181449   6.602   1.921   1.234 -2.3354 -0.1958  0.3698
19986TIP3    H281450   6.650   1.955   1.374  0.9441  0.5978 -0.8735
19987TIP3   OH281451   5.562   1.019   1.035  0.0385 -0.1344  0.3188
19987TIP3    H181452   5.630   1.085   1.053 -0.0676  0.4060 -1.0920
19987TIP3    H281453   5.495   1.067   0.986 -1.1016 -0.8017  1.1985
19988TIP3   OH281454   1.103   5.612   4.868  0.0340 -0.0798 -0.0703
19988TIP3    H181455   1.149   5.534   4.837  1.2843  0.8663 -0.7105
19988TIP3    H281456   1.137   5.626   4.956  0.5022  0.2515 -0.3000
19989TIP3   OH281457   1.672   0.804  15.620 -0.3485 -0.0972 -1.0218
19989TIP3    H181458   1.602   0.854  15.578  0.4433  0.6063 -1.5429
19989TIP3    H281459   1.686   0.729  15.561  0.1546  0.4151 -1.5712
19990TIP3   OH281460   6.483   3.989  14.604  0.6764 -0.0414  0.5890
19990TIP3    H181461   6.445   3.997  14.691  1.3965  0.5172  0.8612
19990TIP3    H281462   6.408   3.972  14.547  0.0201  0.9213  1.1239
19991TIP3   OH281463   4.164   2.334  14.432 -0.1369  0.4807 -0.6276
19991TIP3    H181464   4.232   2.396  14.459  0.2975 -0.4073  0.4264
19991TIP3    H281465   4.082   2.373  14.464 -0.0922  1.3414 -1.5163
19992TIP3   OH281466   3.170   4.899  15.016 -0.6806  0.1507 -0.0977
19992TIP3    H181467   3.251   4.852  15.039 -0.1620  0.5568 -1.0552
19992TIP3    H281468   3.103   4.857  15.069  0.2199  0.0614  1.0183
19993TIP3   OH281469   4.708   3.199   0.104 -0.0505 -0.6898 -0.6852
19993TIP3    H181470   4.617   3.175   0.087  0.0225  0.0219 -2.2542
19993TIP3    H281471   4.713   3.292   0.079  0.7591 -0.2998  0.8083
19994TIP3   OH281472   5.381   0.140   4.561  0.2276 -0.0730  0.0899
19994TIP3    H181473   5.419   0.218   4.521  0.0855 -0.1171 -0.1326
19994TIP3    H281474   5.456   0.087   4.588  0.3527 -0.6727 -1.3333
19995TIP3   OH281475   1.321   5.709   2.861 -0.4318 -0.3388 -0.3665
19995TIP3    H181476   1.333   5.781   2.799 -1.7433 -0.6257 -0.9997
19995TIP3    H281477   1.404   5.662   2.859 -0.0965  0.2528 -1.1454
19996TIP3   OH281478   2.180   0.847   5.133 -0.1070 -0.6466  0.3548
19996TIP3    H181479   2.160   0.753   5.138 -2.2007 -0.3806 -1.4285
19996TIP3    H281480   2.094   0.890   5.142  0.6930  1.0648  0.2429
19997TIP3   OH281481   3.441   0.552   3.143 -0.2110  0.4217 -0.1361
19997TIP3    H181482   3.425   0.515   3.056 -2.0805 -0.5663  0.5575
19997TIP3    H281483   3.532   0.530   3.162  0.5981  1.6136 -2.2419
19998TIP3   OH281484   3.347   5.960  16.030 -0.1935  0.7042 -0.3197
19998TIP3    H181485   3.339   6.048  16.068 -0.1831  0.5086  0.1386
19998TIP3    H281486   3.324   5.901  16.102 -0.9424  0.3522 -0.8373
19999TIP3   OH281487   5.300   4.560   1.841 -0.5421  0.2259  0.4866
19999TIP3    H181488   5.288   4.587   1.932  1.4324  0.9188  0.5947
19999TIP3    H281489   5.242   4.485   1.830 -3.2284  2.0156  1.3554
20000TIP3   OH281490   3.574   5.248  16.958  0.2461  0.2054 -0.0413
20000TIP3    H181491   3.483   5.234  16.935 -0.1547 -0.9800  2.0436
20000TIP3    H281492   3.612   5.161  16.964  0.9830  0.5784  1.0571
20001TIP3   OH281493   5.599   2.555  14.950 -0.0954  0.0151 -0.4999
20001TIP3    H181494   5.567   2.479  14.901 -1.2725 -1.0669  1.7629
20001TIP3    H281495   5.678   2.524  14.994 -0.5888  0.0491  0.4448
20002TIP3   OH281496   1.427   6.393  16.977 -0.2734 -0.0536 -0.0368
20002TIP3    H181497   1.516   6.375  16.948 -0.8616 -0.1740 -1.9292
20002TIP3    H281498   1.394   6.458  16.914 -2.0555 -1.2679 -0.4549
20003TIP3   OH281499   3.987   0.866   2.077  0.3111  0.5621  0.5516
20003TIP3    H181500   4.066   0.813   2.087 -0.1920 -0.5084 -0.8902
20003TIP3    H281501   4.000   0.939   2.138  1.9170 -0.1511  1.1263
20004TIP3   OH281502   0.988   4.961  12.089 -0.0432  0.4386 -0.3270
20004TIP3    H181503   0.895   4.980  12.081  0.2202  1.7162 -0.6602
20004TIP3    H281504   1.007   4.902  12.015 -0.8944 -1.2465  0.7421
20005TIP3   OH281505   3.415   4.105   4.961 -0.2740 -0.1590  0.0566
20005TIP3    H181506   3.447   4.112   5.051 -2.1484  0.0814  0.7606
20005TIP3    H281507   3.414   4.011   4.943 -0.0607 -0.2192  0.3587
20006TIP3   OH281508   1.407   5.714   4.825 -0.1561 -0.1449 -0.3539
20006TIP3    H181509   1.335   5.701   4.763  0.7708  0.2636 -1.5514
20006TIP3    H281510   1.394   5.802   4.859  0.4751  0.4114 -1.5253
20007TIP3   OH281511   5.271   5.575   5.470 -0.0933  0.1768 -0.2532
20007TIP3    H181512   5.203   5.518   5.434  1.0944  0.2034 -2.7415
20007TIP3    H281513   5.227   5.660   5.481 -1.5424 -0.8100  2.3231
20008TIP3   OH281514   2.475   0.094   5.293 -0.6314  0.1428  0.2582
20008TIP3    H181515   2.431   0.084   5.208 -0.5969  1.2639  0.0940
20008TIP3    H281516   2.411   0.138   5.348 -0.4831 -0.1634  0.6784
20009TIP3   OH281517   0.348   0.915  15.649  0.6212 -0.3288 -0.0530
20009TIP3    H181518   0.382   0.857  15.717 -0.7107 -0.9169  0.1271
20009TIP3    H281519   0.275   0.867  15.610  0.7343  0.4150 -1.2337
20010TIP3   OH281520   4.929   6.741  14.669 -0.6744 -0.5721 -0.0043
20010TIP3    H181521   5.020   6.749  14.641 -0.9442  1.6370 -0.4462
20010TIP3    H281522   4.886   6.692  14.598 -0.2610  0.2782 -0.8580
20011TIP3   OH281523   3.791   5.636   6.131  0.1438 -0.3366 -0.2723
20011TIP3    H181524   3.805   5.719   6.177 -2.2468 -0.1300  0.1877
20011TIP3    H281525   3.795   5.659   6.038  0.7904  0.0362 -0.1587
20012TIP3   OH281526   0.039   4.444   4.376 -0.4225  0.3259 -0.6040
20012TIP3    H181527   0.055   4.364   4.326  0.8022  0.5178 -0.5448
20012TIP3    H281528   0.086   4.431   4.458 -0.4108  1.0105 -0.4938
20013TIP3   OH281529   2.870   2.805   3.684  0.8329 -0.3058 -0.1668
20013TIP3    H181530   2.856   2.773   3.773  2.4527 -1.5080 -0.2964
20013TIP3    H281531   2.908   2.730   3.638  0.7317  0.5394 -1.6669
20014TIP3   OH281532   5.250   2.632  12.702 -0.0888 -0.6429  0.2355
20014TIP3    H181533   5.177   2.570  12.699 -0.5462 -0.1226  0.4099
20014TIP3    H281534   5.218   2.704  12.757 -0.4143  0.8313 -1.7663
20015TIP3   OH281535   0.533   2.195   2.596  0.4265  0.2589 -0.5629
20015TIP3    H181536   0.445   2.233   2.603  1.2676  2.2402  0.1711
20015TIP3    H281537   0.567   2.228   2.513  1.6108  2.2933  0.6263
20016TIP3   OH281538   0.652   3.766  16.272 -0.2175 -0.0393 -0.0386
20016TIP3    H181539   0.659   3.691  16.213 -0.5186 -0.2964  0.2458
20016TIP3    H281540   0.716   3.830  16.239  2.3146 -1.5983  1.4662
20017TIP3   OH281541   2.046   3.179   2.506 -0.1302 -0.1755  0.0817
20017TIP3    H181542   2.032   3.269   2.476  0.5471 -0.3341 -0.7362
20017TIP3    H281543   2.134   3.156   2.474 -0.7136 -1.5070 -0.6449
20018TIP3   OH281544   3.200   4.071  15.595 -0.1243 -0.0158  0.2591
20018TIP3    H181545   3.164   4.016  15.525 -0.8691 -0.0070  0.6229
20018TIP3    H281546   3.274   4.021  15.630  1.3930  0.7407 -1.6724
20019TIP3   OH281547   2.555   2.620  16.191  0.0962  0.2767 -0.1599
20019TIP3    H181548   2.496   2.546  16.204 -1.2646  1.4694  0.7796
20019TIP3    H281549   2.563   2.661  16.277  1.6395  0.6534 -0.4428
20020TIP3   OH281550   5.043   1.595   3.918  0.0629  0.0254  0.4417
20020TIP3    H181551   5.097   1.526   3.878 -0.2721  0.7424 -1.3098
20020TIP3    H281552   4.969   1.547   3.956 -1.0176 -0.5513 -2.1427
20021TIP3   OH281553   0.447   6.021   2.917  0.5587 -0.3253 -0.0990
20021TIP3    H181554   0.352   6.023   2.928  0.7053  0.5594  1.2150
20021TIP3    H281555   0.465   5.934   2.880 -0.7571 -0.4958 -0.3791
20022TIP3   OH281556   2.507   5.423  16.363  0.5474  0.8974 -0.3107
20022TIP3    H181557   2.532   5.378  16.444 -0.5468  1.0758  0.1480
20022TIP3    H281558   2.437   5.482  16.390  0.3210  1.1226 -1.3570
20023TIP3   OH281559   0.831   5.523   5.235  0.2608  0.3269 -0.2438
20023TIP3    H181560   0.842   5.429   5.223 -0.1397  0.4878 -2.0991
20023TIP3    H281561   0.755   5.531   5.292 -0.5556 -0.4702 -1.1861
20024TIP3   OH281562   1.691   3.340  16.240 -0.4894 -0.0348 -0.3377
20024TIP3    H181563   1.599   3.328  16.217 -0.7506  1.8716 -0.4896
20024TIP3    H281564   1.688   3.390  16.322  0.4179 -5.2685  3.3780
20025TIP3   OH281565   5.533   3.571  15.099  0.1386  0.6396  0.6336
20025TIP3    H181566   5.498   3.633  15.164  3.8763  2.0482  1.5798
20025TIP3    H281567   5.572   3.627  15.032 -0.5318 -0.8058 -1.0229
20026TIP3   OH281568   0.215   5.048  10.550  0.7545  0.1635 -0.0411
20026TIP3    H181569   0.258   4.979  10.501  0.0955 -0.9484  0.8868
20026TIP3    H281570   0.149   5.084  10.491  1.5263  0.4512 -0.7423
20027TIP3   OH281571   4.749   1.694  16.593  0.0895  0.1127  0.2691
20027TIP3    H181572   4.663   1.725  16.623  0.5737  0.0197  1.8155
20027TIP3    H281573   4.787   1.770  16.548 -0.6746  0.2361 -0.1915
20028TIP3   OH281574   5.732   0.363  15.323 -0.4667 -0.1307  0.4753
20028TIP3    H181575   5.780   0.439  15.355 -1.3938 -0.5409  3.1551
20028TIP3    H281576   5.651   0.399  15.288 -1.0119  0.1685  1.9624
20029TIP3   OH281577   6.794   5.251   3.550 -0.1410  0.0633 -0.4135
20029TIP3    H181578   6.752   5.219   3.630  0.7608 -2.2968 -0.8058
20029TIP3    H281579   6.721   5.271   3.491 -0.7783  0.2747  0.4221
20030TIP3   OH281580   3.273   4.562   5.592 -0.8189  0.5057  0.0483
20030TIP3    H181581   3.250   4.630   5.528  2.0044  0.8057 -0.8101
20030TIP3    H281582   3.323   4.609   5.659  0.0107 -0.4888  0.1486
20031TIP3   OH281583   2.318   3.590   1.648 -0.1276 -0.0665  0.2007
20031TIP3    H181584   2.275   3.509   1.619 -0.5629 -0.2816  1.3770
20031TIP3    H281585   2.412   3.571   1.639 -0.2201  0.0897 -1.5504
20032TIP3   OH281586   2.448   3.469  16.293  0.1777 -0.3542  0.0177
20032TIP3    H181587   2.461   3.545  16.350  1.2205 -0.5923  0.1270
20032TIP3    H281588   2.371   3.490  16.241  0.3738  0.7207  0.1408
20033TIP3   OH281589   5.662   2.916   3.727  0.4747 -0.0969 -0.4887
20033TIP3    H181590   5.572   2.885   3.738  0.6022 -0.2168  0.2441
20033TIP3    H281591   5.654   2.998   3.679 -0.0487  0.0664 -0.1230
20034TIP3   OH281592   5.370   6.534   5.750 -0.6466 -0.0785 -0.3144
20034TIP3    H181593   5.361   6.508   5.842 -0.7092 -0.2565 -0.3691
20034TIP3    H281594   5.427   6.611   5.752 -0.2281 -0.3863 -0.1686
20035TIP3   OH281595   6.726   2.803  16.543  0.2361  0.3896  0.2665
20035TIP3    H181596   6.711   2.893  16.572  0.3565  0.0970  1.3118
20035TIP3    H281597   6.774   2.811  16.462 -1.3455  1.2946 -0.6386
20036TIP3   OH281598   1.060   0.745   3.152 -0.4475 -0.1539 -0.2769
20036TIP3    H181599   1.003   0.819   3.175  0.4340  0.1495  1.0421
20036TIP3    H281600   1.041   0.728   3.060 -1.4265  1.0433 -0.3222
20037TIP3   OH281601   3.991   4.883   4.100  0.0655 -0.3419  0.3845
20037TIP3    H181602   4.022   4.835   4.023  1.5163  0.7920  0.2073
20037TIP3    H281603   4.009   4.975   4.079  0.2254  0.0127  1.9601
20038TIP3   OH281604   4.572   5.518  16.796 -0.0589 -0.0261  0.0421
20038TIP3    H181605   4.622   5.494  16.873  0.4592 -0.6156 -0.4701
20038TIP3    H281606   4.551   5.435  16.753 -0.4509  0.2838 -0.3898
20039TIP3   OH281607   1.070   2.123   1.208 -0.0010  0.2848  0.1103
20039TIP3    H181608   1.156   2.104   1.246 -0.7743 -0.5832  1.5318
20039TIP3    H281609   1.069   2.219   1.200  1.3096  0.2653 -0.4915
20040TIP3   OH281610   2.940   0.453  11.571 -0.7078  0.1459  0.4243
20040TIP3    H181611   2.860   0.504  11.554 -1.3173 -0.7992  0.3443
20040TIP3    H281612   2.908   0.371  11.609  0.2485 -0.1628  0.5904
20041TIP3   OH281613   0.125   1.690   0.831 -0.3377  0.9180 -0.0253
20041TIP3    H181614   0.164   1.676   0.918  1.2221  0.2397 -0.7909
20041TIP3    H281615   0.031   1.701   0.848 -0.3293 -0.9746  1.5766
20042TIP3   OH281616   5.250   5.605   3.925 -0.3930  0.2288 -0.3422
20042TIP3    H181617   5.182   5.578   3.987 -1.3152  1.1115 -0.9644
20042TIP3    H281618   5.205   5.657   3.860  0.8877  0.8504 -0.7625
20043TIP3   OH281619   6.399   5.768  13.114 -0.1988  0.1955  0.2238
20043TIP3    H181620   6.464   5.778  13.045 -1.2842 -1.4528 -1.1148
20043TIP3    H281621   6.339   5.842  13.103  0.5252  0.8346  0.4661
20044TIP3   OH281622   2.698   4.921   1.572 -0.3465  0.2657 -0.1480
20044TIP3    H181623   2.701   4.869   1.491  0.4262  1.2145 -0.7487
20044TIP3    H281624   2.712   4.857   1.642  1.8608 -0.2085 -0.9467
20045TIP3   OH281625   6.469   6.797   1.945  0.0747  0.4146 -0.4204
20045TIP3    H181626   6.475   6.715   1.994  0.4703  0.6844 -0.0123
20045TIP3    H281627   6.380   6.828   1.962  0.0105  0.1998 -0.3622
20046TIP3   OH281628   0.012   4.215   0.337  0.5095  0.5850 -0.3947
20046TIP3    H181629   0.047   4.259   0.259 -0.4031  1.6201 -0.2400
20046TIP3    H281630  -0.079   4.198   0.316  0.3480  0.5493  0.3161
20047TIP3   OH281631   5.919   2.055  16.883 -0.1855 -0.4668  0.0057
20047TIP3    H181632   5.985   2.124  16.872  0.5528 -0.8524  1.5950
20047TIP3    H281633   5.916   2.041  16.978 -0.5663 -2.3842 -0.2575
20048TIP3   OH281634   5.160   6.175   5.567  0.1931  0.5190  0.5108
20048TIP3    H181635   5.078   6.155   5.612 -2.3658  2.1856 -2.9511
20048TIP3    H281636   5.190   6.258   5.605 -0.3163  0.4717  1.0234
20049TIP3   OH281637   0.008   4.738  16.675  0.1676 -0.1200  0.0246
20049TIP3    H181638   0.086   4.712  16.725 -0.3978 -2.8244 -0.3736
20049TIP3    H281639  -0.005   4.668  16.612 -1.9694  0.8221 -0.6738
20050TIP3   OH281640   0.822   6.365   1.575  0.3148 -0.3252  0.1700
20050TIP3    H181641   0.779   6.336   1.495 -0.0055  0.6695 -0.0340
20050TIP3    H281642   0.802   6.458   1.581  0.2293 -0.4058  1.4764
20051TIP3   OH281643   1.145   5.552  14.214  0.1100  0.3846 -0.1584
20051TIP3    H181644   1.132   5.494  14.139  1.7486 -0.2690  0.0187
20051TIP3    H281645   1.057   5.583  14.236 -0.9524 -2.6807  0.2575
20052TIP3   OH281646   3.688   5.547  14.732  0.4220 -0.2090  0.0676
20052TIP3    H181647   3.739   5.573  14.655  0.8458  0.0024  0.4172
20052TIP3    H281648   3.752   5.508  14.791 -0.0903 -1.4192 -0.1473
20053TIP3   OH281649   1.165   2.309   4.870  0.9582  0.1439 -0.9269
20053TIP3    H181650   1.087   2.326   4.921  2.1070  0.8742  0.6741
20053TIP3    H281651   1.133   2.272   4.787 -1.0159  0.0729 -0.1676
20054TIP3   OH281652   6.078   5.007  13.929  0.3337 -0.4254 -0.2025
20054TIP3    H181653   6.139   4.944  13.967  0.2557  0.1617  0.9310
20054TIP3    H281654   6.127   5.089  13.923  0.9992 -0.9395 -3.2955
20055TIP3   OH281655   4.014   2.548   0.176  0.0850  0.1258 -0.7050
20055TIP3    H181656   4.061   2.596   0.107 -1.3126  0.9277 -1.1400
20055TIP3    H281657   3.985   2.616   0.237 -0.2012 -0.3949 -0.2548
20056TIP3   OH281658   2.508   3.248   1.248  0.1500  0.1304 -0.0228
20056TIP3    H181659   2.577   3.229   1.183  1.0917  3.5756 -0.2189
20056TIP3    H281660   2.427   3.239   1.199  0.7915  1.4234 -1.4220
20057TIP3   OH281661   0.497   4.557   0.023 -0.2850 -0.1206  0.0792
20057TIP3    H181662   0.443   4.576   0.100 -2.0549 -2.2777 -0.5382
20057TIP3    H281663   0.551   4.483   0.049 -0.1824 -0.2314 -0.4312
20058TIP3   OH281664   2.967   5.879   3.311 -0.3534  0.6907 -0.6227
20058TIP3    H181665   2.940   5.970   3.296 -1.7363  0.9126  2.4210
20058TIP3    H281666   2.893   5.840   3.357  1.1209 -1.3411  0.1341
20059TIP3   OH281667   6.347   0.945  13.534  0.1800 -0.1429 -0.7294
20059TIP3    H181668   6.378   0.865  13.577  1.0821  0.3107 -0.4896
20059TIP3    H281669   6.335   1.007  13.606 -1.1387 -0.2405 -0.8449
20060TIP3   OH281670   1.462   4.549   1.246 -0.0548  0.1913  0.5919
20060TIP3    H181671   1.536   4.605   1.224 -0.9797  0.7085 -1.4515
20060TIP3    H281672   1.437   4.508   1.163 -1.4419 -0.7388  1.4164
20061TIP3   OH281673   1.472   3.621   5.392  0.7620 -0.1440 -0.1841
20061TIP3    H181674   1.436   3.698   5.349  1.3468 -0.1932 -0.7685
20061TIP3    H281675   1.455   3.549   5.331 -1.1293 -0.7722  1.0036
20062TIP3   OH281676   2.028   0.939  15.287  0.3702 -0.6070 -0.0068
20062TIP3    H181677   1.940   0.914  15.258 -1.1642  1.5936  2.3235
20062TIP3    H281678   2.013   0.997  15.362  3.7982  0.9845 -0.3641
20063TIP3   OH281679   3.836   4.515   2.813 -0.3290  0.1314  0.4959
20063TIP3    H181680   3.836   4.522   2.909 -2.4813  2.3276  0.4326
20063TIP3    H281681   3.916   4.466   2.793 -0.4574 -1.5763  3.4566
20064TIP3   OH281682   2.092   1.997  12.752  0.1375  0.0213  0.8749
20064TIP3    H181683   2.088   2.066  12.686 -0.3538 -0.2407  0.6240
20064TIP3    H281684   2.010   1.948  12.741  0.1781 -0.1959  1.4919
20065TIP3   OH281685   1.472   5.007   1.975  0.9473 -0.7372  0.1205
20065TIP3    H181686   1.425   4.945   1.920 -2.2597 -0.7650  2.6088
20065TIP3    H281687   1.520   4.953   2.038  0.4967 -0.6969  0.4988
20066TIP3   OH281688   5.472   0.338   0.921  0.1230 -0.3288 -0.3052
20066TIP3    H181689   5.491   0.365   0.832  3.1093  0.9594  0.5990
20066TIP3    H281690   5.516   0.254   0.931 -1.4004 -1.1816 -0.3872
20067TIP3   OH281691   2.992   2.485  12.384 -0.0481 -0.4056 -0.0160
20067TIP3    H181692   2.930   2.453  12.318 -0.7936  0.7476  0.0973
20067TIP3    H281693   3.061   2.527  12.333  0.7795 -1.8587 -0.1516
20068TIP3   OH281694   6.640   5.566  12.523  0.2241  0.1072  0.6165
20068TIP3    H181695   6.730   5.540  12.503 -0.3425 -0.8209 -0.8856
20068TIP3    H281696   6.603   5.491  12.568 -1.3120 -1.8660 -3.4272
20069TIP3   OH281697   0.528   0.098  16.975  0.0031 -0.2875  0.3348
20069TIP3    H181698   0.615   0.094  17.015  1.1889  0.2093 -1.9801
20069TIP3    H281699   0.546   0.097  16.880 -2.5384 -0.4593 -0.2056
20070TIP3   OH281700   3.200   2.552   3.904 -0.5594  0.2832 -0.4063
20070TIP3    H181701   3.239   2.473   3.940 -2.9432 -0.8944 -0.2359
20070TIP3    H281702   3.241   2.562   3.817 -0.0491 -0.9829 -0.3284
20071TIP3   OH281703   5.474   3.918   1.235 -0.2108  0.1104 -0.2443
20071TIP3    H181704   5.469   4.011   1.211  1.5614 -0.2501 -2.3368
20071TIP3    H281705   5.554   3.912   1.288  0.3342 -0.3626 -1.0927
20072TIP3   OH281706   6.746   0.281  16.678 -0.6405 -0.3365  0.3340
20072TIP3    H181707   6.835   0.257  16.704 -0.3108  0.6916  0.1959
20072TIP3    H281708   6.758   0.336  16.601 -1.3042  0.9203  1.1001
20073TIP3   OH281709   3.898   6.210  15.783  0.3597  0.6318 -0.0486
20073TIP3    H181710   3.939   6.268  15.719  0.5955  0.6567  0.1241
20073TIP3    H281711   3.964   6.199  15.852  0.2239  0.3604  0.0420
20074TIP3   OH281712   5.460   3.343  14.369 -0.4737  0.5625  0.0483
20074TIP3    H181713   5.521   3.308  14.304  0.3288  0.7229  0.7004
20074TIP3    H281714   5.494   3.430  14.391 -2.3078  1.7347 -1.3713
20075TIP3   OH281715   1.807   6.306  11.038  0.0719  0.0297 -0.1324
20075TIP3    H181716   1.750   6.286  10.964 -1.0394  0.9004  0.4534
20075TIP3    H281717   1.817   6.401  11.036  1.0095 -0.0572  0.1371
20076TIP3   OH281718   5.382   3.675  11.472  0.2218  0.7680  0.3735
20076TIP3    H181719   5.336   3.656  11.390 -0.6536  1.8131  0.5903
20076TIP3    H281720   5.443   3.746  11.449 -1.7931  2.8670  1.0879
20077TIP3   OH281721   0.068   5.756  14.062 -0.0137  0.4926 -0.4380
20077TIP3    H181722   0.109   5.827  14.013  0.0824  1.4148  0.9293
20077TIP3    H281723   0.139   5.719  14.115 -0.1473 -0.3957 -0.8497
20078TIP3   OH281724   5.224   4.759  15.699  0.1702  0.1709  0.1035
20078TIP3    H181725   5.234   4.767  15.604 -2.1907 -0.1589 -0.2489
20078TIP3    H281726   5.188   4.671  15.712  0.4390  0.2253  1.2937
20079TIP3   OH281727   1.804   5.180   2.763 -0.0568  0.3620 -0.3737
20079TIP3    H181728   1.828   5.272   2.766 -0.4601  0.4612 -0.1240
20079TIP3    H281729   1.877   5.137   2.719 -0.2898  0.9414 -1.3445
20080TIP3   OH281730   6.526   5.992  13.004 -0.0083 -0.9427  0.3878
20080TIP3    H181731   6.589   5.947  13.061  0.5184 -1.4339 -0.5668
20080TIP3    H281732   6.522   6.081  13.038  0.0263 -1.3168  1.4128
20081TIP3   OH281733   0.781   4.798  11.356  0.4615  0.2849  0.5153
20081TIP3    H181734   0.843   4.826  11.289  0.3303 -0.7540 -0.0658
20081TIP3    H281735   0.702   4.851  11.341  0.8661  0.9371  0.6550
20082TIP3   OH281736   2.466   3.162   4.232 -0.7014 -0.5699 -0.2583
20082TIP3    H181737   2.452   3.140   4.139 -0.2235  0.9408 -0.7099
20082TIP3    H281738   2.442   3.254   4.238  1.6786  0.0457  0.5740
20083TIP3   OH281739   3.190   2.746   0.712  0.2722  0.0502  0.9494
20083TIP3    H181740   3.254   2.705   0.770  1.7945 -1.1388 -1.3819
20083TIP3    H281741   3.122   2.680   0.699  0.4004 -0.0432  0.7281
20084TIP3   OH281742   1.894   0.967   0.925  0.0396  0.2840 -0.2240
20084TIP3    H181743   1.864   0.990   0.837 -0.5448 -2.2645 -0.7585
20084TIP3    H281744   1.820   0.922   0.965  0.5098  0.8667  1.3792
20085TIP3   OH281745   6.848   0.300   2.072 -0.4673  0.0003  0.0792
20085TIP3    H181746   6.829   0.364   2.141  0.2356 -0.6516  0.9095
20085TIP3    H281747   6.938   0.272   2.090  0.3310  0.9700 -2.0593
20086TIP3   OH281748   0.927   4.784   0.707 -0.4821  0.1561 -0.1245
20086TIP3    H181749   1.020   4.763   0.704 -0.3858  0.3726  0.9063
20086TIP3    H281750   0.888   4.714   0.760 -1.1063 -0.5661 -1.4931
20087TIP3   OH281751   2.669   5.562  12.871 -0.2969 -0.0441 -0.3046
20087TIP3    H181752   2.694   5.527  12.785  0.6371  1.6634 -0.7758
20087TIP3    H281753   2.587   5.607  12.856  0.1827  0.7937 -0.4615
20088TIP3   OH281754   3.180   6.582  12.669 -0.4263  0.3647  0.8532
20088TIP3    H181755   3.230   6.663  12.657  0.6491 -0.5132 -0.9652
20088TIP3    H281756   3.217   6.544  12.749  0.5476  0.6475  0.5563
20089TIP3   OH281757   3.555   6.306  13.962  0.2132 -0.1846  0.3900
20089TIP3    H181758   3.633   6.345  14.001  0.0812 -0.1404  0.6108
20089TIP3    H281759   3.503   6.275  14.036 -0.7880  1.3098  0.3700
20090TIP3   OH281760   0.790   6.542  17.035  0.0062  0.4376 -0.3567
20090TIP3    H181761   0.821   6.627  17.067  1.6703 -0.2929  0.1067
20090TIP3    H281762   0.851   6.520  16.964 -0.1872 -0.5018 -0.2420
20091TIP3   OH281763   4.119   1.879   3.541  0.1480  0.2072 -0.1157
20091TIP3    H181764   4.146   1.794   3.576 -0.2780  0.0419 -0.1745
20091TIP3    H281765   4.137   1.872   3.447 -0.0759  0.1055 -0.1515
20092TIP3   OH281766   1.774   3.401  16.972 -0.0902  0.2355  0.4265
20092TIP3    H181767   1.841   3.333  16.960  0.3241  0.4020  1.6341
20092TIP3    H281768   1.815   3.465  17.030 -0.7992  1.0743  0.0313
20093TIP3   OH281769   2.206   0.046   2.677  0.3659 -0.1101 -0.2571
20093TIP3    H181770   2.249  -0.019   2.733  0.1980  0.1354  0.1575
20093TIP3    H281771   2.150  -0.006   2.619  1.0585 -0.4166 -0.6646
20094TIP3   OH281772   0.529   6.284   2.903  0.2337 -0.1346  0.4242
20094TIP3    H181773   0.522   6.195   2.868  0.7297 -0.5030  1.2300
20094TIP3    H281774   0.617   6.289   2.940  0.8607  1.2782 -1.1568
20095TIP3   OH281775   3.575   6.214  16.126 -0.0506 -0.3531  0.3746
20095TIP3    H181776   3.577   6.137  16.069 -0.6082 -0.6194  0.6931
20095TIP3    H281777   3.545   6.285  16.070 -2.3033 -0.9756  0.6954
20096TIP3   OH281778   3.858   5.680   3.413 -0.6197  0.6842 -0.1720
20096TIP3    H181779   3.810   5.635   3.482 -0.4496  2.8059  1.4206
20096TIP3    H281780   3.790   5.719   3.358 -0.7384  0.7132 -0.0048
20097TIP3   OH281781   4.054   0.770   3.604 -0.3308  0.3187 -0.4342
20097TIP3    H181782   4.078   0.846   3.658 -0.3349 -0.5287  0.8109
20097TIP3    H281783   4.137   0.738   3.570 -0.3259  0.8517 -0.9400
20098TIP3   OH281784   3.620   6.116  14.552  0.4031  0.7408 -0.6425
20098TIP3    H181785   3.639   6.023  14.561  0.1255  0.7883  0.7341
20098TIP3    H281786   3.589   6.143  14.639 -1.9692  1.5617 -1.6652
20099TIP3   OH281787   6.279   0.532  12.359 -0.0481 -0.1444  0.2345
20099TIP3    H181788   6.220   0.488  12.420 -0.1784 -0.6851 -0.2778
20099TIP3    H281789   6.221   0.567  12.291  0.0893  0.5240  0.4524
20100TIP3   OH281790   0.597   3.771  14.517  0.1335 -0.1919  0.3668
20100TIP3    H181791   0.527   3.826  14.482 -0.1748 -0.4021  0.6564
20100TIP3    H281792   0.646   3.743  14.439  0.6242  0.9264  0.2539
20101TIP3   OH281793   0.246   0.101   5.370 -0.4281  0.3974 -0.0807
20101TIP3    H181794   0.211   0.120   5.284  1.3044  0.3265 -0.8405
20101TIP3    H281795   0.169   0.097   5.427 -2.0898 -3.3007 -2.2434
20102TIP3   OH281796   5.908   3.108   4.155 -0.2354  0.3878  0.1911
20102TIP3    H181797   5.936   3.095   4.245  0.2065 -0.8700 -0.1052
20102TIP3    H281798   5.883   3.020   4.125  0.8117  0.5487 -1.2783
20103TIP3   OH281799   5.717   0.755  14.230 -0.4608 -0.1485 -0.5557
20103TIP3    H181800   5.809   0.729  14.217 -0.4196 -0.5469  0.5190
20103TIP3    H281801   5.711   0.839  14.185  1.2451  1.3871  1.8430
20104TIP3   OH281802   3.741   2.178   0.690 -0.6097  0.0804 -0.4354
20104TIP3    H181803   3.819   2.158   0.640 -0.9771 -2.9436  0.0042
20104TIP3    H281804   3.772   2.229   0.765  0.4000  1.7486 -1.9262
20105TIP3   OH281805   5.428   5.280   2.537  0.0604 -0.2258 -0.9967
20105TIP3    H181806   5.453   5.201   2.586 -1.2362  1.2628  2.3554
20105TIP3    H281807   5.511   5.326   2.522  0.4674 -0.3230  0.6944
20106TIP3   OH281808   6.610   1.743  12.299  0.2279  0.7019 -0.5117
20106TIP3    H181809   6.529   1.773  12.341  0.1658  0.8955 -0.7673
20106TIP3    H281810   6.676   1.806  12.328  0.7804 -0.6972  1.4969
20107TIP3   OH281811   5.841   3.962   2.557  0.3748  0.2194  0.6008
20107TIP3    H181812   5.768   3.988   2.501  0.0210 -0.0771  0.9257
20107TIP3    H281813   5.822   4.000   2.642  0.9370  0.7065  0.5187
20108TIP3   OH281814   5.073   5.571  12.936 -0.3007  0.4516  0.1579
20108TIP3    H181815   5.038   5.486  12.909 -0.5947  1.1144 -1.6765
20108TIP3    H281816   5.151   5.550  12.988 -0.9974 -0.9449  0.6817
20109TIP3   OH281817   1.078   5.058   3.052 -0.5234 -0.0379 -0.2736
20109TIP3    H181818   1.143   5.124   3.075 -0.2620  0.2492 -1.7574
20109TIP3    H281819   0.994   5.103   3.063 -0.5031 -0.3668  1.5070
20110TIP3   OH281820   4.380   4.686   4.675  0.3244 -0.1170  0.1830
20110TIP3    H181821   4.331   4.682   4.592  0.0267  1.1124  0.2753
20110TIP3    H281822   4.389   4.595   4.702 -0.1386 -0.4966 -0.8792
20111TIP3   OH281823   4.126   2.804   2.994 -0.0781  0.1214  0.6703
20111TIP3    H181824   4.136   2.730   2.934  1.6265 -0.1677  1.2535
20111TIP3    H281825   4.127   2.881   2.937 -1.0488 -0.2527  0.1301
20112TIP3   OH281826   1.115   5.299  10.908 -0.8627 -0.0035  0.0775
20112TIP3    H181827   1.132   5.213  10.870  0.5974  0.7571 -1.0574
20112TIP3    H281828   1.200   5.342  10.912 -1.4085  1.0555  1.5541
20113TIP3   OH281829   4.735   5.730  13.329  0.1926 -0.0443  0.4257
20113TIP3    H181830   4.806   5.739  13.265  0.6634 -0.8187  0.8240
20113TIP3    H281831   4.657   5.711  13.277  0.4882 -0.2514  0.0585
20114TIP3   OH281832   6.476   0.030  14.980  0.4141  0.3774 -0.5318
20114TIP3    H181833   6.491   0.121  15.003  0.1152  0.5367 -0.9596
20114TIP3    H281834   6.524  -0.020  15.047 -0.7557  0.8239  0.6840
20115TIP3   OH281835   0.339   0.495  13.312 -0.0522  0.6412 -0.6601
20115TIP3    H181836   0.338   0.524  13.220 -0.1928 -1.0128 -1.2175
20115TIP3    H281837   0.368   0.404  13.307 -2.9657 -0.4602  0.6213
20116TIP3   OH281838   3.060   6.198   0.349 -0.8076 -0.0747 -0.5301
20116TIP3    H181839   3.028   6.108   0.346 -0.7466 -0.0969 -0.5003
20116TIP3    H281840   2.987   6.250   0.314 -0.2357 -0.3002 -2.1532
20117TIP3   OH281841   0.935   3.119  15.232 -0.3259 -0.1868  0.3110
20117TIP3    H181842   0.923   3.197  15.177  1.9612  0.8559  1.1618
20117TIP3    H281843   0.855   3.069  15.220 -1.6686  2.0337 -0.6944
20118TIP3   OH281844   4.296   1.581  16.162 -0.3228  0.2784  0.3775
20118TIP3    H181845   4.318   1.525  16.087  1.3294  1.0169  0.2551
20118TIP3    H281846   4.266   1.521  16.230 -1.9762 -0.4060 -0.8753
20119TIP3   OH281847   0.866   0.361  11.806  0.3612 -0.5036  0.7716
20119TIP3    H181848   0.772   0.351  11.792  0.7102 -1.4294 -1.2961
20119TIP3    H281849   0.900   0.272  11.809  1.5038 -0.1994 -1.3658
20120TIP3   OH281850   6.087   2.740  12.251 -0.0891 -0.3222  0.2753
20120TIP3    H181851   6.097   2.755  12.157 -0.9107  0.6974  0.3352
20120TIP3    H281852   6.177   2.733  12.284  0.2041 -1.6529 -0.7133
20121TIP3   OH281853   0.780   0.105  16.351 -0.3659  0.1238  0.3888
20121TIP3    H181854   0.694   0.096  16.393 -0.3830  1.7964  0.7633
20121TIP3    H281855   0.789   0.198  16.334  0.9587 -0.1557 -0.5857
20122TIP3   OH281856   1.599   4.237   2.621 -0.1596  0.0604  0.7367
20122TIP3    H181857   1.683   4.193   2.630 -1.0331 -1.3890  2.4459
20122TIP3    H281858   1.562   4.237   2.709 -2.4547 -0.4330 -0.1560
20123TIP3   OH281859   2.305   3.952   0.054 -0.0067  0.2429  0.1447
20123TIP3    H181860   2.385   3.913   0.017 -1.5089 -2.6588 -0.3461
20123TIP3    H281861   2.246   3.960  -0.020 -0.9014  0.3557  0.8564
20124TIP3   OH281862   2.178   3.151  12.015  0.2125 -0.3351  0.5797
20124TIP3    H181863   2.213   3.202  11.942 -0.3320  2.5300  2.1856
20124TIP3    H281864   2.088   3.132  11.991  0.7314 -1.6149 -0.5059
20125TIP3   OH281865   2.287   1.926  15.222  0.1890  1.1590 -0.3746
20125TIP3    H181866   2.278   2.021  15.213  1.3345  1.2395 -0.8140
20125TIP3    H281867   2.354   1.915  15.289 -0.2510  0.6423 -0.0082
20126TIP3   OH281868   1.038   0.090   0.554  0.5322 -0.4667  0.0611
20126TIP3    H181869   0.961   0.069   0.500  0.2219  0.6881  0.0368
20126TIP3    H281870   1.090   0.009   0.553 -1.0114 -1.5190  0.6680
20127TIP3   OH281871   0.613   3.464  14.803  0.6356 -0.3664 -0.4446
20127TIP3    H181872   0.562   3.546  14.805  0.2575 -0.5346 -1.9264
20127TIP3    H281873   0.702   3.492  14.781  1.0247 -0.1718  1.1953
20128TIP3   OH281874   5.299   1.180   1.516  0.2637  0.3880  0.3964
20128TIP3    H181875   5.209   1.148   1.529  0.0755  0.3631 -0.8652
20128TIP3    H281876   5.354   1.102   1.523 -0.0579 -0.0184 -1.2369
20129TIP3   OH281877   6.068   4.901   5.391  0.0346 -0.1703 -0.2706
20129TIP3    H181878   6.029   4.839   5.453 -1.0224 -0.0702 -0.8178
20129TIP3    H281879   6.119   4.846   5.331 -1.5367 -0.6201 -1.2319
20130TIP3   OH281880   1.126   2.490  11.289 -0.6804 -0.1502 -0.2474
20130TIP3    H181881   1.160   2.426  11.226  1.4531 -0.8677  1.4924
20130TIP3    H281882   1.087   2.436  11.358  0.7678  0.3933  1.0375
20131TIP3   OH281883   3.454   0.880  16.942 -0.1563  0.1971  0.4859
20131TIP3    H181884   3.364   0.886  16.909 -0.7206  0.4522  2.0021
20131TIP3    H281885   3.457   0.944  17.014  1.3413  0.4295  0.2409
20132TIP3   OH281886   0.958   4.742   2.316 -0.0719 -0.0760 -0.0374
20132TIP3    H181887   0.905   4.665   2.335 -0.2312 -0.3456 -1.5076
20132TIP3    H281888   0.900   4.816   2.334 -1.4105 -0.3756 -2.7355
20133TIP3   OH281889   1.697   2.312   6.109  0.3855 -0.2255  0.4828
20133TIP3    H181890   1.741   2.375   6.052  2.0907 -0.4333  1.4794
20133TIP3    H281891   1.767   2.277   6.164 -0.4998 -2.9902  0.0038
20134TIP3   OH281892   3.160   3.040  14.407 -0.3722  0.1170  0.6056
20134TIP3    H181893   3.197   3.001  14.486  0.6826  1.8308  1.0120
20134TIP3    H281894   3.077   2.994  14.394  0.5993 -1.9156  1.2501
20135TIP3   OH281895   2.032   0.102   1.107  0.0301  0.1016 -0.3662
20135TIP3    H181896   2.022   0.009   1.126 -0.9219  0.5165  1.3357
20135TIP3    H281897   2.052   0.105   1.014 -0.0969 -1.7928 -0.4946
20136TIP3   OH281898   4.286   5.761   4.133  0.1684  0.0093  0.3162
20136TIP3    H181899   4.300   5.705   4.209 -0.2239 -1.5866 -0.7423
20136TIP3    H281900   4.201   5.802   4.149 -1.0467 -2.1288 -0.2902
20137TIP3   OH281901   6.493   0.603  11.642 -0.3366  0.0479 -0.0560
20137TIP3    H181902   6.399   0.601  11.663 -0.0157 -1.5800  1.5141
20137TIP3    H281903   6.519   0.511  11.640  1.6546  0.4714  1.8391
20138TIP3   OH281904   3.453   5.110  13.312  0.4299  0.1076 -0.6180
20138TIP3    H181905   3.364   5.145  13.310  0.7214  0.8827 -0.3899
20138TIP3    H281906   3.504   5.176  13.360  0.8687 -0.9199  0.3698
20139TIP3   OH281907   5.635   6.520   4.114 -0.6396 -0.1910  0.4838
20139TIP3    H181908   5.711   6.579   4.115  0.6246 -1.7787  1.1721
20139TIP3    H281909   5.632   6.483   4.202 -2.0409 -0.4125  0.3696
20140TIP3   OH281910   0.728   3.446  11.258  0.2767  0.1277 -0.6471
20140TIP3    H181911   0.779   3.394  11.195 -1.1455 -0.2177 -1.5752
20140TIP3    H281912   0.738   3.536  11.228  0.4401  0.0742 -0.7542
20141TIP3   OH281913   5.981   0.482   3.034 -0.1605 -0.0658  0.4027
20141TIP3    H181914   6.047   0.480   2.965  1.6220  2.3885  1.8573
20141TIP3    H281915   5.917   0.547   3.004 -1.4341 -1.6689 -0.5177
20142TIP3   OH281916   0.318   0.710  14.284 -0.0790 -0.0850 -0.0359
20142TIP3    H181917   0.251   0.674  14.342  0.0504  1.1234  0.9079
20142TIP3    H281918   0.385   0.642  14.279  0.6852  0.3857  2.5896
20143TIP3   OH281919   6.531   3.168  11.346  0.0801  0.1644  0.1669
20143TIP3    H181920   6.514   3.085  11.301  0.5104 -0.4700  1.1369
20143TIP3    H281921   6.618   3.158  11.384  0.6451  1.5286 -0.6914
20144TIP3   OH281922   5.766   4.097  12.232  0.2551  0.2011  0.0728
20144TIP3    H181923   5.816   4.133  12.159 -1.5076  1.4718 -0.5879
20144TIP3    H281924   5.737   4.174  12.282 -0.3035 -0.5353  0.9205
20145TIP3   OH281925   3.106   1.164  10.781  0.1245  0.3576  0.0339
20145TIP3    H181926   3.101   1.106  10.705  1.7249  0.9668 -0.5879
20145TIP3    H281927   3.055   1.120  10.849  1.2936 -1.8115 -0.3901
20146TIP3   OH281928   5.921   5.917   1.445 -0.1058  0.5424 -0.3510
20146TIP3    H181929   5.960   5.883   1.365 -2.3107 -0.8024 -0.9580
20146TIP3    H281930   5.995   5.940   1.500  1.5062  1.9609 -2.9115
20147TIP3   OH281931   3.773   6.405  13.310 -0.7687 -0.1414 -0.3142
20147TIP3    H181932   3.699   6.424  13.252  0.3401 -1.6225 -2.3449
20147TIP3    H281933   3.847   6.391  13.251  0.6684 -0.7679  1.5296
20148TIP3   OH281934   3.619   5.412  13.966 -0.4256  0.0167 -0.4687
20148TIP3    H181935   3.569   5.429  14.046  1.0563 -1.8929  0.9377
20148TIP3    H281936   3.682   5.484  13.962 -0.2400 -0.0939  0.3099
20149TIP3   OH281937   2.931   3.015  11.753  0.5587  0.4941 -0.1635
20149TIP3    H181938   2.935   2.941  11.813  0.5480  1.1511  0.6633
20149TIP3    H281939   3.013   3.062  11.766 -0.7251  2.4320  1.7385
20150TIP3   OH281940   5.052   5.073  15.757 -0.4039 -0.0526 -0.2488
20150TIP3    H181941   5.041   4.985  15.794 -0.7318  0.1928  0.2366
20150TIP3    H281942   5.138   5.070  15.714  0.0030 -0.3297  0.5576
20151TIP3   OH281943   0.836   5.284  15.008 -0.3785  0.5729  0.4527
20151TIP3    H181944   0.806   5.332  15.086 -0.3464  2.2266 -0.4988
20151TIP3    H281945   0.766   5.296  14.944  1.2927  2.8682 -1.1535
20152TIP3   OH281946   4.380   6.743   1.748  0.1655 -0.1930  0.4957
20152TIP3    H181947   4.325   6.725   1.672  0.6239  0.7453 -0.0829
20152TIP3    H281948   4.397   6.658   1.787 -0.4689 -0.6368 -0.1788
20153TIP3   OH281949   4.148   3.030   0.017 -0.3260  0.0150  0.2978
20153TIP3    H181950   4.171   3.123   0.014  0.6005 -0.2052  0.0755
20153TIP3    H281951   4.233   2.985   0.016 -0.7642 -0.8263  0.5676
20154TIP3   OH281952   3.721   5.439  12.108 -0.0445  0.0298 -0.5030
20154TIP3    H181953   3.665   5.422  12.184  0.7151 -1.0822 -0.1650
20154TIP3    H281954   3.721   5.357  12.059  0.2683  0.4288 -1.1809
20155TIP3   OH281955   0.992   1.847  16.852 -0.0514  0.4517 -0.3520
20155TIP3    H181956   0.915   1.796  16.830 -0.7173  1.1690  0.2667
20155TIP3    H281957   1.066   1.788  16.836 -0.8784 -1.4531  2.2810
20156TIP3   OH281958   1.780   2.451   1.409  0.4650 -0.1533 -0.5277
20156TIP3    H181959   1.747   2.497   1.486  1.1390  2.5191 -1.7241
20156TIP3    H281960   1.870   2.482   1.400  1.0616 -1.9816 -1.2740
20157TIP3   OH281961   1.746   5.535  14.660  0.1793  0.4370 -0.5954
20157TIP3    H181962   1.662   5.578  14.649 -1.2765 -2.0904 -0.2606
20157TIP3    H281963   1.801   5.571  14.590 -1.2757  1.8712 -1.0599
20158TIP3   OH281964   4.602   2.189   5.770 -0.5401  0.1549 -0.2403
20158TIP3    H181965   4.617   2.137   5.848  0.6032  0.5249 -0.1886
20158TIP3    H281966   4.690   2.207   5.736 -0.9973  0.3976 -1.3426
20159TIP3   OH281967   6.663   1.169  10.629 -0.1096  0.3659  0.0983
20159TIP3    H181968   6.672   1.178  10.534  0.0931  1.8259  0.2342
20159TIP3    H281969   6.646   1.258  10.660 -1.5392 -0.2907  1.2994
20160TIP3   OH281970   2.412   5.224   0.875 -0.3135  0.0892 -0.1134
20160TIP3    H181971   2.503   5.216   0.903 -0.8759  0.3388  1.9656
20160TIP3    H281972   2.415   5.213   0.780  1.6622 -1.6885  0.0713
20161TIP3   OH281973   6.200   1.691  11.522 -0.0610 -0.2625 -0.3156
20161TIP3    H181974   6.228   1.738  11.443  0.0314 -1.1664 -0.8446
20161TIP3    H281975   6.253   1.727  11.592 -1.2413  1.6711 -0.3606
20162TIP3   OH281976   6.836   5.537  10.912 -0.0106  0.0520  0.3821
20162TIP3    H181977   6.752   5.516  10.954 -1.5436 -0.0021 -2.4973
20162TIP3    H281978   6.901   5.488  10.963 -2.1662 -2.8676  0.5387
20163TIP3   OH281979   0.232   4.719   4.524 -0.2611 -0.1475  0.0057
20163TIP3    H181980   0.218   4.626   4.541 -1.1137 -0.3041 -1.3535
20163TIP3    H281981   0.327   4.727   4.511 -0.2471 -0.9325 -0.4222
20164TIP3   OH281982   4.999   6.330  13.790  0.2928  0.3472  0.5249
20164TIP3    H181983   4.928   6.266  13.796 -1.1648  1.8176 -0.2823
20164TIP3    H281984   5.079   6.278  13.802 -0.7180 -1.8397 -1.4162
20165TIP3   OH281985   5.814   0.890   0.915 -0.3387 -0.0698  0.2850
20165TIP3    H181986   5.819   0.822   0.983  0.4440 -0.9887 -0.6515
20165TIP3    H281987   5.725   0.884   0.881  0.0111 -1.3579 -0.4806
20166TIP3   OH281988   2.289   5.134   1.272  0.1287  0.1983  0.2736
20166TIP3    H181989   2.306   5.041   1.287  2.5339  0.3298 -1.1088
20166TIP3    H281990   2.265   5.140   1.180 -0.0573  0.9354  0.3590
20167TIP3   OH281991   3.191   6.401  16.614 -0.2181 -0.1479 -0.3017
20167TIP3    H181992   3.143   6.474  16.653  1.3787  1.2610 -0.9116
20167TIP3    H281993   3.129   6.363  16.551 -0.8677  1.0337 -0.4067
20168TIP3   OH281994   3.844   0.307  11.240 -0.0294  0.4243 -0.3417
20168TIP3    H181995   3.769   0.260  11.276  0.6892 -1.3048 -0.9941
20168TIP3    H281996   3.888   0.343  11.317  1.0797 -2.5992  0.6193
20169TIP3   OH281997   4.323   0.181   0.705  0.2839 -0.2335  0.9738
20169TIP3    H181998   4.257   0.146   0.646  0.0988  1.2029  0.2776
20169TIP3    H281999   4.406   0.167   0.659  0.1341  0.9393  0.3201
20170TIP3   OH282000   4.549   5.608  13.109 -0.5229 -0.2168  0.1406
20170TIP3    H182001   4.454   5.617  13.102 -0.9326 -2.6660  1.4932
20170TIP3    H282002   4.573   5.552  13.035  0.0592  1.1018 -0.7189
20171TIP3   OH282003   4.314   1.513   4.042 -0.3195  0.7047  0.0452
20171TIP3    H182004   4.296   1.467   4.124 -0.9828  1.2840  0.2295
20171TIP3    H282005   4.245   1.483   3.983 -0.3309  0.9246 -0.0520
20172TIP3   OH282006   4.329   2.956   2.344  0.1949 -0.5604  0.0718
20172TIP3    H182007   4.330   2.913   2.429  0.4904  1.6262  1.2321
20172TIP3    H282008   4.238   2.951   2.315  0.2907 -2.2670 -0.0319
20173TIP3   OH282009   4.763   1.377  11.082  0.2437 -0.2221 -0.7893
20173TIP3    H182010   4.691   1.425  11.123  0.1474 -0.0090 -1.1916
20173TIP3    H282011   4.721   1.305  11.035  0.2743 -0.0209 -1.1328
20174TIP3   OH282012   4.741   2.970   5.470 -0.0533  1.2458 -0.5244
20174TIP3    H182013   4.695   2.914   5.533 -0.9090  0.9060 -1.4315
20174TIP3    H282014   4.673   3.025   5.432 -0.0046 -0.1981 -2.8803
20175TIP3   OH282015   4.668   1.587  12.608 -0.2069  0.0195 -0.4522
20175TIP3    H182016   4.705   1.674  12.620  1.3140 -0.3746 -1.8948
20175TIP3    H282017   4.741   1.527  12.624 -0.4173 -0.8329 -2.3589
20176TIP3   OH282018   0.625   6.161   4.834  0.0860  0.0195  0.2373
20176TIP3    H182019   0.705   6.128   4.793  0.4095 -0.6945  1.4110
20176TIP3    H282020   0.565   6.087   4.832 -0.1982  0.2483  0.2738
20177TIP3   OH282021   0.292   5.405   4.755  0.2255  0.4903  0.1068
20177TIP3    H182022   0.236   5.460   4.700 -0.4597  0.4340  0.7413
20177TIP3    H282023   0.372   5.456   4.767  0.1890  0.7074 -0.5392
20178TIP3   OH282024   5.775   5.068  14.751 -0.2277 -1.2311 -0.1010
20178TIP3    H182025   5.742   5.021  14.675  1.1550  3.2060 -3.9087
20178TIP3    H282026   5.696   5.102  14.794 -0.9815 -2.7527 -0.2069
20179TIP3   OH282027   1.377   0.761  11.523  0.4228 -0.4885 -0.3039
20179TIP3    H182028   1.327   0.702  11.466 -0.9273 -0.4517  0.7935
20179TIP3    H282029   1.453   0.787  11.470  1.1077 -3.2245 -0.8285
20180TIP3   OH282030   0.355   6.792   1.289 -0.6025 -0.6377  0.0662
20180TIP3    H182031   0.448   6.781   1.307 -0.7994  0.2981  1.8812
20180TIP3    H282032   0.320   6.703   1.288  0.1924 -0.9576  0.0771
20181TIP3   OH282033   2.112   1.842   2.857 -0.1528 -0.3773 -0.1763
20181TIP3    H182034   2.046   1.885   2.912 -1.3820 -2.2507 -0.1204
20181TIP3    H282035   2.192   1.847   2.910 -0.9577 -0.7801  1.1427
20182TIP3   OH282036   6.372   2.018  16.427 -0.2587 -0.7579  0.3690
20182TIP3    H182037   6.329   2.011  16.342  0.8206 -0.7409 -0.1967
20182TIP3    H282038   6.374   1.929  16.460 -0.9638 -0.7192  0.5233
20183TIP3   OH282039   0.646   5.234  12.936  0.3911 -0.1266  0.2547
20183TIP3    H182040   0.587   5.237  13.011 -0.4102  0.6816 -0.3897
20183TIP3    H282041   0.680   5.145  12.935  0.3209 -0.1778  1.5011
20184TIP3   OH282042   3.851   1.981   5.188 -0.2709 -0.2192  0.4391
20184TIP3    H182043   3.800   1.946   5.261  0.2104 -2.3266 -0.1715
20184TIP3    H282044   3.852   1.910   5.123 -2.4838  2.2428 -2.6366
20185TIP3   OH282045   4.191   5.160   2.373  0.2326 -0.7231  0.2746
20185TIP3    H182046   4.109   5.110   2.374 -0.4550  0.3866  0.5562
20185TIP3    H282047   4.187   5.212   2.293  0.5190 -0.4340  0.4462
20186TIP3   OH282048   4.229   3.751   1.141 -0.4340  0.7335 -0.0071
20186TIP3    H182049   4.203   3.761   1.233 -1.1994  0.2548 -0.1623
20186TIP3    H282050   4.228   3.840   1.106 -2.4916  0.7237 -0.1486
20187TIP3   OH282051   5.709   3.835  12.476  0.4020 -0.0921  0.0307
20187TIP3    H182052   5.631   3.883  12.448  0.6451 -0.8696 -2.1246
20187TIP3    H282053   5.690   3.811  12.567 -1.2579  0.9352  0.0055
20188TIP3   OH282054   0.585   0.187   5.189 -0.1071 -0.5245 -0.0805
20188TIP3    H182055   0.597   0.254   5.122  0.1543 -1.5954 -1.1403
20188TIP3    H282056   0.502   0.208   5.230  0.6474  1.2947  0.6255
20189TIP3   OH282057   1.478   0.255  15.930 -0.8173  0.0835 -0.5733
20189TIP3    H182058   1.479   0.298  15.844 -1.5082 -1.4980 -1.4058
20189TIP3    H282059   1.418   0.182  15.920 -0.6378 -0.3564  1.1746
20190TIP3   OH282060   5.352   4.707  12.088 -0.1758  0.0616 -0.0116
20190TIP3    H182061   5.431   4.761  12.099  0.2267 -0.3575 -0.8273
20190TIP3    H282062   5.283   4.770  12.065  0.8973  0.0040 -3.9519
20191TIP3   OH282063   5.076   5.677   1.176  0.0436 -0.0939  0.2747
20191TIP3    H182064   5.113   5.765   1.174  1.2017 -0.5576  0.3609
20191TIP3    H282065   5.036   5.666   1.090 -0.9396  0.8408  0.5879
20192TIP3   OH282066   0.642   2.867  13.148  0.0001  0.0669  0.4803
20192TIP3    H182067   0.700   2.938  13.123 -0.3556  0.4233  0.6576
20192TIP3    H282068   0.694   2.812  13.207 -0.7489  2.0241  3.1376
20193TIP3   OH282069   0.442   2.847   5.568 -0.3171 -0.3320 -0.2477
20193TIP3    H182070   0.370   2.785   5.575 -0.0814 -0.4006  2.4995
20193TIP3    H282071   0.463   2.870   5.658  2.4462  0.4599 -1.0042
20194TIP3   OH282072   3.782   0.300  16.248  0.3349  0.2928 -0.0134
20194TIP3    H182073   3.756   0.366  16.312  4.7877  1.9198  0.4748
20194TIP3    H282074   3.795   0.348  16.167  0.5112 -0.6050 -0.5315
20195TIP3   OH282075   2.468   6.758   0.337  0.4459 -0.0540  0.2543
20195TIP3    H182076   2.399   6.789   0.278  0.8711  1.1971  0.3804
20195TIP3    H282077   2.548   6.760   0.284  0.6278 -0.0678  0.5250
20196TIP3   OH282078   6.143   3.738   4.290 -0.2687 -0.3567 -0.0994
20196TIP3    H182079   6.156   3.668   4.353  1.0262 -0.0273  0.0138
20196TIP3    H282080   6.050   3.733   4.268 -0.3038 -1.7699  0.2942
20197TIP3   OH282081   1.832   3.590  13.720  0.1036  0.1260 -0.8055
20197TIP3    H182082   1.891   3.528  13.761  0.0075  1.5600  1.7830
20197TIP3    H282083   1.889   3.658  13.685  0.2051 -1.2621 -3.5616
20198TIP3   OH282084   0.311   2.047  12.835  0.4089  0.6662 -0.1300
20198TIP3    H182085   0.217   2.059  12.844  0.1855 -0.0418 -1.2529
20198TIP3    H282086   0.342   2.125  12.788  0.5157  1.2524  0.8942
20199TIP3   OH282087   4.815   3.356   1.972  0.0146  0.5357  0.1261
20199TIP3    H182088   4.783   3.369   2.061 -0.3412  0.1655  0.0552
20199TIP3    H282089   4.740   3.375   1.915 -1.3666 -3.9190  0.0843
20200TIP3   OH282090   2.448   5.394  13.748  0.5730 -0.5089  0.8827
20200TIP3    H182091   2.443   5.454  13.822 -1.6846  1.5147 -0.7508
20200TIP3    H282092   2.370   5.339  13.756  1.2388 -1.4854  0.9112
20201TIP3   OH282093   0.097   0.395   2.495  1.0874 -0.0564  0.1165
20201TIP3    H182094   0.092   0.396   2.591  1.6982  1.3596  0.1654
20201TIP3    H282095   0.128   0.483   2.472  0.2853 -0.1426 -1.4269
20202TIP3   OH282096   2.466   0.402  15.523 -0.2727 -0.1687  0.1884
20202TIP3    H182097   2.478   0.460  15.598  0.0312 -0.2852  0.2289
20202TIP3    H282098   2.374   0.375  15.528 -0.4594  0.4238  0.0884
20203TIP3   OH282099   5.920   2.497  12.329 -0.7283  0.4986 -0.2006
20203TIP3    H182100   5.897   2.498  12.422  0.5680 -1.2979  0.1915
20203TIP3    H282101   5.979   2.571  12.318  0.2563 -0.1274  0.7449
20204TIP3   OH282102   4.839   3.810  15.718  0.4527  0.3037  0.4935
20204TIP3    H182103   4.792   3.847  15.793  3.2619 -0.1570  2.6194
20204TIP3    H282104   4.931   3.829  15.735  1.2213  0.6525 -3.1709
20205TIP3   OH282105   0.668   0.564  14.618  0.9303 -0.3287 -0.3223
20205TIP3    H182106   0.709   0.498  14.674 -0.0256 -3.2461 -2.7848
20205TIP3    H282107   0.736   0.586  14.554  1.1113  0.8409  0.2470
20206TIP3   OH282108   3.393   6.000  15.763 -0.3842  0.2474 -0.0211
20206TIP3    H182109   3.379   5.976  15.855  0.0449 -1.7288 -0.4337
20206TIP3    H282110   3.306   5.990  15.723 -0.3068 -0.1887 -0.0883
20207TIP3   OH282111   2.541   2.001  10.967 -0.0226 -0.4831 -0.1732
20207TIP3    H182112   2.501   2.065  10.910  0.4004  0.2512  0.3322
20207TIP3    H282113   2.615   2.047  11.007  0.0525 -1.1574  0.5004
20208TIP3   OH282114   6.074   3.847   4.533  0.7578 -0.1161  0.5400
20208TIP3    H182115   6.093   3.872   4.443  1.0626 -0.6855  0.4429
20208TIP3    H282116   6.159   3.849   4.578  0.3860  1.9515  1.2943
20209TIP3   OH282117   3.659   5.002  15.171 -0.2346 -0.5037  0.2405
20209TIP3    H182118   3.746   5.016  15.134  0.1941  1.6986  1.8500
20209TIP3    H282119   3.606   4.972  15.098  1.3259  0.4134 -1.3480
20210TIP3   OH282120   3.345   4.769   1.198 -0.2081  0.2697  0.2453
20210TIP3    H182121   3.387   4.844   1.157  1.7667 -1.7568 -1.6659
20210TIP3    H282122   3.284   4.736   1.132  0.2273 -0.8188  0.3667
20211TIP3   OH282123   0.706   2.249  16.100 -0.3138 -0.0566 -0.7570
20211TIP3    H182124   0.614   2.258  16.124 -0.2905 -0.0580 -0.6672
20211TIP3    H282125   0.704   2.213  16.011 -0.3984 -0.2033 -0.6973
20212TIP3   OH282126   5.766   5.980  13.516  0.1679 -0.2009  0.0417
20212TIP3    H182127   5.838   5.969  13.453  1.6786  0.0063  1.6577
20212TIP3    H282128   5.687   5.978  13.462  1.3604 -0.5718 -1.7958
20213TIP3   OH282129   5.784   1.314   2.051 -0.0377  0.1545  0.2492
20213TIP3    H182130   5.702   1.359   2.029 -0.4954 -0.5936  0.4065
20213TIP3    H282131   5.851   1.383   2.047 -0.8546  1.0646  1.3586
20214TIP3   OH282132   6.434   1.738  15.537 -0.2758 -0.3178  0.0811
20214TIP3    H182133   6.349   1.702  15.513 -0.1454 -0.2740 -0.4620
20214TIP3    H282134   6.420   1.833  15.541 -0.1793 -0.2826 -0.3364
20215TIP3   OH282135   1.408   1.062  13.686 -0.1273  0.1926 -0.9460
20215TIP3    H182136   1.466   1.090  13.757 -0.3069 -0.2836 -0.6071
20215TIP3    H282137   1.324   1.104  13.706 -1.3720 -3.0341  1.3798
20216TIP3   OH282138   2.167   4.096   2.159  0.4161 -0.6178  0.2662
20216TIP3    H182139   2.152   4.115   2.066 -0.8061  0.2125  0.6093
20216TIP3    H282140   2.102   4.149   2.205  0.2209 -1.9093  1.5472
20217TIP3   OH282141   0.720   4.718   5.207  0.2162  0.4688  0.2810
20217TIP3    H182142   0.815   4.712   5.202  0.2326  0.8112  0.1633
20217TIP3    H282143   0.691   4.629   5.224  0.4816  0.1435 -0.9248
20218TIP3   OH282144   5.065   1.790   4.128  0.1151 -0.2546 -0.6012
20218TIP3    H182145   5.032   1.878   4.112 -0.8818 -0.7782 -1.5553
20218TIP3    H282146   5.044   1.742   4.048  0.7808 -1.3245 -0.1551
20219TIP3   OH282147   5.875   6.115  13.925 -0.7742  0.4225  0.1830
20219TIP3    H182148   5.929   6.178  13.972  0.6756  0.0206 -0.8507
20219TIP3    H282149   5.884   6.034  13.974 -1.6499  0.7061  0.8299
20220TIP3   OH282150   6.616   3.745  14.644 -0.0730  0.0885 -0.3162
20220TIP3    H182151   6.554   3.817  14.646 -0.2820 -0.0833 -0.5326
20220TIP3    H282152   6.701   3.786  14.630 -0.2388  0.2634 -0.8135
20221TIP3   OH282153   2.593   4.778   3.140 -0.8316  0.3008 -0.5488
20221TIP3    H182154   2.674   4.784   3.089 -1.0374  1.4106 -0.7680
20221TIP3    H282155   2.535   4.726   3.085 -0.5380  0.1804 -0.7511
20222TIP3   OH282156   5.762   2.726  16.115  0.1923 -0.3114  0.1353
20222TIP3    H182157   5.674   2.697  16.093  0.1727  1.4584 -2.7374
20222TIP3    H282158   5.752   2.778  16.194 -1.1894 -0.8259  0.3177
20223TIP3   OH282159   0.411   3.931  15.441 -0.2414 -0.0668  0.0597
20223TIP3    H182160   0.339   3.949  15.500 -0.5209  0.7779 -0.5212
20223TIP3    H282161   0.399   3.839  15.415 -0.9196 -0.0209  0.2098
20224TIP3   OH282162   6.188   0.908  15.333  0.6434  0.2785 -0.3417
20224TIP3    H182163   6.259   0.881  15.275  1.2620  0.4984  0.2994
20224TIP3    H282164   6.139   0.972  15.282  1.8043  1.2692 -0.2861
20225TIP3   OH282165   6.561   6.532  12.731 -0.2753 -0.6923  0.0843
20225TIP3    H182166   6.573   6.469  12.660  0.8838 -0.6524  0.2370
20225TIP3    H282167   6.636   6.518  12.789  0.5616  1.5350 -0.3973
20226TIP3   OH282168   3.317   4.939  12.681 -0.3682 -0.0381  0.5918
20226TIP3    H182169   3.255   5.001  12.643  0.0098 -0.4487 -0.7494
20226TIP3    H282170   3.357   4.987  12.754  0.9518  1.8924 -1.2581
20227TIP3   OH282171   6.825   3.001   5.373  0.0309 -0.0342 -0.1426
20227TIP3    H182172   6.771   2.972   5.446 -1.3616 -0.2014 -1.1922
20227TIP3    H282173   6.914   3.003   5.408 -0.3794 -1.6387  1.1139
20228TIP3   OH282174   4.322   0.978   0.412  0.5595 -0.2846 -0.1464
20228TIP3    H182175   4.370   0.929   0.345 -1.2078 -1.6688 -0.4754
20228TIP3    H282176   4.259   0.915   0.447  0.0042  1.0261  1.3376
20229TIP3   OH282177   1.453   2.517   1.799 -0.2980  0.0923  0.4900
20229TIP3    H182178   1.389   2.584   1.825  0.3530  0.5943  0.8091
20229TIP3    H282179   1.512   2.562   1.739  0.6818  0.0652  1.3967
20230TIP3   OH282180   6.469   3.056  15.945 -0.3798 -0.7740  0.1610
20230TIP3    H182181   6.487   2.991  16.012  0.1355 -0.0227  0.7727
20230TIP3    H282182   6.433   3.131  15.993  0.3891 -0.0641 -0.3346
20231TIP3   OH282183   5.650   5.013   2.474 -0.6897  0.0845 -0.0321
20231TIP3    H182184   5.649   5.042   2.382  0.3126 -0.5663 -0.2602
20231TIP3    H282185   5.741   5.025   2.501 -0.4939 -1.7711  0.2095
20232TIP3   OH282186   5.065   5.885  15.776 -0.5426  0.2086 -0.3522
20232TIP3    H182187   5.144   5.905  15.726 -0.5645 -1.9555 -1.3526
20232TIP3    H282188   5.098   5.861  15.863 -0.2381  0.7819 -0.3036
20233TIP3   OH282189   0.015   6.573  16.187 -0.2831  0.4097 -0.3399
20233TIP3    H182190   0.081   6.532  16.132 -0.1001  1.3922 -0.8814
20233TIP3    H282191   0.063   6.599  16.266  0.2191  1.9224 -1.1005
20234TIP3   OH282192   4.234   1.524  12.920 -0.2822  0.3067 -0.3462
20234TIP3    H182193   4.272   1.612  12.925 -1.3512  0.7470  0.4600
20234TIP3    H282194   4.294   1.469  12.970  0.1242  0.6719 -0.4229
20235TIP3   OH282195   5.704   0.816  16.311  0.0359  0.2626  0.4793
20235TIP3    H182196   5.683   0.723  16.311  1.3963 -0.1096 -1.3256
20235TIP3    H282197   5.674   0.848  16.226 -1.8589  1.8855  1.6870
20236TIP3   OH282198   0.543   2.825  11.963 -0.9816 -0.1363 -0.1448
20236TIP3    H182199   0.475   2.757  11.960 -1.6746  0.5732 -1.2600
20236TIP3    H282200   0.601   2.798  12.035 -0.5980 -2.4963 -1.2573
20237TIP3   OH282201   4.613   1.070  11.700 -0.8158 -0.2229  0.3428
20237TIP3    H182202   4.693   1.095  11.655 -0.5350  0.1083  1.0209
20237TIP3    H282203   4.636   0.992  11.751 -1.3419 -1.0948 -0.7032
20238TIP3   OH282204   6.685   3.370  12.606  0.3963  0.0979  0.4128
20238TIP3    H182205   6.676   3.405  12.694 -1.7392  1.7766 -0.3667
20238TIP3    H282206   6.666   3.277  12.614 -0.5459  0.3790  1.6193
20239TIP3   OH282207   1.049   2.169  12.012 -0.6810 -0.5990  0.2948
20239TIP3    H182208   1.105   2.247  12.012  0.6692 -1.5308 -0.3790
20239TIP3    H282209   1.040   2.146  11.919  0.9206 -2.5776  0.5553
20240TIP3   OH282210   1.375   4.058  12.520 -0.7756  0.3523  0.4956
20240TIP3    H182211   1.367   4.014  12.435 -0.9570 -1.0138  1.2005
20240TIP3    H282212   1.432   4.001  12.571  0.9579  2.1518  0.6749
20241TIP3   OH282213   2.130   6.226   2.719  0.2589  0.2755  0.0541
20241TIP3    H182214   2.134   6.196   2.628 -1.6839 -1.8493  0.6048
20241TIP3    H282215   2.142   6.147   2.772  0.9350  1.4032  1.6684
20242TIP3   OH282216   3.863   3.797   2.736  0.0291  0.2889 -0.3014
20242TIP3    H182217   3.930   3.849   2.780 -1.5367  1.5287  0.7303
20242TIP3    H282218   3.828   3.740   2.805 -0.0958 -0.2287 -0.7877
20243CLA    CLA82219   5.655   2.284  14.026 -0.3794 -0.6190 -0.0574
20244LIG     O182220   3.473   4.011   8.311 -0.0812  0.7344 -0.0891
20244LIG     O282221   3.553   3.981   8.671 -0.1116  0.4647  0.5883
20244LIG     O382222   3.391   3.857   8.457  0.2630  0.1316 -0.4362
20244LIG     O482223   3.730   3.956   8.354 -0.2826 -0.3289 -0.1108
20244LIG     O582224   3.107   4.063   9.046 -0.2604 -0.3066 -0.3454
20244LIG      N82225   3.342   3.949   7.988  0.4459 -0.1535  0.2381
20244LIG     C182226   3.371   4.040   8.101 -0.8162 -0.0748 -0.9939
20244LIG     C282227   3.439   3.843   8.018  0.8221  0.1343 -0.0661
20244LIG     C382228   3.376   3.956   8.220  0.4030  0.0871 -0.0072
20244LIG     C482229   3.431   3.818   8.173  0.6413 -1.0026  0.0950
20244LIG     C582230   3.206   3.895   7.995  0.2108  0.0023  0.1323
20244LIG     C682231   3.360   4.018   7.861 -0.0365  0.0825 -0.6622
20244LIG     C782232   3.467   3.953   8.435 -0.4790 -0.0224  0.8222
20244LIG     C882233   3.565   4.014   8.535 -0.9417  0.1600  0.3524
20244LIG     C982234   3.587   4.169   8.537  0.4070 -0.1988 -0.5592
20244LIG    C1082235   3.690   3.937   8.482  0.4765 -0.2936  0.6881
20244LIG    C1182236   3.427   4.014   8.725 -0.5391 -0.1263 -0.6436
20244LIG    C1282237   3.698   4.229   8.600 -0.4653  0.4812 -0.0402
20244LIG    C1382238   3.480   4.255   8.497  0.1953  1.2826  0.3501
20244LIG    C1482239   3.779   3.846   8.547 -0.0184 -0.4293 -0.0306
20244LIG    C1582240   3.374   3.916   8.828 -0.3319 -0.2938  0.4471
20244LIG    C1682241   3.236   3.946   8.886 -0.2293  0.2610  0.1639
20244LIG    C1782242   3.888   3.830   8.461  0.0426 -0.0018  0.3611
20244LIG    C1882243   3.705   4.366   8.625 -0.2497 -0.1559 -0.4073
20244LIG    C1982244   3.481   4.392   8.524 -0.2654  0.1923  0.0986
20244LIG    C2082245   3.851   3.896   8.348 -0.1125  1.0577  0.7449
20244LIG    C2182246   3.596   4.444   8.590  0.4227  0.5443  0.0986
20244LIG    C2282247   3.235   4.054   8.987  0.4181  0.6608 -0.2840
20244LIG     H182248   3.296   4.122   8.108  0.7480  1.3633 -0.4874
20244LIG     H282249   3.471   4.085   8.085  0.0915  0.0715  3.7292
20244LIG     H382250   3.541   3.879   7.990  0.9406  1.5691  1.9520
20244LIG     H482251   3.413   3.748   7.967  2.3533 -1.5413  2.0339
20244LIG     H582252   3.279   3.951   8.273  0.7045 -1.2884  0.4560
20244LIG     H682253   3.532   3.800   8.213  1.2922 -0.4163 -1.2306
20244LIG     H782254   3.363   3.735   8.199  1.0864 -1.1017  0.9836
20244LIG     H882255   3.137   3.978   8.001  0.5732  0.1935  4.3684
20244LIG     H982256   3.190   3.827   8.076  0.7479 -0.9619 -0.5514
20244LIG    H1082257   3.181   3.851   7.900 -0.0436  0.8055 -0.1863
20244LIG    H1182258   3.465   4.033   7.839  0.7016 -1.8540  1.1901
20244LIG    H1282259   3.323   4.119   7.853  1.3197  0.6867  0.1783
20244LIG    H1382260   3.310   3.968   7.779  1.2066 -1.2151 -0.6704
20244LIG    H1482261   3.343   4.034   8.655 -0.9004  3.7106  0.6921
20244LIG    H1582262   3.437   4.107   8.785  1.6731 -1.1076  0.6163
20244LIG    H1682263   3.768   4.160   8.645  0.1766  2.0241  1.4047
20244LIG    H1782264   3.401   4.204   8.445  2.1379 -0.5085 -1.0539
20244LIG    H1882265   3.777   3.806   8.647  2.1849 -1.6247 -0.4076
20244LIG    H1982266   3.451   3.896   8.906  0.4831  1.8878  0.2864
20244LIG    H2082267   3.374   3.823   8.768 -0.2634  0.9058 -1.4895
20244LIG    H2182268   3.203   3.848   8.926  1.3122 -0.8678 -1.1554
20244LIG    H2282269   3.165   3.968   8.803 -0.5108 -1.8182 -0.1882
20244LIG    H2382270   3.981   3.776   8.461 -0.3904 -0.8642 -1.8941
20244LIG    H2482271   3.789   4.404   8.681 -1.0807  1.3932 -0.1510
20244LIG    H2582272   3.394   4.453   8.506 -1.3848 -1.1537  0.8369
20244LIG    H2682273   3.896   3.887   8.250 -1.1236 -1.0141  0.4276
20244LIG    H2782274   3.599   4.544   8.631  1.9960 -0.5409  2.9471
20244LIG    H2882275   3.301   4.028   9.072 -0.2142  0.2512  0.0850
20244LIG    H2982276   3.265   4.149   8.938 -1.0417  0.5007 -1.5905
20244LIG    H3082277   3.102   3.984   9.101 -0.1946 -1.3108 -1.7267
   6.85561   6.85561  17.12653
