* GENERATED BY CHARMM-GUI (HTTP://WWW.CHARMM-GUI.ORG) V3.7 ON OCT, 22. 2024. JOB
* GET A DIFFERENT CONFORMATION FOR LIPIDS PENETRATING PROTEIN / CHOL
*  DATE:    10/22/24     10:26:33      CREATED BY USER: apache
*
     22587  EXT
         1         1  CHL1      C3              1.1983827047        2.9601107934       17.3135450000  MEMB      1               0.0000000000
         2         1  CHL1      H3              0.2940242494        2.3221531844       17.2162350000  MEMB      1               0.0000000000
         3         1  CHL1      O3              1.3120460353        3.3608967866       18.6864550000  MEMB      1               0.0000000000
         4         1  CHL1      H3'             0.4668100133        3.7885898493       18.8421750000  MEMB      1               0.0000000000
         5         1  CHL1      C4              2.4783629214        2.2499753897       16.8865550000  MEMB      1               0.0000000000
         6         1  CHL1      H4A             3.2900467286        2.9831778422       17.0812650000  MEMB      1               0.0000000000
         7         1  CHL1      H4B             2.6297576152        1.3815355924       17.5627450000  MEMB      1               0.0000000000
         8         1  CHL1      C5              2.5934163631        1.7962139447       15.4699350000  MEMB      1               0.0000000000
         9         1  CHL1      C6              2.7424621721        0.4945204511       14.9567950000  MEMB      1               0.0000000000
        10         1  CHL1      H6              2.7412303021       -0.2781632215       15.7397050000  MEMB      1               0.0000000000
        11         1  CHL1      C7              3.0336015405        0.1371916902       13.5183750000  MEMB      1               0.0000000000
        12         1  CHL1      H7A             3.9484912645       -0.4191349242       13.2220650000  MEMB      1               0.0000000000
        13         1  CHL1      H7B             2.1585365477       -0.4553212893       13.1755850000  MEMB      1               0.0000000000
        14         1  CHL1      C8              3.1858791955        1.4610367850       12.6356950000  MEMB      1               0.0000000000
        15         1  CHL1      H8              4.2686961444        1.6838510742       12.7460650000  MEMB      1               0.0000000000
        16         1  CHL1      C14             2.8179126991        1.1506981515       11.1696950000  MEMB      1               0.0000000000
        17         1  CHL1      H14             1.7081506047        1.1099345246       11.2025250000  MEMB      1               0.0000000000
        18         1  CHL1      C15             3.3541180663       -0.2074324089       10.6114650000  MEMB      1               0.0000000000
        19         1  CHL1      H15A            4.3267001819       -0.4702169345       11.0798250000  MEMB      1               0.0000000000
        20         1  CHL1      H15B            2.6952673858       -1.0720307650       10.8410650000  MEMB      1               0.0000000000
        21         1  CHL1      C16             3.4118078027       -0.0596229684        9.0918050000  MEMB      1               0.0000000000
        22         1  CHL1      H16A            4.3884590758       -0.2918689616        8.6158450000  MEMB      1               0.0000000000
        23         1  CHL1      H16B            2.6556207421       -0.6832093148        8.5686950000  MEMB      1               0.0000000000
        24         1  CHL1      C17             2.9875904907        1.4485010141        8.8540050000  MEMB      1               0.0000000000
        25         1  CHL1      H17             1.8844927367        1.5634903126        8.7885450000  MEMB      1               0.0000000000
        26         1  CHL1      C13             3.3106828841        2.1844537421       10.2067750000  MEMB      1               0.0000000000
        27         1  CHL1      C18             4.8125601032        2.2925503308       10.4110150000  MEMB      1               0.0000000000
        28         1  CHL1      H18A            5.4939397495        1.4278465937       10.5604450000  MEMB      1               0.0000000000
        29         1  CHL1      H18B            5.1897302532        2.7435987023        9.4683550000  MEMB      1               0.0000000000
        30         1  CHL1      H18C            5.1146109636        3.0582135013       11.1572450000  MEMB      1               0.0000000000
        31         1  CHL1      C12             2.5141401676        3.4922042016       10.5444850000  MEMB      1               0.0000000000
        32         1  CHL1      H12A            2.8679920295        4.3857352580        9.9870850000  MEMB      1               0.0000000000
        33         1  CHL1      H12B            1.4331129262        3.4686977681       10.2892550000  MEMB      1               0.0000000000
        34         1  CHL1      C11             2.5314952040        3.9071602145       12.0367650000  MEMB      1               0.0000000000
        35         1  CHL1      H11A            3.5321263627        4.3551691804       12.2165750000  MEMB      1               0.0000000000
        36         1  CHL1      H11B            1.7002549999        4.6277133504       12.1922150000  MEMB      1               0.0000000000
        37         1  CHL1      C9              2.3385521490        2.6553075092       13.0656750000  MEMB      1               0.0000000000
        38         1  CHL1      H9              1.2975243213        2.3296435324       12.8546850000  MEMB      1               0.0000000000
        39         1  CHL1      C10             2.4956790995        3.0458656266       14.5431350000  MEMB      1               0.0000000000
        40         1  CHL1      C19             3.8071964668        3.8717298524       14.6686250000  MEMB      1               0.0000000000
        41         1  CHL1      H19A            3.8361857896        4.8022594391       14.0623450000  MEMB      1               0.0000000000
        42         1  CHL1      H19B            4.0566996529        4.2031805634       15.6992650000  MEMB      1               0.0000000000
        43         1  CHL1      H19C            4.7016338811        3.2620601266       14.4184250000  MEMB      1               0.0000000000
        44         1  CHL1      C1              1.3045427890        4.0053697320       14.9893150000  MEMB      1               0.0000000000
        45         1  CHL1      H1A             1.4206114184        4.9494461581       14.4152350000  MEMB      1               0.0000000000
        46         1  CHL1      H1B             0.3907284094        3.5013051862       14.6082750000  MEMB      1               0.0000000000
        47         1  CHL1      C2              1.0883982104        4.2484141007       16.4995850000  MEMB      1               0.0000000000
        48         1  CHL1      H2A             0.0705843383        4.6624236781       16.6637750000  MEMB      1               0.0000000000
        49         1  CHL1      H2B             1.8568797349        4.9304466707       16.9221950000  MEMB      1               0.0000000000
        50         1  CHL1      C20             3.5379382269        1.9418267658        7.4556950000  MEMB      1               0.0000000000
        51         1  CHL1      H20             4.6393321695        1.8037324629        7.5023950000  MEMB      1               0.0000000000
        52         1  CHL1      C21             3.3116845298        3.4503523684        7.2308450000  MEMB      1               0.0000000000
        53         1  CHL1      H21A            4.0328342691        4.0855316877        7.7883450000  MEMB      1               0.0000000000
        54         1  CHL1      H21B            2.3010864281        3.6866497348        7.6272950000  MEMB      1               0.0000000000
        55         1  CHL1      H21C            3.4375008634        3.6577521040        6.1466450000  MEMB      1               0.0000000000
        56         1  CHL1      C22             3.0567233106        1.1415369393        6.2839250000  MEMB      1               0.0000000000
        57         1  CHL1      H22A            2.9695345981        0.1148980345        6.6995150000  MEMB      1               0.0000000000
        58         1  CHL1      H22B            2.0778286336        1.5208108484        5.9202750000  MEMB      1               0.0000000000
        59         1  CHL1      C23             4.0903484416        1.1747282079        5.1201250000  MEMB      1               0.0000000000
        60         1  CHL1      H23A            4.1337450708        2.1101177662        4.5222350000  MEMB      1               0.0000000000
        61         1  CHL1      H23B            5.0227799988        0.9030481973        5.6596550000  MEMB      1               0.0000000000
        62         1  CHL1      C24             3.7307014016        0.0058688412        4.1793950000  MEMB      1               0.0000000000
        63         1  CHL1      H24A            3.7832246246       -0.9463601963        4.7493150000  MEMB      1               0.0000000000
        64         1  CHL1      H24B            2.6799585637        0.1534674214        3.8500550000  MEMB      1               0.0000000000
        65         1  CHL1      C25             4.5931350987       -0.2823511813        2.9549050000  MEMB      1               0.0000000000
        66         1  CHL1      H25             4.5977874378        0.6259256994        2.3151150000  MEMB      1               0.0000000000
        67         1  CHL1      C26             6.0824786699       -0.4327983407        3.3007250000  MEMB      1               0.0000000000
        68         1  CHL1      H26A            6.5322070541       -1.0517714917        2.4951550000  MEMB      1               0.0000000000
        69         1  CHL1      H26B            6.5643056677        0.5459549849        3.5109550000  MEMB      1               0.0000000000
        70         1  CHL1      H26C            6.1086311473       -0.9250303962        4.2963850000  MEMB      1               0.0000000000
        71         1  CHL1      C27             4.0980748084       -1.4677712052        2.0733650000  MEMB      1               0.0000000000
        72         1  CHL1      H27A            3.1728384220       -1.1713543897        1.5344650000  MEMB      1               0.0000000000
        73         1  CHL1      H27B            4.8372176775       -1.7951902370        1.3112650000  MEMB      1               0.0000000000
        74         1  CHL1      H27C            3.8260531426       -2.3381107068        2.7080550000  MEMB      1               0.0000000000
        75         2  CHL1      C3             -2.7098288214       -3.3771647013       17.3046300000  MEMB      2               0.0000000000
        76         2  CHL1      H3             -3.4431191815       -2.5554422323       17.1584300000  MEMB      2               0.0000000000
        77         2  CHL1      O3             -2.4277912986       -3.5803484187       18.6953700000  MEMB      2               0.0000000000
        78         2  CHL1      H3'            -2.9036762479       -4.3063139671       19.1054000000  MEMB      2               0.0000000000
        79         2  CHL1      C4             -3.4126546842       -4.5891133218       16.6903900000  MEMB      2               0.0000000000
        80         2  CHL1      H4A            -2.7711533659       -5.4918996817       16.7786900000  MEMB      2               0.0000000000
        81         2  CHL1      H4B            -4.2565204289       -4.8877022903       17.3484400000  MEMB      2               0.0000000000
        82         2  CHL1      C5             -3.6305350109       -4.4082493173       15.1901800000  MEMB      2               0.0000000000
        83         2  CHL1      C6             -4.7900093182       -4.7098026099       14.6762300000  MEMB      2               0.0000000000
        84         2  CHL1      H6             -5.5907650505       -5.1637536343       15.2784900000  MEMB      2               0.0000000000
        85         2  CHL1      C7             -5.1544464391       -4.5836167234       13.2102800000  MEMB      2               0.0000000000
        86         2  CHL1      H7A            -5.6470243987       -5.4777132181       12.7717700000  MEMB      2               0.0000000000
        87         2  CHL1      H7B            -5.8887065136       -3.7643282128       13.0555300000  MEMB      2               0.0000000000
        88         2  CHL1      C8             -3.8947570598       -4.4967074324       12.3523500000  MEMB      2               0.0000000000
        89         2  CHL1      H8             -3.4388233007       -5.5072282382       12.4251700000  MEMB      2               0.0000000000
        90         2  CHL1      C14            -4.3667202493       -4.1331601979       10.9062900000  MEMB      2               0.0000000000
        91         2  CHL1      H14            -4.8002491445       -3.1117418434       10.9618400000  MEMB      2               0.0000000000
        92         2  CHL1      C15            -5.3477799190       -5.0482619671       10.1499400000  MEMB      2               0.0000000000
        93         2  CHL1      H15A           -5.0575932329       -6.1052990471       10.3310500000  MEMB      2               0.0000000000
        94         2  CHL1      H15B           -6.3760479960       -4.8323602881       10.5110000000  MEMB      2               0.0000000000
        95         2  CHL1      C16            -5.2320352549       -4.4535753986        8.7604900000  MEMB      2               0.0000000000
        96         2  CHL1      H16A           -5.1829459072       -5.2270222900        7.9644500000  MEMB      2               0.0000000000
        97         2  CHL1      H16B           -6.0881225438       -3.7852066747        8.5265900000  MEMB      2               0.0000000000
        98         2  CHL1      C17            -3.9079583019       -3.5841005321        8.7509800000  MEMB      2               0.0000000000
        99         2  CHL1      H17            -4.2055006059       -2.5172760017        8.8386500000  MEMB      2               0.0000000000
       100         2  CHL1      C13            -3.1702428517       -3.9373639372        9.9811600000  MEMB      2               0.0000000000
       101         2  CHL1      C18            -2.4426243392       -5.2551813978        9.7257200000  MEMB      2               0.0000000000
       102         2  CHL1      H18A           -1.7453127522       -5.1840680106        8.8637400000  MEMB      2               0.0000000000
       103         2  CHL1      H18B           -1.8446903450       -5.6588554870       10.5706100000  MEMB      2               0.0000000000
       104         2  CHL1      H18C           -3.1819473954       -6.0019041129        9.3649800000  MEMB      2               0.0000000000
       105         2  CHL1      C12            -2.2116582876       -2.8621893357       10.5756400000  MEMB      2               0.0000000000
       106         2  CHL1      H12A           -1.3221334973       -2.7290667999        9.9234500000  MEMB      2               0.0000000000
       107         2  CHL1      H12B           -2.7711862932       -1.9086466461       10.6852200000  MEMB      2               0.0000000000
       108         2  CHL1      C11            -1.7548986212       -3.2404083591       11.9601100000  MEMB      2               0.0000000000
       109         2  CHL1      H11A           -1.1047424458       -4.1365364047       11.8674800000  MEMB      2               0.0000000000
       110         2  CHL1      H11B           -1.1191783856       -2.3635899821       12.2078800000  MEMB      2               0.0000000000
       111         2  CHL1      C9             -2.9229596010       -3.5359259615       12.9342000000  MEMB      2               0.0000000000
       112         2  CHL1      H9             -3.4429880242       -2.5625565627       13.0623800000  MEMB      2               0.0000000000
       113         2  CHL1      C10            -2.4636380849       -3.9182495587       14.3768000000  MEMB      2               0.0000000000
       114         2  CHL1      C19            -1.3668107240       -5.0299562036       14.2728300000  MEMB      2               0.0000000000
       115         2  CHL1      H19A           -1.0388525566       -5.5156306886       15.2167000000  MEMB      2               0.0000000000
       116         2  CHL1      H19B           -1.6097607489       -5.8326694625       13.5441700000  MEMB      2               0.0000000000
       117         2  CHL1      H19C           -0.4346374380       -4.4998440166       13.9823500000  MEMB      2               0.0000000000
       118         2  CHL1      C1             -1.8080114871       -2.7203522437       15.0620200000  MEMB      2               0.0000000000
       119         2  CHL1      H1A            -0.9600663647       -2.3505384503       14.4467600000  MEMB      2               0.0000000000
       120         2  CHL1      H1B            -2.5643146826       -1.9098322346       14.9887700000  MEMB      2               0.0000000000
       121         2  CHL1      C2             -1.4613384194       -3.0038663839       16.5142800000  MEMB      2               0.0000000000
       122         2  CHL1      H2A            -1.0481096495       -2.1323347152       17.0656400000  MEMB      2               0.0000000000
       123         2  CHL1      H2B            -0.7640465275       -3.8648516291       16.5968100000  MEMB      2               0.0000000000
       124         2  CHL1      C20            -3.1265464826       -3.6570792901        7.3967300000  MEMB      2               0.0000000000
       125         2  CHL1      H20            -2.8716891077       -4.7242599526        7.2220600000  MEMB      2               0.0000000000
       126         2  CHL1      C21            -1.7622486828       -2.9694340771        7.3303700000  MEMB      2               0.0000000000
       127         2  CHL1      H21A           -1.9825925383       -1.9796671645        7.7843800000  MEMB      2               0.0000000000
       128         2  CHL1      H21B           -1.1968813967       -2.8504617046        6.3814100000  MEMB      2               0.0000000000
       129         2  CHL1      H21C           -1.0999328606       -3.5002333338        8.0472500000  MEMB      2               0.0000000000
       130         2  CHL1      C22            -4.0782078696       -3.2628666458        6.1780200000  MEMB      2               0.0000000000
       131         2  CHL1      H22A           -4.9605595903       -3.9177639045        6.3419300000  MEMB      2               0.0000000000
       132         2  CHL1      H22B           -4.2756536629       -2.2108789027        6.4757600000  MEMB      2               0.0000000000
       133         2  CHL1      C23            -3.4509097167       -3.4994713905        4.7981800000  MEMB      2               0.0000000000
       134         2  CHL1      H23A           -2.6359020591       -2.7950533182        4.5263900000  MEMB      2               0.0000000000
       135         2  CHL1      H23B           -3.0766713729       -4.5412715633        4.7038000000  MEMB      2               0.0000000000
       136         2  CHL1      C24            -4.3871067347       -3.2458832142        3.5913700000  MEMB      2               0.0000000000
       137         2  CHL1      H24A           -5.2043762605       -3.9981737268        3.5703400000  MEMB      2               0.0000000000
       138         2  CHL1      H24B           -4.8354740006       -2.2310579132        3.6497900000  MEMB      2               0.0000000000
       139         2  CHL1      C25            -3.6444771738       -3.1456112734        2.2310800000  MEMB      2               0.0000000000
       140         2  CHL1      H25            -2.8539578612       -2.3655216566        2.2604300000  MEMB      2               0.0000000000
       141         2  CHL1      C26            -2.7818722978       -4.3790239741        1.8506300000  MEMB      2               0.0000000000
       142         2  CHL1      H26A           -2.2408789486       -4.2446590809        0.8896000000  MEMB      2               0.0000000000
       143         2  CHL1      H26B           -1.9854960767       -4.6041985454        2.5918300000  MEMB      2               0.0000000000
       144         2  CHL1      H26C           -3.4310053280       -5.2710198984        1.7190800000  MEMB      2               0.0000000000
       145         2  CHL1      C27            -4.5979783812       -2.8210783705        1.0545200000  MEMB      2               0.0000000000
       146         2  CHL1      H27A           -5.3739342657       -2.1117442706        1.4137900000  MEMB      2               0.0000000000
       147         2  CHL1      H27B           -4.0534672915       -2.4958638411        0.1423500000  MEMB      2               0.0000000000
       148         2  CHL1      H27C           -5.2213932942       -3.7027567925        0.7931800000  MEMB      2               0.0000000000
       149         3  SAPC      N               4.0661836415       -3.5608947438       21.8518408662  MEMB      3               0.0000000000
       150         3  SAPC      C12             5.3172589382       -4.4401443579       21.7321603961  MEMB      3               0.0000000000
       151         3  SAPC      H12A            5.1509831367       -5.4353597106       22.1172562497  MEMB      3               0.0000000000
       152         3  SAPC      H12B            6.0978704271       -4.0310898779       22.3564361881  MEMB      3               0.0000000000
       153         3  SAPC      C13             3.0497709456       -4.0168395503       20.7831637484  MEMB      3               0.0000000000
       154         3  SAPC      H13A            2.9902791523       -5.0933535933       20.8462363113  MEMB      3               0.0000000000
       155         3  SAPC      H13B            2.1127289102       -3.4812909891       20.8224073843  MEMB      3               0.0000000000
       156         3  SAPC      H13C            3.5321859730       -3.8141402378       19.8383946274  MEMB      3               0.0000000000
       157         3  SAPC      C14             3.5057449890       -3.7016700856       23.2657172416  MEMB      3               0.0000000000
       158         3  SAPC      H14A            3.3309145366       -4.7486130230       23.4650779894  MEMB      3               0.0000000000
       159         3  SAPC      H14B            4.2316146723       -3.1884087326       23.8789677919  MEMB      3               0.0000000000
       160         3  SAPC      H14C            2.5809268724       -3.1465501879       23.3200602306  MEMB      3               0.0000000000
       161         3  SAPC      C15             4.3877920955       -2.1279724856       21.5502343641  MEMB      3               0.0000000000
       162         3  SAPC      H15A            4.8186875899       -1.7063318468       22.4463081966  MEMB      3               0.0000000000
       163         3  SAPC      H15B            4.9659558528       -1.9580882706       20.6539831971  MEMB      3               0.0000000000
       164         3  SAPC      H15C            3.4306690600       -1.6287630171       21.5169882085  MEMB      3               0.0000000000
       165         3  SAPC      C11             6.1305351296       -4.6703697883       20.3277774263  MEMB      3               0.0000000000
       166         3  SAPC      H11A            5.4204585350       -5.3290218169       19.7834524303  MEMB      3               0.0000000000
       167         3  SAPC      H11B            7.0714449869       -5.2447647683       20.4659085768  MEMB      3               0.0000000000
       168         3  SAPC      P               6.3575201291       -3.6281229887       18.0486225195  MEMB      3               0.0000000000
       169         3  SAPC      O13             7.3068735349       -4.6884285399       17.6269176441  MEMB      3               0.0000000000
       170         3  SAPC      O14             4.9291513950       -3.8218872961       17.7629080943  MEMB      3               0.0000000000
       171         3  SAPC      O12             6.5181808142       -3.4570054253       19.6405833901  MEMB      3               0.0000000000
       172         3  SAPC      O11             6.9141679568       -2.2635191949       17.4100742605  MEMB      3               0.0000000000
       173         3  SAPC      C1              7.4621904889       -1.2059846282       18.2033487813  MEMB      3               0.0000000000
       174         3  SAPC      HA              6.6214174575       -0.7384711370       18.7590940408  MEMB      3               0.0000000000
       175         3  SAPC      HB              8.2177316777       -1.5529276289       18.9403080918  MEMB      3               0.0000000000
       176         3  SAPC      C2              8.1394409625       -0.1457198277       17.3462976554  MEMB      3               0.0000000000
       177         3  SAPC      HS              7.9647006119        0.8590263323       17.7870605599  MEMB      3               0.0000000000
       178         3  SAPC      O21             7.6573073212       -0.1709157318       16.0239514710  MEMB      3               0.0000000000
       179         3  SAPC      C21             6.4478199810        0.2352156660       15.5864735278  MEMB      3               0.0000000000
       180         3  SAPC      O22             5.6011646760        0.7954293850       16.3311106850  MEMB      3               0.0000000000
       181         3  SAPC      C22             6.3243066956        0.0974120506       14.0923677400  MEMB      3               0.0000000000
       182         3  SAPC      H2R             6.4666188864       -0.9486611102       13.7462472263  MEMB      3               0.0000000000
       183         3  SAPC      H2S             5.2726173535        0.3991656855       13.8994548337  MEMB      3               0.0000000000
       184         3  SAPC      C3              9.6820770577       -0.2805787786       17.3456915888  MEMB      3               0.0000000000
       185         3  SAPC      HX             10.2134366163       -0.0990069418       18.3043415773  MEMB      3               0.0000000000
       186         3  SAPC      HY             10.2221830253        0.4692018489       16.7288971543  MEMB      3               0.0000000000
       187         3  SAPC      O31             9.9490092766       -1.5406589899       16.7630303355  MEMB      3               0.0000000000
       188         3  SAPC      C31            10.8552567655       -1.7012787577       15.8247087684  MEMB      3               0.0000000000
       189         3  SAPC      O32            11.3499776506       -0.8769183946       15.0633555134  MEMB      3               0.0000000000
       190         3  SAPC      C32            10.9310662323       -3.1827864618       15.6211031649  MEMB      3               0.0000000000
       191         3  SAPC      H2X            10.1684589150       -3.7404403605       16.2057171864  MEMB      3               0.0000000000
       192         3  SAPC      H2Y            11.8977036632       -3.3930579336       16.1267895542  MEMB      3               0.0000000000
       193         3  SAPC      C23             7.3626813901        1.0665989724       13.4800614879  MEMB      3               0.0000000000
       194         3  SAPC      H3R             8.4023505279        0.8690631034       13.8182754934  MEMB      3               0.0000000000
       195         3  SAPC      H3S             7.1521367918        2.1267743736       13.7370051724  MEMB      3               0.0000000000
       196         3  SAPC      C24             7.4649189804        1.0884898292       12.0038938280  MEMB      3               0.0000000000
       197         3  SAPC      H4R             8.2701656900        1.7365504675       11.5965643329  MEMB      3               0.0000000000
       198         3  SAPC      H4S             6.6017727452        1.7465589272       11.7667340231  MEMB      3               0.0000000000
       199         3  SAPC      C25             7.4331011647       -0.2603153166       11.3349392180  MEMB      3               0.0000000000
       200         3  SAPC      H5R             6.4170972788       -0.5709497780       11.0499086131  MEMB      3               0.0000000000
       201         3  SAPC      C26             8.5488368371       -0.9974797777       11.0630416982  MEMB      3               0.0000000000
       202         3  SAPC      H6R             8.4061382465       -2.0238605585       10.6940160656  MEMB      3               0.0000000000
       203         3  SAPC      C27             9.9589996381       -0.6278432770       11.3930361969  MEMB      3               0.0000000000
       204         3  SAPC      H7R            10.5186226241       -1.5190857330       11.0369045604  MEMB      3               0.0000000000
       205         3  SAPC      H7S            10.1799163982       -0.7055483897       12.4790748015  MEMB      3               0.0000000000
       206         3  SAPC      C28            10.5745168801        0.6615170581       10.8426735465  MEMB      3               0.0000000000
       207         3  SAPC      H8R            10.7325515194        1.4208773100       11.6226712763  MEMB      3               0.0000000000
       208         3  SAPC      C29            10.7461351755        0.7784222138        9.4732517709  MEMB      3               0.0000000000
       209         3  SAPC      H9R            10.9703680008        1.8025868967        9.1403748807  MEMB      3               0.0000000000
       210         3  SAPC      C210           10.3946290500       -0.2380752054        8.4371196998  MEMB      3               0.0000000000
       211         3  SAPC      H10R            9.5179020004        0.2035218105        7.9168667480  MEMB      3               0.0000000000
       212         3  SAPC      H10S            9.9628188893       -1.1451294267        8.9115808122  MEMB      3               0.0000000000
       213         3  SAPC      C211           11.5656088139       -0.5311799994        7.4751338882  MEMB      3               0.0000000000
       214         3  SAPC      H11R           12.3990144608        0.1865682468        7.4916564521  MEMB      3               0.0000000000
       215         3  SAPC      C212           11.6203811851       -1.4632404987        6.5671585742  MEMB      3               0.0000000000
       216         3  SAPC      H12R           12.4105072260       -1.4146888640        5.8033888691  MEMB      3               0.0000000000
       217         3  SAPC      C213           10.4670248679       -2.4693807690        6.3176678162  MEMB      3               0.0000000000
       218         3  SAPC      H13R           10.0367622922       -2.7000116454        7.3156674792  MEMB      3               0.0000000000
       219         3  SAPC      H13S           10.8984784384       -3.4609083317        6.0626351300  MEMB      3               0.0000000000
       220         3  SAPC      C214            9.3322806134       -1.8556186397        5.5010092864  MEMB      3               0.0000000000
       221         3  SAPC      H14R            8.8848386762       -1.0041263096        6.0346347635  MEMB      3               0.0000000000
       222         3  SAPC      C215            8.8866374235       -2.2701504038        4.3219151437  MEMB      3               0.0000000000
       223         3  SAPC      H15R            7.9850941247       -1.8260991169        3.8746589204  MEMB      3               0.0000000000
       224         3  SAPC      C216            9.3995587581       -3.4572556038        3.5097838556  MEMB      3               0.0000000000
       225         3  SAPC      H16R            8.5638515449       -4.1008228686        3.1608770545  MEMB      3               0.0000000000
       226         3  SAPC      H16S           10.1575070723       -4.0108643482        4.1042183882  MEMB      3               0.0000000000
       227         3  SAPC      C217           10.2240270907       -3.0622128219        2.2736952175  MEMB      3               0.0000000000
       228         3  SAPC      H17R           10.4109134895       -4.0047642190        1.7160294331  MEMB      3               0.0000000000
       229         3  SAPC      H17S           11.1661015134       -2.5250650085        2.5151263184  MEMB      3               0.0000000000
       230         3  SAPC      C218            9.5299427717       -2.0417837024        1.2798581335  MEMB      3               0.0000000000
       231         3  SAPC      H18R            9.3846498903       -1.0191538909        1.6890515690  MEMB      3               0.0000000000
       232         3  SAPC      H18S            8.5463026760       -2.4644017206        0.9829286486  MEMB      3               0.0000000000
       233         3  SAPC      C219           10.3140693775       -2.1150258492       -0.0720030232  MEMB      3               0.0000000000
       234         3  SAPC      H19R           10.1994440950       -3.1268259198       -0.5163487170  MEMB      3               0.0000000000
       235         3  SAPC      H19S           11.4032759828       -1.9499280272        0.0718464301  MEMB      3               0.0000000000
       236         3  SAPC      C220            9.8204689817       -1.0823361251       -0.9917912699  MEMB      3               0.0000000000
       237         3  SAPC      H20R            9.9404568175       -0.0438259754       -0.6157323058  MEMB      3               0.0000000000
       238         3  SAPC      H20S            8.7557179993       -1.2225200807       -1.2763523192  MEMB      3               0.0000000000
       239         3  SAPC      H20T           10.5383853340       -1.1829437311       -1.8336922688  MEMB      3               0.0000000000
       240         3  SAPC      C33            11.1794322052       -3.6176090679       14.1425342699  MEMB      3               0.0000000000
       241         3  SAPC      H3X            11.6449248978       -4.6263340787       14.1319781291  MEMB      3               0.0000000000
       242         3  SAPC      H3Y            11.8914324269       -2.9889612710       13.5661846374  MEMB      3               0.0000000000
       243         3  SAPC      C34             9.8540424771       -3.7876943890       13.3061965762  MEMB      3               0.0000000000
       244         3  SAPC      H4X            10.3010322806       -4.0201569638       12.3160037861  MEMB      3               0.0000000000
       245         3  SAPC      H4Y             9.3203045704       -2.8164261713       13.2282038288  MEMB      3               0.0000000000
       246         3  SAPC      C35             9.0491263058       -5.0533694833       13.5975469468  MEMB      3               0.0000000000
       247         3  SAPC      H5X             8.7713498787       -5.1981961964       14.6634673812  MEMB      3               0.0000000000
       248         3  SAPC      H5Y             9.7089400613       -5.9360485170       13.4566769443  MEMB      3               0.0000000000
       249         3  SAPC      C36             7.6858207324       -5.2083397647       12.9465756620  MEMB      3               0.0000000000
       250         3  SAPC      H6X             7.0648625371       -4.3847184303       13.3593468369  MEMB      3               0.0000000000
       251         3  SAPC      H6Y             7.0393381118       -6.0374652688       13.3056465845  MEMB      3               0.0000000000
       252         3  SAPC      C37             7.8010564781       -5.3891757865       11.4519161431  MEMB      3               0.0000000000
       253         3  SAPC      H7X             8.2051525898       -6.4045927472       11.2520279821  MEMB      3               0.0000000000
       254         3  SAPC      H7Y             8.4862146466       -4.6099714370       11.0547774765  MEMB      3               0.0000000000
       255         3  SAPC      C38             6.5249624070       -5.3229887609       10.6580057193  MEMB      3               0.0000000000
       256         3  SAPC      H8X             6.0811649409       -4.3618415505       10.9949938141  MEMB      3               0.0000000000
       257         3  SAPC      H8Y             5.8056289894       -6.0654580939       11.0649691150  MEMB      3               0.0000000000
       258         3  SAPC      C39             6.5010893192       -5.4319713511        9.0812558274  MEMB      3               0.0000000000
       259         3  SAPC      H9X             5.4235182684       -5.3694934603        8.8180871002  MEMB      3               0.0000000000
       260         3  SAPC      H9Y             7.0269121170       -6.3675882176        8.7941099858  MEMB      3               0.0000000000
       261         3  SAPC      C310            7.2774772427       -4.2048321408        8.4734238467  MEMB      3               0.0000000000
       262         3  SAPC      H10X            7.5308995031       -4.4464785453        7.4190490813  MEMB      3               0.0000000000
       263         3  SAPC      H10Y            8.2467231647       -4.2301774185        9.0158636758  MEMB      3               0.0000000000
       264         3  SAPC      C311            6.6014417975       -2.7665391640        8.5713641870  MEMB      3               0.0000000000
       265         3  SAPC      H11X            7.2894099509       -2.0131932297        8.1314883615  MEMB      3               0.0000000000
       266         3  SAPC      H11Y            6.3069777791       -2.4606889008        9.5980425387  MEMB      3               0.0000000000
       267         3  SAPC      C312            5.3432901253       -2.5669689400        7.7134474352  MEMB      3               0.0000000000
       268         3  SAPC      H12X            4.4968519421       -3.1230572300        8.1702072007  MEMB      3               0.0000000000
       269         3  SAPC      H12Y            5.6467911898       -2.8710019946        6.6888632767  MEMB      3               0.0000000000
       270         3  SAPC      C313            4.8833790815       -1.1882887336        7.7796936432  MEMB      3               0.0000000000
       271         3  SAPC      H13X            5.6059161014       -0.5447507733        8.3256971950  MEMB      3               0.0000000000
       272         3  SAPC      H13Y            4.0176064977       -1.1047618132        8.4709110621  MEMB      3               0.0000000000
       273         3  SAPC      C314            4.4847736092       -0.6331739788        6.3952412523  MEMB      3               0.0000000000
       274         3  SAPC      H14X            3.8696512507        0.2849631454        6.5091276122  MEMB      3               0.0000000000
       275         3  SAPC      H14Y            3.8438116056       -1.4895725455        6.0951245346  MEMB      3               0.0000000000
       276         3  SAPC      C315            5.6456616763       -0.5902047868        5.3463078428  MEMB      3               0.0000000000
       277         3  SAPC      H15X            6.0774960131       -1.6059727495        5.2195971549  MEMB      3               0.0000000000
       278         3  SAPC      H15Y            6.4085302754        0.0410861832        5.8501173127  MEMB      3               0.0000000000
       279         3  SAPC      C316            5.2349453511        0.1367312299        4.0778413808  MEMB      3               0.0000000000
       280         3  SAPC      H16X            4.7237187211        1.0155739940        4.5257289041  MEMB      3               0.0000000000
       281         3  SAPC      H16Y            4.5611973094       -0.3920364336        3.3701766558  MEMB      3               0.0000000000
       282         3  SAPC      C317            6.4092165432        0.7510521160        3.2585788825  MEMB      3               0.0000000000
       283         3  SAPC      H17X            7.3404777039        0.6679647322        3.8587198464  MEMB      3               0.0000000000
       284         3  SAPC      H17Y            6.1216275880        1.8240265677        3.2769926750  MEMB      3               0.0000000000
       285         3  SAPC      C318            6.6103866217       -0.0032137241        1.9638616554  MEMB      3               0.0000000000
       286         3  SAPC      H18X            6.8502931757       -1.0671749989        2.1754097553  MEMB      3               0.0000000000
       287         3  SAPC      H18Y            7.5143554502        0.3271119672        1.4088442516  MEMB      3               0.0000000000
       288         3  SAPC      H18Z            5.7510731053        0.0571608798        1.2622524985  MEMB      3               0.0000000000
       289         4  CHL1      C3             -6.3209285555        3.3810677789       17.3805300000  MEMB      4               0.0000000000
       290         4  CHL1      H3             -5.2838266511        3.3025553517       17.7711600000  MEMB      4               0.0000000000
       291         4  CHL1      O3             -6.9753513845        3.7550093411       18.6194700000  MEMB      4               0.0000000000
       292         4  CHL1      H3'            -6.8544132240        3.0253850801       19.2315400000  MEMB      4               0.0000000000
       293         4  CHL1      C4             -6.5508158832        4.4858304197       16.3985000000  MEMB      4               0.0000000000
       294         4  CHL1      H4A            -7.6115273922        4.8002755760       16.5000900000  MEMB      4               0.0000000000
       295         4  CHL1      H4B            -5.9750138971        5.3922709499       16.6833700000  MEMB      4               0.0000000000
       296         4  CHL1      C5             -6.2985204342        4.0845854070       14.9061400000  MEMB      4               0.0000000000
       297         4  CHL1      C6             -5.4885203440        4.9201077466       14.1912900000  MEMB      4               0.0000000000
       298         4  CHL1      H6             -5.0709843819        5.8124975070       14.6804900000  MEMB      4               0.0000000000
       299         4  CHL1      C7             -5.2064566819        4.8046786523       12.7352500000  MEMB      4               0.0000000000
       300         4  CHL1      H7A            -5.4448917268        5.7657537219       12.2314600000  MEMB      4               0.0000000000
       301         4  CHL1      H7B            -4.1207956867        4.5980584798       12.6214300000  MEMB      4               0.0000000000
       302         4  CHL1      C8             -6.1102882532        3.6371674815       12.2245300000  MEMB      4               0.0000000000
       303         4  CHL1      H8             -7.1922540968        3.8893854857       12.2318600000  MEMB      4               0.0000000000
       304         4  CHL1      C14            -5.6960086888        3.1851111388       10.8114700000  MEMB      4               0.0000000000
       305         4  CHL1      H14            -4.7200296959        2.6996360318       11.0261900000  MEMB      4               0.0000000000
       306         4  CHL1      C15            -5.4864618944        4.1575377603        9.6936700000  MEMB      4               0.0000000000
       307         4  CHL1      H15A           -6.2570797244        4.9447478543        9.5495600000  MEMB      4               0.0000000000
       308         4  CHL1      H15B           -4.4657552679        4.5408442324        9.9071300000  MEMB      4               0.0000000000
       309         4  CHL1      C16            -5.4271217651        3.2670616284        8.4084400000  MEMB      4               0.0000000000
       310         4  CHL1      H16A           -6.1702574738        3.5613512090        7.6367800000  MEMB      4               0.0000000000
       311         4  CHL1      H16B           -4.4172538674        3.4832268885        7.9988500000  MEMB      4               0.0000000000
       312         4  CHL1      C17            -5.7979130217        1.7686792636        8.8029500000  MEMB      4               0.0000000000
       313         4  CHL1      H17            -4.8892456934        1.1828522403        9.0587600000  MEMB      4               0.0000000000
       314         4  CHL1      C13            -6.4707617784        1.9762584677       10.1866100000  MEMB      4               0.0000000000
       315         4  CHL1      C18            -7.9347570188        2.4356988905       10.0233600000  MEMB      4               0.0000000000
       316         4  CHL1      H18A           -8.0926947498        3.3732219546        9.4485300000  MEMB      4               0.0000000000
       317         4  CHL1      H18B           -8.4206412334        1.6469115030        9.4101200000  MEMB      4               0.0000000000
       318         4  CHL1      H18C           -8.5594563562        2.4838052132       10.9408300000  MEMB      4               0.0000000000
       319         4  CHL1      C12            -6.3318360945        0.7390503507       11.1337100000  MEMB      4               0.0000000000
       320         4  CHL1      H12A           -6.9830859469       -0.0831588078       10.7674300000  MEMB      4               0.0000000000
       321         4  CHL1      H12B           -5.2447056398        0.5100542003       11.1388800000  MEMB      4               0.0000000000
       322         4  CHL1      C11            -6.7091865735        1.0694243334       12.5076400000  MEMB      4               0.0000000000
       323         4  CHL1      H11A           -7.8149052090        1.1772321324       12.4980400000  MEMB      4               0.0000000000
       324         4  CHL1      H11B           -6.4813634611        0.1766173368       13.1283700000  MEMB      4               0.0000000000
       325         4  CHL1      C9             -6.1207673047        2.3464904966       13.1497800000  MEMB      4               0.0000000000
       326         4  CHL1      H9             -5.0341874217        2.2794851859       13.3715100000  MEMB      4               0.0000000000
       327         4  CHL1      C10            -6.8077160424        2.7544838395       14.4011700000  MEMB      4               0.0000000000
       328         4  CHL1      C19            -8.3176906020        2.7590159372       14.3485800000  MEMB      4               0.0000000000
       329         4  CHL1      H19A           -8.6829164345        3.3089784666       15.2421500000  MEMB      4               0.0000000000
       330         4  CHL1      H19B           -8.8335083956        3.1179254989       13.4323700000  MEMB      4               0.0000000000
       331         4  CHL1      H19C           -8.6740260476        1.7111941939       14.4456500000  MEMB      4               0.0000000000
       332         4  CHL1      C1             -6.3789286862        1.7185789998       15.4946400000  MEMB      4               0.0000000000
       333         4  CHL1      H1A            -6.6714330218        0.7174386993       15.1119000000  MEMB      4               0.0000000000
       334         4  CHL1      H1B            -5.2780643696        1.8386054698       15.4051900000  MEMB      4               0.0000000000
       335         4  CHL1      C2             -6.8711131411        2.0257102273       16.8814000000  MEMB      4               0.0000000000
       336         4  CHL1      H2A            -6.6249526082        1.2258027501       17.6120600000  MEMB      4               0.0000000000
       337         4  CHL1      H2B            -7.9820233296        2.0173689764       16.8698300000  MEMB      4               0.0000000000
       338         4  CHL1      C20            -6.4346119818        0.9626355414        7.6571600000  MEMB      4               0.0000000000
       339         4  CHL1      H20            -7.2798212739        1.5843204306        7.2918400000  MEMB      4               0.0000000000
       340         4  CHL1      C21            -7.0361796430       -0.4201717176        8.1659100000  MEMB      4               0.0000000000
       341         4  CHL1      H21A           -7.2497949956       -0.9684089945        7.2235100000  MEMB      4               0.0000000000
       342         4  CHL1      H21B           -7.9782223966       -0.2062468905        8.7146400000  MEMB      4               0.0000000000
       343         4  CHL1      H21C           -6.2143248520       -0.9180230468        8.7236000000  MEMB      4               0.0000000000
       344         4  CHL1      C22            -5.4924829177        0.8713043742        6.5036200000  MEMB      4               0.0000000000
       345         4  CHL1      H22A           -4.8498316864        1.7674939674        6.3688000000  MEMB      4               0.0000000000
       346         4  CHL1      H22B           -4.8373527391        0.0635863574        6.8944000000  MEMB      4               0.0000000000
       347         4  CHL1      C23            -6.1323499597        0.5629541411        5.1823800000  MEMB      4               0.0000000000
       348         4  CHL1      H23A           -5.3008215667        0.2872496554        4.4991000000  MEMB      4               0.0000000000
       349         4  CHL1      H23B           -6.8471855169       -0.2854323098        5.2422600000  MEMB      4               0.0000000000
       350         4  CHL1      C24            -6.7979954398        1.8264492962        4.5686200000  MEMB      4               0.0000000000
       351         4  CHL1      H24A           -7.7432981672        2.1057403346        5.0812000000  MEMB      4               0.0000000000
       352         4  CHL1      H24B           -6.0935818976        2.6840101248        4.6205900000  MEMB      4               0.0000000000
       353         4  CHL1      C25            -7.2036652454        1.7035813454        3.1171400000  MEMB      4               0.0000000000
       354         4  CHL1      H25            -6.3627722823        1.3427423530        2.4870500000  MEMB      4               0.0000000000
       355         4  CHL1      C26            -8.4291766275        0.6836906742        3.0441800000  MEMB      4               0.0000000000
       356         4  CHL1      H26A           -9.2676308362        1.0413414105        3.6793100000  MEMB      4               0.0000000000
       357         4  CHL1      H26B           -8.7621339660        0.5522554521        1.9924200000  MEMB      4               0.0000000000
       358         4  CHL1      H26C           -8.1395419238       -0.3034616947        3.4636600000  MEMB      4               0.0000000000
       359         4  CHL1      C27            -7.6877397220        3.0294832093        2.4805600000  MEMB      4               0.0000000000
       360         4  CHL1      H27A           -6.8816404487        3.7929584412        2.5211700000  MEMB      4               0.0000000000
       361         4  CHL1      H27B           -7.8893268951        2.8524727787        1.4024400000  MEMB      4               0.0000000000
       362         4  CHL1      H27C           -8.5404829070        3.5180312693        2.9987100000  MEMB      4               0.0000000000
       363         5  SLPC      N              10.8248236889        2.2997294179       18.5283733325  MEMB      5               0.0000000000
       364         5  SLPC      C13             9.8907214597        3.1796778552       19.1858213117  MEMB      5               0.0000000000
       365         5  SLPC      H13A            9.3444782527        3.7644385081       18.4605121995  MEMB      5               0.0000000000
       366         5  SLPC      H13B            9.1999788477        2.5781218011       19.7580143978  MEMB      5               0.0000000000
       367         5  SLPC      H13C           10.4586630511        3.7702350409       19.8894437265  MEMB      5               0.0000000000
       368         5  SLPC      C14            11.5291385199        1.3867592667       19.5959876755  MEMB      5               0.0000000000
       369         5  SLPC      H14A           10.7784352505        0.7387753187       20.0237275310  MEMB      5               0.0000000000
       370         5  SLPC      H14B           12.2749239909        0.8451014257       19.0331281435  MEMB      5               0.0000000000
       371         5  SLPC      H14C           11.9933493261        1.9993950529       20.3546612813  MEMB      5               0.0000000000
       372         5  SLPC      C15            11.9553707651        3.1128893961       17.8378711385  MEMB      5               0.0000000000
       373         5  SLPC      H15A           12.5796768753        2.4123786991       17.3031501708  MEMB      5               0.0000000000
       374         5  SLPC      H15B           11.5124226631        3.8848094916       17.2260407726  MEMB      5               0.0000000000
       375         5  SLPC      H15C           12.5230731748        3.5664868642       18.6368475297  MEMB      5               0.0000000000
       376         5  SLPC      C12            10.2854924837        1.3615717981       17.4791211652  MEMB      5               0.0000000000
       377         5  SLPC      H12A            9.4978104296        0.7882569069       17.9452402521  MEMB      5               0.0000000000
       378         5  SLPC      H12B           11.0692898187        0.7105469637       17.1210307695  MEMB      5               0.0000000000
       379         5  SLPC      C11             9.7296883849        2.0541341595       16.1525636691  MEMB      5               0.0000000000
       380         5  SLPC      H11A            9.5234290361        1.1953222179       15.4786051862  MEMB      5               0.0000000000
       381         5  SLPC      H11B           10.4265582223        2.7634803809       15.6570625403  MEMB      5               0.0000000000
       382         5  SLPC      P               7.7581576816        3.7953136999       15.6092210928  MEMB      5               0.0000000000
       383         5  SLPC      O13             7.1628763748        3.0762600732       14.4430901972  MEMB      5               0.0000000000
       384         5  SLPC      O14             6.7497520689        4.4105656027       16.4515490539  MEMB      5               0.0000000000
       385         5  SLPC      O12             8.5623086654        2.8102676518       16.5688938711  MEMB      5               0.0000000000
       386         5  SLPC      O11             8.8630854880        4.8279758238       15.1475074964  MEMB      5               0.0000000000
       387         5  SLPC      C1              8.7277224683        6.1510138724       15.5741756063  MEMB      5               0.0000000000
       388         5  SLPC      HA              7.7299928313        6.5692429998       15.3213105543  MEMB      5               0.0000000000
       389         5  SLPC      HB              8.8107023918        6.1506229222       16.6820723354  MEMB      5               0.0000000000
       390         5  SLPC      C2              9.8957555528        7.0070849178       15.0627695487  MEMB      5               0.0000000000
       391         5  SLPC      HS              9.8150516970        8.0180800722       15.5163074318  MEMB      5               0.0000000000
       392         5  SLPC      O21            10.0072385214        7.0949633385       13.6555386733  MEMB      5               0.0000000000
       393         5  SLPC      C21             9.0555941733        7.8625194548       13.1032053578  MEMB      5               0.0000000000
       394         5  SLPC      O22             8.1975246344        8.4887154862       13.7215971273  MEMB      5               0.0000000000
       395         5  SLPC      C22             9.2722891371        7.9143663696       11.5659002087  MEMB      5               0.0000000000
       396         5  SLPC      H2R             9.5587360190        8.9408405786       11.2518623147  MEMB      5               0.0000000000
       397         5  SLPC      H2S            10.2246377140        7.3702305821       11.3890680027  MEMB      5               0.0000000000
       398         5  SLPC      C3             11.2540156652        6.4528257890       15.6651206080  MEMB      5               0.0000000000
       399         5  SLPC      HX             11.0111637747        6.2740473417       16.7344110945  MEMB      5               0.0000000000
       400         5  SLPC      HY             12.0446996528        7.2321758942       15.6232446485  MEMB      5               0.0000000000
       401         5  SLPC      O31            11.6326478732        5.1833252597       15.0324644271  MEMB      5               0.0000000000
       402         5  SLPC      C31            12.3598189389        5.0628967453       13.9704052635  MEMB      5               0.0000000000
       403         5  SLPC      O32            12.9763525212        5.9377339290       13.4052865496  MEMB      5               0.0000000000
       404         5  SLPC      C32            12.3655309658        3.6571193541       13.4521661045  MEMB      5               0.0000000000
       405         5  SLPC      H2X            11.9860579013        2.8948554300       14.1658008516  MEMB      5               0.0000000000
       406         5  SLPC      H2Y            13.4104005357        3.3812341145       13.1943759841  MEMB      5               0.0000000000
       407         5  SLPC      C23             8.0911803909        7.2928887759       10.7176324872  MEMB      5               0.0000000000
       408         5  SLPC      H3R             7.1491125366        7.7743701458       11.0567567479  MEMB      5               0.0000000000
       409         5  SLPC      H3S             8.1533131201        6.2062664362       10.9405961731  MEMB      5               0.0000000000
       410         5  SLPC      C24             8.1397418144        7.4305678608        9.1715041340  MEMB      5               0.0000000000
       411         5  SLPC      H4R             7.7221278808        8.4390441857        8.9643915839  MEMB      5               0.0000000000
       412         5  SLPC      H4S             7.3874377296        6.7820062610        8.6737817226  MEMB      5               0.0000000000
       413         5  SLPC      C25             9.5173667531        7.3633415956        8.5433865649  MEMB      5               0.0000000000
       414         5  SLPC      H5R            10.1169324349        6.4300878045        8.6056707037  MEMB      5               0.0000000000
       415         5  SLPC      H5S            10.1087211094        8.1720104747        9.0236739849  MEMB      5               0.0000000000
       416         5  SLPC      C26             9.3712054332        7.6816714589        7.0396346451  MEMB      5               0.0000000000
       417         5  SLPC      H6R             9.3889312762        8.7865241600        6.9242749554  MEMB      5               0.0000000000
       418         5  SLPC      H6S             8.4604926725        7.2662525435        6.5576069837  MEMB      5               0.0000000000
       419         5  SLPC      C27            10.5538802504        7.1138869461        6.1298946820  MEMB      5               0.0000000000
       420         5  SLPC      H7R            10.3589717487        7.5833938343        5.1420206903  MEMB      5               0.0000000000
       421         5  SLPC      H7S            10.4353190292        6.0118282890        6.0541913884  MEMB      5               0.0000000000
       422         5  SLPC      C28            11.9479928709        7.5433425106        6.5463025853  MEMB      5               0.0000000000
       423         5  SLPC      H8R            11.9912313174        7.2888061782        7.6268872761  MEMB      5               0.0000000000
       424         5  SLPC      H8S            12.0950210210        8.6443146705        6.5700529918  MEMB      5               0.0000000000
       425         5  SLPC      C29            13.0366298805        6.8791987926        5.7629995143  MEMB      5               0.0000000000
       426         5  SLPC      H9R            13.3645054626        7.4888349419        4.9081069614  MEMB      5               0.0000000000
       427         5  SLPC      C210           13.6197107308        5.6982041768        6.0700911542  MEMB      5               0.0000000000
       428         5  SLPC      H10R           14.4446293032        5.3221369296        5.4471282468  MEMB      5               0.0000000000
       429         5  SLPC      C211           13.3348803684        4.7790576133        7.2414558538  MEMB      5               0.0000000000
       430         5  SLPC      H11R           13.4233206420        5.4959337141        8.0856045132  MEMB      5               0.0000000000
       431         5  SLPC      H11S           14.1343198807        4.0182147436        7.3692659372  MEMB      5               0.0000000000
       432         5  SLPC      C212           12.0299177401        4.1661014849        7.3185328560  MEMB      5               0.0000000000
       433         5  SLPC      H12R           11.4084397971        4.6030412922        8.1140509075  MEMB      5               0.0000000000
       434         5  SLPC      C213           11.6120758462        3.0168599848        6.6967115467  MEMB      5               0.0000000000
       435         5  SLPC      H13R           10.5267576596        2.8394110941        6.7211299598  MEMB      5               0.0000000000
       436         5  SLPC      C214           12.4315365420        2.1465333826        5.7476218462  MEMB      5               0.0000000000
       437         5  SLPC      H14R           12.5592304713        1.1555938947        6.2334754666  MEMB      5               0.0000000000
       438         5  SLPC      H14S           13.4665972663        2.5326496037        5.6297892873  MEMB      5               0.0000000000
       439         5  SLPC      C215           11.7741963608        1.9336629936        4.3894998229  MEMB      5               0.0000000000
       440         5  SLPC      H15R           10.7332178740        1.5548144566        4.4741071443  MEMB      5               0.0000000000
       441         5  SLPC      H15S           12.3502541327        1.1668150353        3.8287655941  MEMB      5               0.0000000000
       442         5  SLPC      C216           11.5474834350        3.1468491257        3.5621371504  MEMB      5               0.0000000000
       443         5  SLPC      H16R           11.0124082889        3.8606460652        4.2243379598  MEMB      5               0.0000000000
       444         5  SLPC      H16S           10.9490430741        2.7464889892        2.7160274914  MEMB      5               0.0000000000
       445         5  SLPC      C217           12.8172222778        3.7504690220        2.9002682395  MEMB      5               0.0000000000
       446         5  SLPC      H17R           13.3067735079        3.0648526160        2.1759817333  MEMB      5               0.0000000000
       447         5  SLPC      H17S           13.4757592798        3.9495890915        3.7726219091  MEMB      5               0.0000000000
       448         5  SLPC      C218           12.4811019860        5.1031805906        2.1798872551  MEMB      5               0.0000000000
       449         5  SLPC      H18R           11.6206707135        5.5719526200        2.7035578351  MEMB      5               0.0000000000
       450         5  SLPC      H18S           12.1663773830        4.8347331019        1.1487686792  MEMB      5               0.0000000000
       451         5  SLPC      H18T           13.3209058821        5.8269574914        2.1077899234  MEMB      5               0.0000000000
       452         5  SLPC      C33            11.7320028148        3.6028735132       12.0804712535  MEMB      5               0.0000000000
       453         5  SLPC      H3X            11.8935960935        2.5162581920       11.9147133102  MEMB      5               0.0000000000
       454         5  SLPC      H3Y            12.4079171089        4.1405756740       11.3816597845  MEMB      5               0.0000000000
       455         5  SLPC      C34            10.1805165899        3.6564806112       11.9880224999  MEMB      5               0.0000000000
       456         5  SLPC      H4X             9.7048862544        4.5973668588       12.3384936663  MEMB      5               0.0000000000
       457         5  SLPC      H4Y             9.7319820694        3.0330613044       12.7908216834  MEMB      5               0.0000000000
       458         5  SLPC      C35             9.5142098574        3.2394425172       10.5809206817  MEMB      5               0.0000000000
       459         5  SLPC      H5X            10.1402840399        2.3662099570       10.2984016316  MEMB      5               0.0000000000
       460         5  SLPC      H5Y             9.5699853394        4.1360422505        9.9272241005  MEMB      5               0.0000000000
       461         5  SLPC      C36             7.9623835433        2.8950334831       10.6400203551  MEMB      5               0.0000000000
       462         5  SLPC      H6X             7.4472428464        3.7709894738       11.0890773913  MEMB      5               0.0000000000
       463         5  SLPC      H6Y             7.7858434241        2.0406646307       11.3279219321  MEMB      5               0.0000000000
       464         5  SLPC      C37             7.4095736965        2.5651712040        9.2459719624  MEMB      5               0.0000000000
       465         5  SLPC      H7X             6.4123362372        2.0792856713        9.3072384387  MEMB      5               0.0000000000
       466         5  SLPC      H7Y             8.1604232274        1.9098233786        8.7549879439  MEMB      5               0.0000000000
       467         5  SLPC      C38             7.1667961551        3.8245396227        8.3334203252  MEMB      5               0.0000000000
       468         5  SLPC      H8X             8.1246662785        4.3517129140        8.1362040630  MEMB      5               0.0000000000
       469         5  SLPC      H8Y             6.5826363988        4.4906646877        9.0037602442  MEMB      5               0.0000000000
       470         5  SLPC      C39             6.5215270482        3.5898243065        6.9870166388  MEMB      5               0.0000000000
       471         5  SLPC      H9X             5.8227274320        4.4513149659        6.9250977448  MEMB      5               0.0000000000
       472         5  SLPC      H9Y             5.8687139160        2.6908684664        6.9928849638  MEMB      5               0.0000000000
       473         5  SLPC      C310            7.5265934874        3.6148443341        5.8108554852  MEMB      5               0.0000000000
       474         5  SLPC      H10X            8.3652625525        2.9189740113        6.0270037668  MEMB      5               0.0000000000
       475         5  SLPC      H10Y            7.9180643167        4.6541667228        5.7811763502  MEMB      5               0.0000000000
       476         5  SLPC      C311            6.8837632815        3.3179918464        4.4581536877  MEMB      5               0.0000000000
       477         5  SLPC      H11X            6.0119338236        3.9660094036        4.2251134777  MEMB      5               0.0000000000
       478         5  SLPC      H11Y            6.4609143928        2.2959080916        4.3539199260  MEMB      5               0.0000000000
       479         5  SLPC      C312            7.8970659284        3.5061914782        3.2595730030  MEMB      5               0.0000000000
       480         5  SLPC      H12X            7.3426588825        3.2540433374        2.3303937628  MEMB      5               0.0000000000
       481         5  SLPC      H12Y            8.7399291943        2.7845785324        3.3159395802  MEMB      5               0.0000000000
       482         5  SLPC      C313            8.7203483642        4.8433678274        3.1879826788  MEMB      5               0.0000000000
       483         5  SLPC      H13X            9.5152882650        4.7041498724        2.4244318984  MEMB      5               0.0000000000
       484         5  SLPC      H13Y            9.1292810537        5.0812617504        4.1932197997  MEMB      5               0.0000000000
       485         5  SLPC      C314            7.7686350567        6.0594697711        2.9440998618  MEMB      5               0.0000000000
       486         5  SLPC      H14X            6.8705713236        5.8977031932        3.5778461865  MEMB      5               0.0000000000
       487         5  SLPC      H14Y            7.4337372155        5.9189322778        1.8941410156  MEMB      5               0.0000000000
       488         5  SLPC      C315            8.2718234163        7.4910398987        2.9962194925  MEMB      5               0.0000000000
       489         5  SLPC      H15X            9.2983840929        7.5517808331        2.5757385511  MEMB      5               0.0000000000
       490         5  SLPC      H15Y            8.4490918455        7.8793633213        4.0219402856  MEMB      5               0.0000000000
       491         5  SLPC      C316            7.1658907288        8.4477608605        2.2940721231  MEMB      5               0.0000000000
       492         5  SLPC      H16X            7.4520805490        9.4674930325        2.6295767925  MEMB      5               0.0000000000
       493         5  SLPC      H16Y            6.1395795894        8.2172660623        2.6516737468  MEMB      5               0.0000000000
       494         5  SLPC      C317            7.1719551139        8.4548477200        0.7456696223  MEMB      5               0.0000000000
       495         5  SLPC      H17X            6.2178020535        8.9834932437        0.5348445325  MEMB      5               0.0000000000
       496         5  SLPC      H17Y            7.0812412077        7.4502648591        0.2799392036  MEMB      5               0.0000000000
       497         5  SLPC      C318            8.3512937396        9.2766418440        0.1655887293  MEMB      5               0.0000000000
       498         5  SLPC      H18X            8.3266371216       10.3207339621        0.5445151943  MEMB      5               0.0000000000
       499         5  SLPC      H18Y            8.4389060120        9.3383433801       -0.9402311504  MEMB      5               0.0000000000
       500         5  SLPC      H18Z            9.3248680525        8.9003719067        0.5462398725  MEMB      5               0.0000000000
       501         6  CHL1      C3             -3.1836595665       10.3128518804       17.3462250000  MEMB      6               0.0000000000
       502         6  CHL1      H3             -3.7767937794       11.2516276459       17.3114250000  MEMB      6               0.0000000000
       503         6  CHL1      O3             -2.8133560735       10.1597523196       18.6537750000  MEMB      6               0.0000000000
       504         6  CHL1      H3'            -2.7690674497        9.2098627903       18.7854650000  MEMB      6               0.0000000000
       505         6  CHL1      C4             -4.0077132927        9.0680018111       16.9973750000  MEMB      6               0.0000000000
       506         6  CHL1      H4A            -3.4122717316        8.1776820271       17.2924950000  MEMB      6               0.0000000000
       507         6  CHL1      H4B            -4.8781036573        8.9183838989       17.6714450000  MEMB      6               0.0000000000
       508         6  CHL1      C5             -4.2687671634        8.9705776194       15.4565250000  MEMB      6               0.0000000000
       509         6  CHL1      C6             -5.5715673204        8.8172848780       15.1068450000  MEMB      6               0.0000000000
       510         6  CHL1      H6             -6.2508791790        8.5733549552       15.9369350000  MEMB      6               0.0000000000
       511         6  CHL1      C7             -6.1591068891        8.7565392660       13.7415850000  MEMB      6               0.0000000000
       512         6  CHL1      H7A            -6.8550622733        7.8947592108       13.6560850000  MEMB      6               0.0000000000
       513         6  CHL1      H7B            -6.8432416734        9.6019658750       13.5145950000  MEMB      6               0.0000000000
       514         6  CHL1      C8             -5.0268718305        8.7268824797       12.6764450000  MEMB      6               0.0000000000
       515         6  CHL1      H8             -4.7814012192        7.6436584416       12.6503950000  MEMB      6               0.0000000000
       516         6  CHL1      C14            -5.5901115289        9.0257055152       11.2814450000  MEMB      6               0.0000000000
       517         6  CHL1      H14            -5.9789103290       10.0635492040       11.3591950000  MEMB      6               0.0000000000
       518         6  CHL1      C15            -6.7572723334        8.1739676664       10.7524150000  MEMB      6               0.0000000000
       519         6  CHL1      H15A           -6.4176766583        7.1164428066       10.7774250000  MEMB      6               0.0000000000
       520         6  CHL1      H15B           -7.7430044366        8.3656528386       11.2277250000  MEMB      6               0.0000000000
       521         6  CHL1      C16            -6.8396554562        8.6084171954        9.3092650000  MEMB      6               0.0000000000
       522         6  CHL1      H16A           -6.9281302113        7.6859934669        8.6963750000  MEMB      6               0.0000000000
       523         6  CHL1      H16B           -7.6036121654        9.3833206303        9.0851950000  MEMB      6               0.0000000000
       524         6  CHL1      C17            -5.5813437726        9.5213607673        8.9791050000  MEMB      6               0.0000000000
       525         6  CHL1      H17            -5.8570549825       10.5839721880        9.1499050000  MEMB      6               0.0000000000
       526         6  CHL1      C13            -4.5702816083        9.1152352981       10.1164650000  MEMB      6               0.0000000000
       527         6  CHL1      C18            -3.9906563616        7.7627393006        9.8508950000  MEMB      6               0.0000000000
       528         6  CHL1      H18A           -3.2876314237        8.0420440897        9.0372250000  MEMB      6               0.0000000000
       529         6  CHL1      H18B           -3.5103463480        7.2408418786       10.7060350000  MEMB      6               0.0000000000
       530         6  CHL1      H18C           -4.6374981544        7.0116005797        9.3491850000  MEMB      6               0.0000000000
       531         6  CHL1      C12            -3.4493218903       10.1379533300       10.5266050000  MEMB      6               0.0000000000
       532         6  CHL1      H12A           -2.6968238187       10.1596494245        9.7095350000  MEMB      6               0.0000000000
       533         6  CHL1      H12B           -3.9246045733       11.1374997908       10.6232150000  MEMB      6               0.0000000000
       534         6  CHL1      C11            -2.7251409128        9.7930157283       11.8186250000  MEMB      6               0.0000000000
       535         6  CHL1      H11A           -2.2095735684        8.8216446427       11.6606950000  MEMB      6               0.0000000000
       536         6  CHL1      H11B           -1.9867843186       10.5369943361       12.1869150000  MEMB      6               0.0000000000
       537         6  CHL1      C9             -3.8511231130        9.6312143657       13.0034350000  MEMB      6               0.0000000000
       538         6  CHL1      H9             -4.3110142716       10.6408298867       13.0625750000  MEMB      6               0.0000000000
       539         6  CHL1      C10            -3.2203489210        9.2848934998       14.4185850000  MEMB      6               0.0000000000
       540         6  CHL1      C19            -2.3340748190        8.0572065215       14.2303750000  MEMB      6               0.0000000000
       541         6  CHL1      H19A           -1.5075035924        8.3777999573       13.5608150000  MEMB      6               0.0000000000
       542         6  CHL1      H19B           -1.8201565750        7.8130964747       15.1846350000  MEMB      6               0.0000000000
       543         6  CHL1      H19C           -2.8165916157        7.0935087964       13.9606050000  MEMB      6               0.0000000000
       544         6  CHL1      C1             -2.4279273717       10.5531546942       14.9676050000  MEMB      6               0.0000000000
       545         6  CHL1      H1A            -1.5708350697       10.5161892898       14.2616650000  MEMB      6               0.0000000000
       546         6  CHL1      H1B            -3.0397898823       11.4628207471       14.7874850000  MEMB      6               0.0000000000
       547         6  CHL1      C2             -2.0105092959       10.4321409525       16.4261650000  MEMB      6               0.0000000000
       548         6  CHL1      H2A            -1.4626451291       11.2875166466       16.8761650000  MEMB      6               0.0000000000
       549         6  CHL1      H2B            -1.4273009416        9.5020605265       16.5968350000  MEMB      6               0.0000000000
       550         6  CHL1      C20            -5.1246357961        9.3375338375        7.4844050000  MEMB      6               0.0000000000
       551         6  CHL1      H20            -4.6481034812        8.3424638285        7.3537950000  MEMB      6               0.0000000000
       552         6  CHL1      C21            -3.9663042774       10.2935508296        7.1696550000  MEMB      6               0.0000000000
       553         6  CHL1      H21A           -4.2212309058       11.3145921447        7.5257550000  MEMB      6               0.0000000000
       554         6  CHL1      H21B           -3.9360607360       10.4211280580        6.0664250000  MEMB      6               0.0000000000
       555         6  CHL1      H21C           -2.9603022689       10.0845827688        7.5922850000  MEMB      6               0.0000000000
       556         6  CHL1      C22            -6.3284540125        9.3832886832        6.4581950000  MEMB      6               0.0000000000
       557         6  CHL1      H22A           -7.0986157221        8.5947256080        6.5972950000  MEMB      6               0.0000000000
       558         6  CHL1      H22B           -6.8991754766       10.3207578151        6.6307050000  MEMB      6               0.0000000000
       559         6  CHL1      C23            -5.9481578362        9.4015472570        4.9160750000  MEMB      6               0.0000000000
       560         6  CHL1      H23A           -5.4572049316       10.3443147604        4.5928250000  MEMB      6               0.0000000000
       561         6  CHL1      H23B           -5.1906037542        8.6004337389        4.7795150000  MEMB      6               0.0000000000
       562         6  CHL1      C24            -7.1937273548        9.2909255610        3.9821050000  MEMB      6               0.0000000000
       563         6  CHL1      H24A           -7.7351743176        8.3460243762        4.2019050000  MEMB      6               0.0000000000
       564         6  CHL1      H24B           -7.9288875598       10.0856994599        4.2314550000  MEMB      6               0.0000000000
       565         6  CHL1      C25            -6.8698936527        9.4264906594        2.4355150000  MEMB      6               0.0000000000
       566         6  CHL1      H25            -6.1944941977       10.2992238408        2.3070350000  MEMB      6               0.0000000000
       567         6  CHL1      C26            -6.0214019122        8.2740387904        1.9617250000  MEMB      6               0.0000000000
       568         6  CHL1      H26A           -5.6102157426        8.3407290450        0.9317750000  MEMB      6               0.0000000000
       569         6  CHL1      H26B           -5.1723231032        8.0508060192        2.6425750000  MEMB      6               0.0000000000
       570         6  CHL1      H26C           -6.5926419218        7.3262616083        2.0604250000  MEMB      6               0.0000000000
       571         6  CHL1      C27            -8.2129826686        9.5168716783        1.5796550000  MEMB      6               0.0000000000
       572         6  CHL1      H27A           -8.5675521975       10.5683986634        1.5259650000  MEMB      6               0.0000000000
       573         6  CHL1      H27B           -7.9222605562        9.4088955612        0.5128150000  MEMB      6               0.0000000000
       574         6  CHL1      H27C           -9.0284750406        8.8188104459        1.8660150000  MEMB      6               0.0000000000
       575         7  SAPE      N               3.8281824755      -10.6804222214       21.9964476807  MEMB      7               0.0000000000
       576         7  SAPE      HN1             3.7938890389       -9.8188224260       21.4150096884  MEMB      7               0.0000000000
       577         7  SAPE      HN2             3.2506560269      -10.6288858323       22.8598174128  MEMB      7               0.0000000000
       578         7  SAPE      HN3             4.8287365856      -10.7555147491       22.2700392763  MEMB      7               0.0000000000
       579         7  SAPE      C12             3.4515319928      -11.9195165148       21.1332824533  MEMB      7               0.0000000000
       580         7  SAPE      H12A            3.6307346792      -12.7477195282       21.8518135005  MEMB      7               0.0000000000
       581         7  SAPE      H12B            4.2123184413      -11.8327120936       20.3283041874  MEMB      7               0.0000000000
       582         7  SAPE      C11             2.0184719508      -11.9585303141       20.5344657798  MEMB      7               0.0000000000
       583         7  SAPE      H11A            1.2761703466      -12.4461670537       21.2019384354  MEMB      7               0.0000000000
       584         7  SAPE      H11B            1.8957440169      -12.5579298030       19.6071151859  MEMB      7               0.0000000000
       585         7  SAPE      P               0.3228381174      -10.3457360158       19.3131216488  MEMB      7               0.0000000000
       586         7  SAPE      O13            -0.9161596143      -10.9470669065       19.7673769935  MEMB      7               0.0000000000
       587         7  SAPE      O14             0.3007531888       -8.8832744790       18.9726557859  MEMB      7               0.0000000000
       588         7  SAPE      O12             1.5771676601      -10.6211573402       20.2817935813  MEMB      7               0.0000000000
       589         7  SAPE      O11             0.7165850443      -11.1216946128       18.0008560796  MEMB      7               0.0000000000
       590         7  SAPE      C1              1.8194241774      -10.7211145282       17.1899621043  MEMB      7               0.0000000000
       591         7  SAPE      HA              2.6604767920      -10.2822280202       17.7681748749  MEMB      7               0.0000000000
       592         7  SAPE      HB              2.2570781456      -11.6182013712       16.7020940998  MEMB      7               0.0000000000
       593         7  SAPE      C2              1.5417538412       -9.6349744992       16.0624309613  MEMB      7               0.0000000000
       594         7  SAPE      HS              1.6333608849       -8.7199141368       16.6858038367  MEMB      7               0.0000000000
       595         7  SAPE      O21             0.2395625139       -9.6858377704       15.5412987133  MEMB      7               0.0000000000
       596         7  SAPE      C21            -0.1878397596      -10.8435687562       15.0913204831  MEMB      7               0.0000000000
       597         7  SAPE      O22             0.4204686531      -11.8944096908       15.1090609253  MEMB      7               0.0000000000
       598         7  SAPE      C22            -1.6998373209      -10.7095203678       14.8099252629  MEMB      7               0.0000000000
       599         7  SAPE      H2R            -2.2436869194      -10.6762640475       15.7781415878  MEMB      7               0.0000000000
       600         7  SAPE      H2S            -1.8762673458       -9.6862944018       14.4147009922  MEMB      7               0.0000000000
       601         7  SAPE      C3              2.6142711495       -9.6625271845       14.8944178638  MEMB      7               0.0000000000
       602         7  SAPE      HX              3.6992834410       -9.5265912443       15.0908633622  MEMB      7               0.0000000000
       603         7  SAPE      HY              2.3647067764       -8.7804493223       14.2667419430  MEMB      7               0.0000000000
       604         7  SAPE      O31             2.4547192449      -10.8038040993       14.0427782964  MEMB      7               0.0000000000
       605         7  SAPE      C31             3.0551513687      -10.8191272706       12.8286006354  MEMB      7               0.0000000000
       606         7  SAPE      O32             3.7745081848       -9.9416095131       12.3962146660  MEMB      7               0.0000000000
       607         7  SAPE      C32             2.6504472758      -12.1958236156       12.1120830244  MEMB      7               0.0000000000
       608         7  SAPE      H2X             1.6142562096      -12.5774516813       12.2345126067  MEMB      7               0.0000000000
       609         7  SAPE      H2Y             3.2227724771      -12.9549874545       12.6869180138  MEMB      7               0.0000000000
       610         7  SAPE      C23            -2.3216731733      -11.7749856136       13.8672368474  MEMB      7               0.0000000000
       611         7  SAPE      H3R            -3.4180547822      -11.5993243156       13.9048043515  MEMB      7               0.0000000000
       612         7  SAPE      H3S            -2.0398417514      -12.7998730364       14.1904981820  MEMB      7               0.0000000000
       613         7  SAPE      C24            -1.8565146288      -11.6692615289       12.3552039362  MEMB      7               0.0000000000
       614         7  SAPE      H4R            -2.2163058877      -12.5721266995       11.8169604755  MEMB      7               0.0000000000
       615         7  SAPE      H4S            -0.7722950012      -11.9043500022       12.4145501363  MEMB      7               0.0000000000
       616         7  SAPE      C25            -2.3125450676      -10.5080655372       11.5743834792  MEMB      7               0.0000000000
       617         7  SAPE      H5R            -3.3685124337      -10.2667104228       11.7659051694  MEMB      7               0.0000000000
       618         7  SAPE      C26            -1.5962997131       -9.7183985454       10.8238838127  MEMB      7               0.0000000000
       619         7  SAPE      H6R            -2.1241175742       -9.0021082434       10.1770946168  MEMB      7               0.0000000000
       620         7  SAPE      C27            -0.0737123739       -9.8916031831       10.5220494588  MEMB      7               0.0000000000
       621         7  SAPE      H7R             0.1348409066      -10.1404695123        9.4595565013  MEMB      7               0.0000000000
       622         7  SAPE      H7S             0.3967637737      -10.6867220481       11.1391064193  MEMB      7               0.0000000000
       623         7  SAPE      C28             0.5640732414       -8.5538926046       10.8892549119  MEMB      7               0.0000000000
       624         7  SAPE      H8R             0.5489934978       -8.1626805368       11.9172261966  MEMB      7               0.0000000000
       625         7  SAPE      C29             1.3873276029       -7.8987469926       10.0395271043  MEMB      7               0.0000000000
       626         7  SAPE      H9R             1.9605057480       -7.0122092458       10.3485864302  MEMB      7               0.0000000000
       627         7  SAPE      C210            1.7525416992       -8.3507967294        8.5903012201  MEMB      7               0.0000000000
       628         7  SAPE      H10R            1.9012751779       -9.4516698753        8.5736363893  MEMB      7               0.0000000000
       629         7  SAPE      H10S            2.7579301098       -7.9099160216        8.4195985469  MEMB      7               0.0000000000
       630         7  SAPE      C211            0.7984735607       -7.9760430285        7.5478956969  MEMB      7               0.0000000000
       631         7  SAPE      H11R           -0.2973614813       -7.9785826494        7.6434939453  MEMB      7               0.0000000000
       632         7  SAPE      C212            1.1038606414       -7.5677692457        6.2783273342  MEMB      7               0.0000000000
       633         7  SAPE      H12R            0.2480121216       -7.2612142150        5.6590147201  MEMB      7               0.0000000000
       634         7  SAPE      C213            2.5097665189       -7.3489224862        5.6691853398  MEMB      7               0.0000000000
       635         7  SAPE      H13R            3.2179594597       -6.9235187060        6.4120281920  MEMB      7               0.0000000000
       636         7  SAPE      H13S            2.5141664278       -6.4614555758        5.0008266282  MEMB      7               0.0000000000
       637         7  SAPE      C214            3.0859355613       -8.6498809372        5.1351521124  MEMB      7               0.0000000000
       638         7  SAPE      H14R            3.0922621750       -9.4843178760        5.8518633835  MEMB      7               0.0000000000
       639         7  SAPE      C215            3.6279018967       -8.8564904100        3.9847748992  MEMB      7               0.0000000000
       640         7  SAPE      H15R            4.1534213027       -9.8168359435        3.8772316815  MEMB      7               0.0000000000
       641         7  SAPE      C216            3.8122946761       -7.8745839438        2.8927657567  MEMB      7               0.0000000000
       642         7  SAPE      H16R            4.9172807525       -7.8768928022        2.7773435561  MEMB      7               0.0000000000
       643         7  SAPE      H16S            3.4462510168       -6.8923023206        3.2608086713  MEMB      7               0.0000000000
       644         7  SAPE      C217            3.2131748341       -8.3212808150        1.5727147552  MEMB      7               0.0000000000
       645         7  SAPE      H17R            3.7479830349       -7.7728127069        0.7680502123  MEMB      7               0.0000000000
       646         7  SAPE      H17S            2.1248752689       -8.0979137531        1.5670680370  MEMB      7               0.0000000000
       647         7  SAPE      C218            3.4491633269       -9.8090532082        1.2620541117  MEMB      7               0.0000000000
       648         7  SAPE      H18R            2.7907376287      -10.5433386766        1.7735436631  MEMB      7               0.0000000000
       649         7  SAPE      H18S            4.4441247057      -10.0535682027        1.6916881681  MEMB      7               0.0000000000
       650         7  SAPE      C219            3.5984321849       -9.9108973723       -0.3092424246  MEMB      7               0.0000000000
       651         7  SAPE      H19R            3.6937264833      -10.9772380875       -0.6061561926  MEMB      7               0.0000000000
       652         7  SAPE      H19S            4.4877331396       -9.3204768696       -0.6172504103  MEMB      7               0.0000000000
       653         7  SAPE      C220            2.3280412286       -9.3557637533       -1.0002315954  MEMB      7               0.0000000000
       654         7  SAPE      H20R            2.2101213409       -8.2514839341       -1.0315714465  MEMB      7               0.0000000000
       655         7  SAPE      H20S            1.4450005291       -9.8763621108       -0.5718190515  MEMB      7               0.0000000000
       656         7  SAPE      H20T            2.3769538522       -9.7870830879       -2.0229206703  MEMB      7               0.0000000000
       657         7  SAPE      C33             3.1007589927      -12.3731337122       10.6847278965  MEMB      7               0.0000000000
       658         7  SAPE      H3X             3.9965695737      -11.7247685305       10.5776440963  MEMB      7               0.0000000000
       659         7  SAPE      H3Y             2.5106557642      -11.8699471509        9.8891763136  MEMB      7               0.0000000000
       660         7  SAPE      C34             3.5784437333      -13.8047387186       10.2482208589  MEMB      7               0.0000000000
       661         7  SAPE      H4X             4.4017368596      -13.9364574812       10.9824960399  MEMB      7               0.0000000000
       662         7  SAPE      H4Y             4.1542190900      -13.9097006841        9.3038760039  MEMB      7               0.0000000000
       663         7  SAPE      C35             2.4213925647      -14.8471558260       10.1837562666  MEMB      7               0.0000000000
       664         7  SAPE      H5X             1.5473748720      -14.5063301120       10.7789472744  MEMB      7               0.0000000000
       665         7  SAPE      H5Y             2.7913248295      -15.8085858107       10.5998373790  MEMB      7               0.0000000000
       666         7  SAPE      C36             1.9100005751      -15.1529348615        8.7510027480  MEMB      7               0.0000000000
       667         7  SAPE      H6X             1.2798683178      -16.0668329234        8.7962212465  MEMB      7               0.0000000000
       668         7  SAPE      H6Y             2.7423031561      -15.2901754204        8.0279831649  MEMB      7               0.0000000000
       669         7  SAPE      C37             0.9821305937      -14.0927441980        8.0397387560  MEMB      7               0.0000000000
       670         7  SAPE      H7X             0.7521500097      -14.4432449290        7.0108658183  MEMB      7               0.0000000000
       671         7  SAPE      H7Y             1.6153960696      -13.1808116401        7.9988113616  MEMB      7               0.0000000000
       672         7  SAPE      C38            -0.3221160665      -13.7917545338        8.8232810428  MEMB      7               0.0000000000
       673         7  SAPE      H8X            -0.0776405536      -13.5118471560        9.8702781390  MEMB      7               0.0000000000
       674         7  SAPE      H8Y            -0.8920301317      -14.7289473607        8.9998832964  MEMB      7               0.0000000000
       675         7  SAPE      C39            -1.0858389221      -12.5984383450        8.2058771017  MEMB      7               0.0000000000
       676         7  SAPE      H9X            -0.3867862179      -11.7683713760        7.9678965090  MEMB      7               0.0000000000
       677         7  SAPE      H9Y            -1.9153135557      -12.2711514533        8.8685810026  MEMB      7               0.0000000000
       678         7  SAPE      C310           -1.8472377815      -12.7319129174        6.8672038271  MEMB      7               0.0000000000
       679         7  SAPE      H10X           -2.7290014264      -13.4037770768        6.9407720490  MEMB      7               0.0000000000
       680         7  SAPE      H10Y           -1.1252427565      -13.1723744073        6.1467608703  MEMB      7               0.0000000000
       681         7  SAPE      C311           -2.5502412239      -11.5017511551        6.3059659362  MEMB      7               0.0000000000
       682         7  SAPE      H11X           -3.2347203610      -11.0134530390        7.0321712851  MEMB      7               0.0000000000
       683         7  SAPE      H11Y           -3.2427073455      -11.7232759965        5.4658842290  MEMB      7               0.0000000000
       684         7  SAPE      C312           -1.6217727299      -10.3650594347        5.8035845911  MEMB      7               0.0000000000
       685         7  SAPE      H12X           -1.0673542361       -9.9952133143        6.6924909841  MEMB      7               0.0000000000
       686         7  SAPE      H12Y           -2.2873304508       -9.5693651461        5.4058101064  MEMB      7               0.0000000000
       687         7  SAPE      C313           -0.6528207280      -10.7816345495        4.6707536694  MEMB      7               0.0000000000
       688         7  SAPE      H13X            0.0219162319      -11.5806132620        5.0458325927  MEMB      7               0.0000000000
       689         7  SAPE      H13Y           -0.0175697989       -9.9401685090        4.3204504927  MEMB      7               0.0000000000
       690         7  SAPE      C314           -1.3639548967      -11.3017571695        3.3987932383  MEMB      7               0.0000000000
       691         7  SAPE      H14X           -2.0173822945      -10.5215883711        2.9530461924  MEMB      7               0.0000000000
       692         7  SAPE      H14Y           -2.1258233137      -12.0818936102        3.6115490683  MEMB      7               0.0000000000
       693         7  SAPE      C315           -0.4353145264      -11.8295889209        2.2910464365  MEMB      7               0.0000000000
       694         7  SAPE      H15X            0.3306459593      -11.0441160952        2.1159530910  MEMB      7               0.0000000000
       695         7  SAPE      H15Y           -1.0300912109      -12.0507658077        1.3791032920  MEMB      7               0.0000000000
       696         7  SAPE      C316            0.2791755300      -13.1127346691        2.5954268740  MEMB      7               0.0000000000
       697         7  SAPE      H16X           -0.5511468121      -13.8258461733        2.7861036867  MEMB      7               0.0000000000
       698         7  SAPE      H16Y            0.9161932533      -12.9905689149        3.4974286618  MEMB      7               0.0000000000
       699         7  SAPE      C317            1.0441447664      -13.5919713159        1.4026049978  MEMB      7               0.0000000000
       700         7  SAPE      H17X            1.7242084086      -12.7676663097        1.0987048766  MEMB      7               0.0000000000
       701         7  SAPE      H17Y            0.3126510695      -13.7855293965        0.5891112458  MEMB      7               0.0000000000
       702         7  SAPE      C318            1.8108173388      -14.8929754009        1.7053740048  MEMB      7               0.0000000000
       703         7  SAPE      H18X            2.5803608895      -15.0207284213        0.9142979199  MEMB      7               0.0000000000
       704         7  SAPE      H18Y            1.0765161288      -15.7219284898        1.6161599797  MEMB      7               0.0000000000
       705         7  SAPE      H18Z            2.2548921457      -14.9239741321        2.7232929089  MEMB      7               0.0000000000
       706         8  SOPE      N             -11.9370228785       -5.2137179147       19.9164118628  MEMB      8               0.0000000000
       707         8  SOPE      HN1           -12.7181082656       -4.5492739882       20.0896742852  MEMB      8               0.0000000000
       708         8  SOPE      HN2           -12.2679938417       -5.6411834073       19.0279683313  MEMB      8               0.0000000000
       709         8  SOPE      HN3           -11.8700601163       -5.8946119364       20.6996738157  MEMB      8               0.0000000000
       710         8  SOPE      C12           -10.5871227201       -4.7475106170       19.6381180418  MEMB      8               0.0000000000
       711         8  SOPE      H12A          -10.5913233274       -3.9028959774       18.9163635369  MEMB      8               0.0000000000
       712         8  SOPE      H12B          -10.1046062833       -5.5791071188       19.0813897611  MEMB      8               0.0000000000
       713         8  SOPE      C11            -9.7291549620       -4.3350227688       20.9347810170  MEMB      8               0.0000000000
       714         8  SOPE      H11A           -8.7557253067       -3.8222641818       20.7803971653  MEMB      8               0.0000000000
       715         8  SOPE      H11B           -9.5697543334       -5.2607775906       21.5279844714  MEMB      8               0.0000000000
       716         8  SOPE      P             -10.4027073919       -1.8832068680       21.5577585251  MEMB      8               0.0000000000
       717         8  SOPE      O13            -8.9738835268       -1.5375741772       21.4746959411  MEMB      8               0.0000000000
       718         8  SOPE      O14           -11.1524973161       -1.2340362411       22.6689401830  MEMB      8               0.0000000000
       719         8  SOPE      O12           -10.5819458133       -3.4440525616       21.7132867040  MEMB      8               0.0000000000
       720         8  SOPE      O11           -11.0090749917       -1.4647262087       20.0960077271  MEMB      8               0.0000000000
       721         8  SOPE      C1            -10.8295186647       -0.1873834189       19.5044897017  MEMB      8               0.0000000000
       722         8  SOPE      HA            -10.0056897053        0.4266502325       19.9270882830  MEMB      8               0.0000000000
       723         8  SOPE      HB            -11.7946025583        0.3512018743       19.6178911518  MEMB      8               0.0000000000
       724         8  SOPE      C2            -10.3707399529       -0.2733060453       18.0260425562  MEMB      8               0.0000000000
       725         8  SOPE      HS            -10.6175500778        0.7066833570       17.5644945596  MEMB      8               0.0000000000
       726         8  SOPE      O21           -11.0959588582       -1.2388899834       17.3165040559  MEMB      8               0.0000000000
       727         8  SOPE      C21           -11.9259293642       -0.9472414612       16.2208795581  MEMB      8               0.0000000000
       728         8  SOPE      O22           -11.9781494821        0.1076755193       15.6346182713  MEMB      8               0.0000000000
       729         8  SOPE      C22           -12.4933887205       -2.2551160943       15.8088571875  MEMB      8               0.0000000000
       730         8  SOPE      H2R           -13.3438836249       -2.4844772347       16.4858894125  MEMB      8               0.0000000000
       731         8  SOPE      H2S           -11.8233279828       -3.1388536678       15.7429206276  MEMB      8               0.0000000000
       732         8  SOPE      C3             -8.8203901487       -0.5188286231       17.8977669919  MEMB      8               0.0000000000
       733         8  SOPE      HX             -8.4798661661       -1.4995292963       18.2934825189  MEMB      8               0.0000000000
       734         8  SOPE      HY             -8.2614632483        0.2941418285       18.4086494281  MEMB      8               0.0000000000
       735         8  SOPE      O31            -8.4716647763       -0.4263093539       16.4837109562  MEMB      8               0.0000000000
       736         8  SOPE      C31            -8.5952605416       -1.4923599089       15.6611513453  MEMB      8               0.0000000000
       737         8  SOPE      O32            -8.9744066074       -2.6046639804       16.0426234488  MEMB      8               0.0000000000
       738         8  SOPE      C32            -8.0786726199       -1.0457695060       14.2859391287  MEMB      8               0.0000000000
       739         8  SOPE      H2X            -7.0517138779       -1.3574441557       13.9986493045  MEMB      8               0.0000000000
       740         8  SOPE      H2Y            -8.0949435934        0.0644981837       14.2490372559  MEMB      8               0.0000000000
       741         8  SOPE      C23           -13.1710296958       -1.9697777808       14.3964055058  MEMB      8               0.0000000000
       742         8  SOPE      H3R           -12.4793525201       -1.3929100329       13.7459230050  MEMB      8               0.0000000000
       743         8  SOPE      H3S           -14.1007155084       -1.3834628446       14.5583936718  MEMB      8               0.0000000000
       744         8  SOPE      C24           -13.5466261354       -3.2904323777       13.6561013668  MEMB      8               0.0000000000
       745         8  SOPE      H4R           -12.7016969392       -3.8728629945       13.2304368957  MEMB      8               0.0000000000
       746         8  SOPE      H4S           -13.9343900807       -4.0695064336       14.3467559417  MEMB      8               0.0000000000
       747         8  SOPE      C25           -14.5384620627       -3.0088900651       12.5328640546  MEMB      8               0.0000000000
       748         8  SOPE      H5R           -14.8460101345       -3.9529664883       12.0344123747  MEMB      8               0.0000000000
       749         8  SOPE      H5S           -15.4301237612       -2.4895266032       12.9445947896  MEMB      8               0.0000000000
       750         8  SOPE      C26           -14.1553073105       -2.0226031278       11.4674414736  MEMB      8               0.0000000000
       751         8  SOPE      H6R           -14.9384937718       -1.8311857942       10.7030466012  MEMB      8               0.0000000000
       752         8  SOPE      H6S           -13.9676499036       -1.0724623939       12.0118112074  MEMB      8               0.0000000000
       753         8  SOPE      C27           -12.7977360907       -2.3484440831       10.8115116019  MEMB      8               0.0000000000
       754         8  SOPE      H7R           -11.9736817800       -2.1615881192       11.5328585997  MEMB      8               0.0000000000
       755         8  SOPE      H7S           -12.7400435035       -3.4052804103       10.4737399142  MEMB      8               0.0000000000
       756         8  SOPE      C28           -12.4477096594       -1.3509445682        9.6568418107  MEMB      8               0.0000000000
       757         8  SOPE      H8R           -12.5423777957       -0.3197866588       10.0594235486  MEMB      8               0.0000000000
       758         8  SOPE      H8S           -11.3574806319       -1.4859022250        9.4909854972  MEMB      8               0.0000000000
       759         8  SOPE      C29           -13.3131744890       -1.6039062234        8.4176660607  MEMB      8               0.0000000000
       760         8  SOPE      H91           -14.2417539070       -1.0266986069        8.2969522460  MEMB      8               0.0000000000
       761         8  SOPE      C210          -12.8957545010       -2.2702301453        7.3534462025  MEMB      8               0.0000000000
       762         8  SOPE      H101          -13.4535920593       -2.2159217021        6.4069430733  MEMB      8               0.0000000000
       763         8  SOPE      C211          -11.5779781759       -2.8989450482        7.0517363837  MEMB      8               0.0000000000
       764         8  SOPE      H11R          -10.9312738007       -2.9983098786        7.9496343049  MEMB      8               0.0000000000
       765         8  SOPE      H11S          -11.0549834438       -2.1391246500        6.4324857470  MEMB      8               0.0000000000
       766         8  SOPE      C212          -11.6290323500       -4.3833738145        6.6080843458  MEMB      8               0.0000000000
       767         8  SOPE      H12R          -11.8469953790       -5.1428447811        7.3891198747  MEMB      8               0.0000000000
       768         8  SOPE      H12S          -10.6324335087       -4.5841357993        6.1599699947  MEMB      8               0.0000000000
       769         8  SOPE      C213          -12.5808220526       -4.6072153798        5.4308642022  MEMB      8               0.0000000000
       770         8  SOPE      H13R          -13.6446471037       -4.4948879946        5.7308299387  MEMB      8               0.0000000000
       771         8  SOPE      H13S          -12.5083203993       -5.6516206120        5.0589997935  MEMB      8               0.0000000000
       772         8  SOPE      C214          -12.4304577738       -3.6946913856        4.2310416020  MEMB      8               0.0000000000
       773         8  SOPE      H14R          -11.3396449017       -3.5716798263        4.0598209697  MEMB      8               0.0000000000
       774         8  SOPE      H14S          -12.8484251041       -2.6706563292        4.3358085457  MEMB      8               0.0000000000
       775         8  SOPE      C215          -13.0540326287       -4.3073221597        3.0188979058  MEMB      8               0.0000000000
       776         8  SOPE      H15R          -14.1553245937       -4.2492529213        3.1534532881  MEMB      8               0.0000000000
       777         8  SOPE      H15S          -12.8241987789       -5.3877276029        2.8996453733  MEMB      8               0.0000000000
       778         8  SOPE      C216          -12.6638496760       -3.6259072709        1.6909840183  MEMB      8               0.0000000000
       779         8  SOPE      H16R          -11.5596634041       -3.7410450261        1.6481240158  MEMB      8               0.0000000000
       780         8  SOPE      H16S          -12.8593907893       -2.5366831293        1.7893478771  MEMB      8               0.0000000000
       781         8  SOPE      C217          -13.3032203035       -4.3323365346        0.5237052214  MEMB      8               0.0000000000
       782         8  SOPE      H17R          -14.4089935259       -4.2568626915        0.6004565209  MEMB      8               0.0000000000
       783         8  SOPE      H17S          -13.0534036006       -5.4128697284        0.5897411662  MEMB      8               0.0000000000
       784         8  SOPE      C218          -12.8027229964       -3.7917700368       -0.8544896622  MEMB      8               0.0000000000
       785         8  SOPE      H18R          -11.8390135280       -4.2458695890       -1.1697345510  MEMB      8               0.0000000000
       786         8  SOPE      H18S          -12.9440760121       -2.6953246482       -0.9647061619  MEMB      8               0.0000000000
       787         8  SOPE      H18T          -13.4745486472       -4.2251985717       -1.6259243305  MEMB      8               0.0000000000
       788         8  SOPE      C33            -9.0229679186       -1.6150592167       13.2715236352  MEMB      8               0.0000000000
       789         8  SOPE      H3X            -9.1663996701       -0.8938981958       12.4386522815  MEMB      8               0.0000000000
       790         8  SOPE      H3Y           -10.0690830215       -1.8063404384       13.5930443397  MEMB      8               0.0000000000
       791         8  SOPE      C34            -8.5179695943       -2.9133994655       12.5085348070  MEMB      8               0.0000000000
       792         8  SOPE      H4X            -8.2420593100       -3.7452780589       13.1913031740  MEMB      8               0.0000000000
       793         8  SOPE      H4Y            -7.6772111580       -2.4608358451       11.9405274681  MEMB      8               0.0000000000
       794         8  SOPE      C35            -9.5177237563       -3.3320291061       11.5189367836  MEMB      8               0.0000000000
       795         8  SOPE      H5X           -10.0203378654       -2.5124834157       10.9621200315  MEMB      8               0.0000000000
       796         8  SOPE      H5Y           -10.2835179765       -3.7871578469       12.1828182054  MEMB      8               0.0000000000
       797         8  SOPE      C36            -8.9468850967       -4.3294217685       10.4729865747  MEMB      8               0.0000000000
       798         8  SOPE      H6X            -9.8195403206       -4.6667582248        9.8738221535  MEMB      8               0.0000000000
       799         8  SOPE      H6Y            -8.5484443428       -5.2287891064       10.9894212056  MEMB      8               0.0000000000
       800         8  SOPE      C37            -8.0467222540       -3.5704725092        9.3494454369  MEMB      8               0.0000000000
       801         8  SOPE      H7X            -7.0349716810       -3.3596178393        9.7571483374  MEMB      8               0.0000000000
       802         8  SOPE      H7Y            -8.5492037519       -2.5964472300        9.1674894937  MEMB      8               0.0000000000
       803         8  SOPE      C38            -7.8576247281       -4.3667354759        8.0286821958  MEMB      8               0.0000000000
       804         8  SOPE      H8X            -8.8046639025       -4.4746019082        7.4578915372  MEMB      8               0.0000000000
       805         8  SOPE      H8Y            -7.4174820011       -5.3206257352        8.3901911013  MEMB      8               0.0000000000
       806         8  SOPE      C39            -6.6831375213       -3.8487653411        7.1628735414  MEMB      8               0.0000000000
       807         8  SOPE      H9X            -5.6922204781       -4.1363840418        7.5747955213  MEMB      8               0.0000000000
       808         8  SOPE      H9Y            -6.7402035666       -2.7425895711        7.0766214502  MEMB      8               0.0000000000
       809         8  SOPE      C310           -6.7798796780       -4.2459081173        5.6912775694  MEMB      8               0.0000000000
       810         8  SOPE      H10X           -6.9024204293       -5.3480356343        5.6233095504  MEMB      8               0.0000000000
       811         8  SOPE      H10Y           -5.8102446139       -3.9458697511        5.2394962231  MEMB      8               0.0000000000
       812         8  SOPE      C311           -7.9363233383       -3.6147218633        4.8183044011  MEMB      8               0.0000000000
       813         8  SOPE      H11X           -7.5121563041       -2.7571784174        4.2534839640  MEMB      8               0.0000000000
       814         8  SOPE      H11Y           -8.7080671018       -3.3011575000        5.5534314034  MEMB      8               0.0000000000
       815         8  SOPE      C312           -8.5211893382       -4.6025527741        3.8504294297  MEMB      8               0.0000000000
       816         8  SOPE      H12X           -9.3157407619       -4.1051250357        3.2541278081  MEMB      8               0.0000000000
       817         8  SOPE      H12Y           -8.9854599189       -5.3381018244        4.5416173141  MEMB      8               0.0000000000
       818         8  SOPE      C313           -7.4835667597       -5.1219454732        2.8505580858  MEMB      8               0.0000000000
       819         8  SOPE      H13X           -6.5852500862       -5.6418698361        3.2468251238  MEMB      8               0.0000000000
       820         8  SOPE      H13Y           -7.1163821107       -4.1873145467        2.3752039217  MEMB      8               0.0000000000
       821         8  SOPE      C314           -8.1072781127       -5.9154808758        1.6961252358  MEMB      8               0.0000000000
       822         8  SOPE      H14X           -7.3053974732       -6.3020926003        1.0314164235  MEMB      8               0.0000000000
       823         8  SOPE      H14Y           -8.7877483501       -5.3577200686        1.0177573953  MEMB      8               0.0000000000
       824         8  SOPE      C315           -9.0145932858       -7.0675716476        2.2467500850  MEMB      8               0.0000000000
       825         8  SOPE      H15X          -10.0254700042       -6.6180681029        2.3487093091  MEMB      8               0.0000000000
       826         8  SOPE      H15Y           -8.5539227155       -7.4572279109        3.1796346551  MEMB      8               0.0000000000
       827         8  SOPE      C316           -9.4057805776       -8.2441326183        1.3370943145  MEMB      8               0.0000000000
       828         8  SOPE      H16X           -9.9610487328       -9.0364552723        1.8831917548  MEMB      8               0.0000000000
       829         8  SOPE      H16Y           -8.4828852977       -8.7554516207        0.9890450362  MEMB      8               0.0000000000
       830         8  SOPE      C317          -10.2670475754       -7.8338733671        0.0810210347  MEMB      8               0.0000000000
       831         8  SOPE      H17X           -9.6128479391       -7.1577139947       -0.5098700316  MEMB      8               0.0000000000
       832         8  SOPE      H17Y          -11.0302795408       -7.1499091392        0.5099631172  MEMB      8               0.0000000000
       833         8  SOPE      C318          -10.7502996144       -9.0265626170       -0.6381265910  MEMB      8               0.0000000000
       834         8  SOPE      H18X          -11.6048646631       -9.5128347236       -0.1208469907  MEMB      8               0.0000000000
       835         8  SOPE      H18Y           -9.8804295924       -9.7028363377       -0.7806055646  MEMB      8               0.0000000000
       836         8  SOPE      H18Z          -11.1901920239       -8.6129684800       -1.5707338097  MEMB      8               0.0000000000
       837         9  CHL1      C3              5.0156857500       10.0398398223       17.2937400000  MEMB      9               0.0000000000
       838         9  CHL1      H3              4.0945873464        9.4809977854       17.0224400000  MEMB      9               0.0000000000
       839         9  CHL1      O3              5.2915440300        9.9607589777       18.7062600000  MEMB      9               0.0000000000
       840         9  CHL1      H3'             6.1366928346       10.4105298043       18.7771400000  MEMB      9               0.0000000000
       841         9  CHL1      C4              6.1710720681        9.5196537416       16.4120300000  MEMB      9               0.0000000000
       842         9  CHL1      H4A             6.9695453938       10.1361493158       16.8775300000  MEMB      9               0.0000000000
       843         9  CHL1      H4B             6.2295415934        8.4581137030       16.7345800000  MEMB      9               0.0000000000
       844         9  CHL1      C5              6.0541510666        9.7506815362       14.8901900000  MEMB      9               0.0000000000
       845         9  CHL1      C6              6.1373733985        8.7461530532       14.0140400000  MEMB      9               0.0000000000
       846         9  CHL1      H6              6.4266937503        7.7510975771       14.3830500000  MEMB      9               0.0000000000
       847         9  CHL1      C7              5.8498390234        8.9870475221       12.5733700000  MEMB      9               0.0000000000
       848         9  CHL1      H7A             6.6941877421        8.5306711764       12.0138000000  MEMB      9               0.0000000000
       849         9  CHL1      H7B             4.8986432793        8.5004005833       12.2688700000  MEMB      9               0.0000000000
       850         9  CHL1      C8              5.8329225004       10.5128768740       12.1678300000  MEMB      9               0.0000000000
       851         9  CHL1      H8              6.8894277976       10.8525563510       12.1154500000  MEMB      9               0.0000000000
       852         9  CHL1      C14             5.1437022381       10.6541767475       10.7981900000  MEMB      9               0.0000000000
       853         9  CHL1      H14             4.0954771700       10.2939894401       10.8743800000  MEMB      9               0.0000000000
       854         9  CHL1      C15             5.8102229980        9.8680097454        9.7037400000  MEMB      9               0.0000000000
       855         9  CHL1      H15A            6.8901934494        9.7227729407        9.9203000000  MEMB      9               0.0000000000
       856         9  CHL1      H15B            5.3262667390        8.8694884426        9.7590100000  MEMB      9               0.0000000000
       857         9  CHL1      C16             5.5078310647       10.5810215004        8.3743400000  MEMB      9               0.0000000000
       858         9  CHL1      H16A            6.4919704210       10.8841375011        7.9573200000  MEMB      9               0.0000000000
       859         9  CHL1      H16B            4.9815501925        9.9367897776        7.6379200000  MEMB      9               0.0000000000
       860         9  CHL1      C17             4.7494277801       11.8353343216        8.8009900000  MEMB      9               0.0000000000
       861         9  CHL1      H17             3.7041230105       11.4627083625        8.7480200000  MEMB      9               0.0000000000
       862         9  CHL1      C13             5.1400177307       12.0653234959       10.2655600000  MEMB      9               0.0000000000
       863         9  CHL1      C18             6.5764309293       12.6802888835       10.2642500000  MEMB      9               0.0000000000
       864         9  CHL1      H18A            6.9815486479       12.6796543901       11.2987500000  MEMB      9               0.0000000000
       865         9  CHL1      H18B            7.3273387355       12.1643798110        9.6284100000  MEMB      9               0.0000000000
       866         9  CHL1      H18C            6.5651310286       13.7248975599        9.8861300000  MEMB      9               0.0000000000
       867         9  CHL1      C12             4.1874252148       12.8587314504       11.1300800000  MEMB      9               0.0000000000
       868         9  CHL1      H12A            4.1039155142       13.9362869477       10.8727300000  MEMB      9               0.0000000000
       869         9  CHL1      H12B            3.2248506777       12.3169389309       11.0107200000  MEMB      9               0.0000000000
       870         9  CHL1      C11             4.7205317985       12.7772851428       12.5814000000  MEMB      9               0.0000000000
       871         9  CHL1      H11A            5.6000178398       13.4445971821       12.7060400000  MEMB      9               0.0000000000
       872         9  CHL1      H11B            3.9677797059       13.2044417933       13.2779800000  MEMB      9               0.0000000000
       873         9  CHL1      C9              5.0068719629       11.3429127973       13.1001900000  MEMB      9               0.0000000000
       874         9  CHL1      H9              4.0016581590       10.8777387438       13.0136600000  MEMB      9               0.0000000000
       875         9  CHL1      C10             5.6490992383       11.2378097369       14.5514000000  MEMB      9               0.0000000000
       876         9  CHL1      C19             6.9132902937       12.0867477689       14.5560200000  MEMB      9               0.0000000000
       877         9  CHL1      H19A            6.6704551052       13.1667502613       14.6506100000  MEMB      9               0.0000000000
       878         9  CHL1      H19B            7.4833041135       11.8855293359       15.4881800000  MEMB      9               0.0000000000
       879         9  CHL1      H19C            7.5509675949       11.9550427511       13.6558300000  MEMB      9               0.0000000000
       880         9  CHL1      C1              4.5350993664       11.7272036600       15.5096700000  MEMB      9               0.0000000000
       881         9  CHL1      H1A             4.4335486615       12.8270551898       15.3899400000  MEMB      9               0.0000000000
       882         9  CHL1      H1B             3.5798878213       11.2629901303       15.1834600000  MEMB      9               0.0000000000
       883         9  CHL1      C2              4.8114779434       11.5490937965       17.0054300000  MEMB      9               0.0000000000
       884         9  CHL1      H2A             3.9144529263       11.9150893566       17.5492300000  MEMB      9               0.0000000000
       885         9  CHL1      H2B             5.7294385590       12.1307775231       17.2363400000  MEMB      9               0.0000000000
       886         9  CHL1      C20             4.9863573540       12.9749690092        7.7336000000  MEMB      9               0.0000000000
       887         9  CHL1      H20             6.0781300716       13.1368559204        7.8606100000  MEMB      9               0.0000000000
       888         9  CHL1      C21             4.1946921197       14.1925463762        8.1265400000  MEMB      9               0.0000000000
       889         9  CHL1      H21A            4.7489891682       14.6733851568        8.9607300000  MEMB      9               0.0000000000
       890         9  CHL1      H21B            3.1769430538       13.9773085748        8.5166600000  MEMB      9               0.0000000000
       891         9  CHL1      H21C            4.0702744365       14.8869040059        7.2682300000  MEMB      9               0.0000000000
       892         9  CHL1      C22             4.5871847274       12.7062772902        6.2845100000  MEMB      9               0.0000000000
       893         9  CHL1      H22A            4.9241276988       11.6697903030        6.0689000000  MEMB      9               0.0000000000
       894         9  CHL1      H22B            3.4844796960       12.7488613085        6.1557700000  MEMB      9               0.0000000000
       895         9  CHL1      C23             5.3439602373       13.6001792030        5.2717800000  MEMB      9               0.0000000000
       896         9  CHL1      H23A            4.7197424152       14.4673548728        4.9673200000  MEMB      9               0.0000000000
       897         9  CHL1      H23B            6.1929075224       14.0665594019        5.8159300000  MEMB      9               0.0000000000
       898         9  CHL1      C24             5.6709214069       12.8695302876        4.0023100000  MEMB      9               0.0000000000
       899         9  CHL1      H24A            4.7465916708       12.3323898748        3.6999800000  MEMB      9               0.0000000000
       900         9  CHL1      H24B            5.8757583552       13.6174651147        3.2067300000  MEMB      9               0.0000000000
       901         9  CHL1      C25             6.9290803199       11.9061586134        4.0431300000  MEMB      9               0.0000000000
       902         9  CHL1      H25             6.6933415300       11.2143935396        4.8799100000  MEMB      9               0.0000000000
       903         9  CHL1      C26             7.0654028556       11.0650935096        2.7328200000  MEMB      9               0.0000000000
       904         9  CHL1      H26A            7.8958822619       10.3597703327        2.9499600000  MEMB      9               0.0000000000
       905         9  CHL1      H26B            6.1709671936       10.4179018540        2.6085500000  MEMB      9               0.0000000000
       906         9  CHL1      H26C            7.2288548348       11.6614858541        1.8098300000  MEMB      9               0.0000000000
       907         9  CHL1      C27             8.2376030669       12.7560954571        4.1779500000  MEMB      9               0.0000000000
       908         9  CHL1      H27A            9.1037575848       12.0646284021        4.2552600000  MEMB      9               0.0000000000
       909         9  CHL1      H27B            8.3842093483       13.6013841292        3.4720300000  MEMB      9               0.0000000000
       910         9  CHL1      H27C            8.2149238417       13.2854398698        5.1544700000  MEMB      9               0.0000000000
       911        10  CHL1      C3             -6.5595405770      -10.1205404476       17.2848800000  MEMB      10              0.0000000000
       912        10  CHL1      H3             -6.0626892740       -9.1524354721       17.0607600000  MEMB      10              0.0000000000
       913        10  CHL1      O3             -6.4200672630      -10.3332909524       18.7151200000  MEMB      10              0.0000000000
       914        10  CHL1      H3'            -7.0337820661      -11.0553901992       18.8685300000  MEMB      10              0.0000000000
       915        10  CHL1      C4             -8.0519540305      -10.0162296169       16.8949100000  MEMB      10              0.0000000000
       916        10  CHL1      H4A            -8.5126528051      -11.0194429033       17.0200300000  MEMB      10              0.0000000000
       917        10  CHL1      H4B            -8.4784254131       -9.3514583117       17.6762600000  MEMB      10              0.0000000000
       918        10  CHL1      C5             -8.2408359762       -9.5938505980       15.4269800000  MEMB      10              0.0000000000
       919        10  CHL1      C6             -8.9049741178       -8.4843377497       15.0755900000  MEMB      10              0.0000000000
       920        10  CHL1      H6             -9.4166832232       -7.9409255839       15.8835900000  MEMB      10              0.0000000000
       921        10  CHL1      C7             -9.0067705732       -7.9840436677       13.6874000000  MEMB      10              0.0000000000
       922        10  CHL1      H7A           -10.0441354048       -7.6215367178       13.5237500000  MEMB      10              0.0000000000
       923        10  CHL1      H7B            -8.3101830381       -7.1244991471       13.5861100000  MEMB      10              0.0000000000
       924        10  CHL1      C8             -8.6477137860       -9.0562174005       12.6566800000  MEMB      10              0.0000000000
       925        10  CHL1      H8             -9.4774268255       -9.7906000971       12.7378300000  MEMB      10              0.0000000000
       926        10  CHL1      C14            -8.4777296633       -8.3743451420       11.3129000000  MEMB      10              0.0000000000
       927        10  CHL1      H14            -7.5846153972       -7.7294656507       11.4571600000  MEMB      10              0.0000000000
       928        10  CHL1      C15            -9.5533627353       -7.4846007917       10.7429500000  MEMB      10              0.0000000000
       929        10  CHL1      H15A          -10.5843542549       -7.8264909218       10.9763700000  MEMB      10              0.0000000000
       930        10  CHL1      H15B           -9.4566623647       -6.4683017727       11.1812500000  MEMB      10              0.0000000000
       931        10  CHL1      C16            -9.2946458878       -7.3163916633        9.2931900000  MEMB      10              0.0000000000
       932        10  CHL1      H16A          -10.1605203604       -7.5872224041        8.6519200000  MEMB      10              0.0000000000
       933        10  CHL1      H16B           -8.8268386200       -6.3296419830        9.0887500000  MEMB      10              0.0000000000
       934        10  CHL1      C17            -8.0648705075       -8.3308753962        9.0137800000  MEMB      10              0.0000000000
       935        10  CHL1      H17            -7.1519354055       -7.7465570432        9.2575600000  MEMB      10              0.0000000000
       936        10  CHL1      C13            -8.0835387185       -9.3261274425       10.1796200000  MEMB      10              0.0000000000
       937        10  CHL1      C18            -9.1597969438      -10.3801716536        9.8233500000  MEMB      10              0.0000000000
       938        10  CHL1      H18A           -9.5080314356      -11.0520817218       10.6367300000  MEMB      10              0.0000000000
       939        10  CHL1      H18B          -10.0677760735       -9.8739673474        9.4313800000  MEMB      10              0.0000000000
       940        10  CHL1      H18C           -8.8007676409      -10.9391839574        8.9328900000  MEMB      10              0.0000000000
       941        10  CHL1      C12            -6.8019835792       -9.9914554541       10.5659700000  MEMB      10              0.0000000000
       942        10  CHL1      H12A           -6.4720753784      -10.6911474814        9.7685300000  MEMB      10              0.0000000000
       943        10  CHL1      H12B           -5.9373360054       -9.2969198541       10.5001100000  MEMB      10              0.0000000000
       944        10  CHL1      C11            -6.8748204008      -10.7478989742       11.9156100000  MEMB      10              0.0000000000
       945        10  CHL1      H11A           -7.5904573302      -11.5602151836       11.6659600000  MEMB      10              0.0000000000
       946        10  CHL1      H11B           -5.9832996239      -11.3518026168       12.1891500000  MEMB      10              0.0000000000
       947        10  CHL1      C9             -7.3382843146       -9.8133484164       13.0585300000  MEMB      10              0.0000000000
       948        10  CHL1      H9             -6.6496621296       -8.9431086774       13.1115200000  MEMB      10              0.0000000000
       949        10  CHL1      C10            -7.4115557767      -10.5021644038       14.4286100000  MEMB      10              0.0000000000
       950        10  CHL1      C19            -8.2379265438      -11.8043335336       14.3237000000  MEMB      10              0.0000000000
       951        10  CHL1      H19A           -8.3749789205      -12.3192295309       15.2986000000  MEMB      10              0.0000000000
       952        10  CHL1      H19B           -9.2638962544      -11.5664802015       13.9699400000  MEMB      10              0.0000000000
       953        10  CHL1      H19C           -7.7090140157      -12.5470483716       13.6889300000  MEMB      10              0.0000000000
       954        10  CHL1      C1             -5.9698875882      -10.8786449913       14.9216300000  MEMB      10              0.0000000000
       955        10  CHL1      H1A            -5.5646135754      -11.7585613528       14.3777400000  MEMB      10              0.0000000000
       956        10  CHL1      H1B            -5.4559817932       -9.9081058626       14.7535100000  MEMB      10              0.0000000000
       957        10  CHL1      C2             -5.8515542633      -11.2103853065       16.4297500000  MEMB      10              0.0000000000
       958        10  CHL1      H2A            -4.8376145148      -11.4278112914       16.8284700000  MEMB      10              0.0000000000
       959        10  CHL1      H2B            -6.4705957661      -12.0928973993       16.6986000000  MEMB      10              0.0000000000
       960        10  CHL1      C20            -8.0766763481       -8.8776780340        7.5851600000  MEMB      10              0.0000000000
       961        10  CHL1      H20            -8.9507267460       -9.5333689187        7.3841400000  MEMB      10              0.0000000000
       962        10  CHL1      C21            -6.7901717527       -9.7197571480        7.3127500000  MEMB      10              0.0000000000
       963        10  CHL1      H21A           -6.5470943271       -9.8685919948        6.2389300000  MEMB      10              0.0000000000
       964        10  CHL1      H21B           -6.9833635318      -10.7710347562        7.6157600000  MEMB      10              0.0000000000
       965        10  CHL1      H21C           -5.9042006400       -9.3690656936        7.8840600000  MEMB      10              0.0000000000
       966        10  CHL1      C22            -8.2592034063       -7.7459968118        6.6124300000  MEMB      10              0.0000000000
       967        10  CHL1      H22A           -9.0126033626       -6.9585449972        6.8283800000  MEMB      10              0.0000000000
       968        10  CHL1      H22B           -7.3432328370       -7.1195980971        6.5581700000  MEMB      10              0.0000000000
       969        10  CHL1      C23            -8.4785448157       -8.0720228338        5.1330200000  MEMB      10              0.0000000000
       970        10  CHL1      H23A           -7.9094596577       -8.9741112879        4.8220400000  MEMB      10              0.0000000000
       971        10  CHL1      H23B           -9.5114431147       -8.3452392441        4.8284200000  MEMB      10              0.0000000000
       972        10  CHL1      C24            -8.3122099066       -6.8287862825        4.2646600000  MEMB      10              0.0000000000
       973        10  CHL1      H24A           -8.9440542624       -5.9625720544        4.5558100000  MEMB      10              0.0000000000
       974        10  CHL1      H24B           -7.2580656172       -6.4836481759        4.3277900000  MEMB      10              0.0000000000
       975        10  CHL1      C25            -8.5320094419       -7.0644651953        2.7576800000  MEMB      10              0.0000000000
       976        10  CHL1      H25            -9.5200123497       -7.4555243498        2.4332700000  MEMB      10              0.0000000000
       977        10  CHL1      C26            -8.1199773279       -5.9344485606        1.7621300000  MEMB      10              0.0000000000
       978        10  CHL1      H26A           -7.0141065223       -5.9171727514        1.8674100000  MEMB      10              0.0000000000
       979        10  CHL1      H26B           -8.4515996464       -6.1474511830        0.7233900000  MEMB      10              0.0000000000
       980        10  CHL1      H26C           -8.4671544715       -4.9521681372        2.1480200000  MEMB      10              0.0000000000
       981        10  CHL1      C27            -7.5635706492       -8.1341857356        2.2640700000  MEMB      10              0.0000000000
       982        10  CHL1      H27A           -7.5525113767       -8.0881221904        1.1540800000  MEMB      10              0.0000000000
       983        10  CHL1      H27B           -6.5302965828       -7.8468616359        2.5541000000  MEMB      10              0.0000000000
       984        10  CHL1      H27C           -7.7492970725       -9.1649194648        2.6347500000  MEMB      10              0.0000000000
       985        11  SAPE      N              14.4229539587       -6.1834652211       21.4409733983  MEMB      11              0.0000000000
       986        11  SAPE      HN1            14.0451101118       -5.4218922752       22.0400064686  MEMB      11              0.0000000000
       987        11  SAPE      HN2            13.7368981909       -6.9560932312       21.3227648141  MEMB      11              0.0000000000
       988        11  SAPE      HN3            15.2814094296       -6.5221371723       21.9205102779  MEMB      11              0.0000000000
       989        11  SAPE      C12            14.9674820285       -5.7636943248       20.1017335573  MEMB      11              0.0000000000
       990        11  SAPE      H12A           15.3566704422       -6.6756482324       19.6005414192  MEMB      11              0.0000000000
       991        11  SAPE      H12B           15.6760969561       -4.9147313492       20.2087276645  MEMB      11              0.0000000000
       992        11  SAPE      C11            13.7618176120       -5.3621772585       19.1791607830  MEMB      11              0.0000000000
       993        11  SAPE      H11A           13.2330752232       -6.2813724339       18.8477505880  MEMB      11              0.0000000000
       994        11  SAPE      H11B           14.1799777660       -4.9120486972       18.2535003277  MEMB      11              0.0000000000
       995        11  SAPE      P              13.1412730804       -2.8977897967       19.8562623425  MEMB      11              0.0000000000
       996        11  SAPE      O13            11.8436116106       -2.1911295974       19.5506258099  MEMB      11              0.0000000000
       997        11  SAPE      O14            13.5537369836       -2.7094019004       21.2623675297  MEMB      11              0.0000000000
       998        11  SAPE      O12            12.7962120796       -4.4789814850       19.8042565639  MEMB      11              0.0000000000
       999        11  SAPE      O11            14.3514878443       -2.5724864118       18.8046200474  MEMB      11              0.0000000000
      1000        11  SAPE      C1             14.8943625754       -1.2483922514       19.1283534791  MEMB      11              0.0000000000
      1001        11  SAPE      HA             14.0298046832       -0.5508856141       19.1469322195  MEMB      11              0.0000000000
      1002        11  SAPE      HB             15.4102925412       -1.1464439503       20.1069974612  MEMB      11              0.0000000000
      1003        11  SAPE      C2             15.9686592176       -0.7958681475       17.9834258204  MEMB      11              0.0000000000
      1004        11  SAPE      HS             16.1078660443        0.3051026049       18.0363994503  MEMB      11              0.0000000000
      1005        11  SAPE      O21            15.4202794753       -1.0713764362       16.6455535989  MEMB      11              0.0000000000
      1006        11  SAPE      C21            14.3422213026       -0.4096099466       16.2198336856  MEMB      11              0.0000000000
      1007        11  SAPE      O22            13.6913225588        0.4059172379       16.8428321293  MEMB      11              0.0000000000
      1008        11  SAPE      C22            14.0243201307       -0.8353620234       14.7645980858  MEMB      11              0.0000000000
      1009        11  SAPE      H2R            14.5473978333       -0.2227831085       13.9994459701  MEMB      11              0.0000000000
      1010        11  SAPE      H2S            14.4574280380       -1.8314772547       14.5311603729  MEMB      11              0.0000000000
      1011        11  SAPE      C3             17.3057686566       -1.5448608711       18.1666612567  MEMB      11              0.0000000000
      1012        11  SAPE      HX             17.7624221505       -1.3492318867       19.1604006938  MEMB      11              0.0000000000
      1013        11  SAPE      HY             18.0525117279       -1.1752190040       17.4317732066  MEMB      11              0.0000000000
      1014        11  SAPE      O31            17.1262380954       -2.9376358030       17.9721956326  MEMB      11              0.0000000000
      1015        11  SAPE      C31            17.7313481850       -3.5159856844       16.9275224916  MEMB      11              0.0000000000
      1016        11  SAPE      O32            18.5495642654       -3.0485802833       16.1660113861  MEMB      11              0.0000000000
      1017        11  SAPE      C32            17.2616629066       -4.9392436433       16.7599850173  MEMB      11              0.0000000000
      1018        11  SAPE      H2X            16.2538410274       -5.0639394889       17.2106144381  MEMB      11              0.0000000000
      1019        11  SAPE      H2Y            17.9958792635       -5.6001607605       17.2683509650  MEMB      11              0.0000000000
      1020        11  SAPE      C23            12.5078732615       -0.7490728581       14.5251565075  MEMB      11              0.0000000000
      1021        11  SAPE      H3R            12.1610670908        0.2926631933       14.6949580866  MEMB      11              0.0000000000
      1022        11  SAPE      H3S            11.9788605466       -1.4380298358       15.2178358470  MEMB      11              0.0000000000
      1023        11  SAPE      C24            11.9748289665       -1.1455638647       13.0541318104  MEMB      11              0.0000000000
      1024        11  SAPE      H4R            10.8737179899       -1.2275409604       13.1772398225  MEMB      11              0.0000000000
      1025        11  SAPE      H4S            12.3793415531       -2.1678204854       12.8938765126  MEMB      11              0.0000000000
      1026        11  SAPE      C25            12.4162976123       -0.1936340266       11.9861178411  MEMB      11              0.0000000000
      1027        11  SAPE      H5R            11.9493232550        0.7829025239       12.1818507986  MEMB      11              0.0000000000
      1028        11  SAPE      C26            13.1324712325       -0.3931749101       10.8780445479  MEMB      11              0.0000000000
      1029        11  SAPE      H6R            13.2906287794        0.4250877911       10.1601083257  MEMB      11              0.0000000000
      1030        11  SAPE      C27            13.7781292902       -1.7065376094       10.4620028800  MEMB      11              0.0000000000
      1031        11  SAPE      H7R            14.1106008684       -1.5643998566        9.4114887547  MEMB      11              0.0000000000
      1032        11  SAPE      H7S            12.9957751403       -2.4936012815       10.5146684565  MEMB      11              0.0000000000
      1033        11  SAPE      C28            15.0119947954       -2.0120989032       11.3156792666  MEMB      11              0.0000000000
      1034        11  SAPE      H8R            15.0903667322       -1.5432108364       12.3076474548  MEMB      11              0.0000000000
      1035        11  SAPE      C29            15.9797301843       -2.9092365180       10.9399400682  MEMB      11              0.0000000000
      1036        11  SAPE      H9R            16.9194948418       -2.9731607879       11.5080564953  MEMB      11              0.0000000000
      1037        11  SAPE      C210           16.0080076136       -3.7313158660        9.6531562350  MEMB      11              0.0000000000
      1038        11  SAPE      H10R           15.3527798624       -3.1807375711        8.9447346096  MEMB      11              0.0000000000
      1039        11  SAPE      H10S           15.4732252325       -4.6862056036        9.8442444399  MEMB      11              0.0000000000
      1040        11  SAPE      C211           17.4005692316       -4.0756679452        9.0693462052  MEMB      11              0.0000000000
      1041        11  SAPE      H11R           18.1934637056       -4.5329458450        9.6794411114  MEMB      11              0.0000000000
      1042        11  SAPE      C212           17.7169678838       -3.7882030397        7.7419295682  MEMB      11              0.0000000000
      1043        11  SAPE      H12R           18.6666555519       -4.1604091990        7.3301575991  MEMB      11              0.0000000000
      1044        11  SAPE      C213           16.7537332427       -3.1735498638        6.7314827305  MEMB      11              0.0000000000
      1045        11  SAPE      H13R           15.8167579166       -3.7639653940        6.6431214884  MEMB      11              0.0000000000
      1046        11  SAPE      H13S           17.2123817552       -3.2392539245        5.7217069837  MEMB      11              0.0000000000
      1047        11  SAPE      C214           16.4540971472       -1.6628256136        6.9723435878  MEMB      11              0.0000000000
      1048        11  SAPE      H14R           15.5342136935       -1.4829032526        7.5480535379  MEMB      11              0.0000000000
      1049        11  SAPE      C215           17.1412485941       -0.5971534828        6.5345765210  MEMB      11              0.0000000000
      1050        11  SAPE      H15R           16.7952420560        0.4102229212        6.8092984974  MEMB      11              0.0000000000
      1051        11  SAPE      C216           18.4744296725       -0.7007489799        5.7362778406  MEMB      11              0.0000000000
      1052        11  SAPE      H16R           18.9420100409       -1.6983209178        5.8795956670  MEMB      11              0.0000000000
      1053        11  SAPE      H16S           19.1585822013        0.0296158693        6.2187955047  MEMB      11              0.0000000000
      1054        11  SAPE      C217           18.1436483173       -0.3215461752        4.2838458830  MEMB      11              0.0000000000
      1055        11  SAPE      H17R           19.1453915743       -0.0854187750        3.8654247275  MEMB      11              0.0000000000
      1056        11  SAPE      H17S           17.5174770467        0.5668518617        4.0536712238  MEMB      11              0.0000000000
      1057        11  SAPE      C218           17.5284165655       -1.4006740394        3.3061570628  MEMB      11              0.0000000000
      1058        11  SAPE      H18R           16.4626679609       -1.4103997623        3.6198542670  MEMB      11              0.0000000000
      1059        11  SAPE      H18S           17.9160671801       -2.4244282068        3.4958283280  MEMB      11              0.0000000000
      1060        11  SAPE      C219           17.5141538468       -0.9283649923        1.8252157599  MEMB      11              0.0000000000
      1061        11  SAPE      H19R           18.5129742594       -0.8537623606        1.3444713826  MEMB      11              0.0000000000
      1062        11  SAPE      H19S           17.0920564127        0.0993219700        1.8214163339  MEMB      11              0.0000000000
      1063        11  SAPE      C220           16.6457115387       -1.7980710989        0.9521549084  MEMB      11              0.0000000000
      1064        11  SAPE      H20R           15.7451116307       -2.1749888576        1.4824136252  MEMB      11              0.0000000000
      1065        11  SAPE      H20S           17.2133170601       -2.7294834746        0.7409293245  MEMB      11              0.0000000000
      1066        11  SAPE      H20T           16.4073043587       -1.2236695632        0.0315310591  MEMB      11              0.0000000000
      1067        11  SAPE      C33            17.2862717362       -5.4120609653       15.2586138844  MEMB      11              0.0000000000
      1068        11  SAPE      H3X            16.9417614456       -6.4665797934       15.1984184949  MEMB      11              0.0000000000
      1069        11  SAPE      H3Y            18.3333048932       -5.4399869785       14.8881247437  MEMB      11              0.0000000000
      1070        11  SAPE      C34            16.3902500692       -4.6102209750       14.2511292742  MEMB      11              0.0000000000
      1071        11  SAPE      H4X            16.8372061163       -4.7666167509       13.2460958469  MEMB      11              0.0000000000
      1072        11  SAPE      H4Y            16.4828908844       -3.5543494177       14.5841065126  MEMB      11              0.0000000000
      1073        11  SAPE      C35            14.8903731125       -4.9098360349       14.3965196306  MEMB      11              0.0000000000
      1074        11  SAPE      H5X            14.4372262929       -3.9783520777       13.9948772580  MEMB      11              0.0000000000
      1075        11  SAPE      H5Y            14.5823132898       -5.0199346889       15.4582631583  MEMB      11              0.0000000000
      1076        11  SAPE      C36            14.1978212661       -6.0166632454       13.6014222916  MEMB      11              0.0000000000
      1077        11  SAPE      H6X            13.1264202575       -6.0816965456       13.8881127594  MEMB      11              0.0000000000
      1078        11  SAPE      H6Y            14.6252732666       -7.0230777634       13.7982360500  MEMB      11              0.0000000000
      1079        11  SAPE      C37            14.2240952595       -5.8474839290       12.0531717385  MEMB      11              0.0000000000
      1080        11  SAPE      H7X            15.3059199656       -5.9332852030       11.8152345038  MEMB      11              0.0000000000
      1081        11  SAPE      H7Y            13.8172973448       -4.8560308330       11.7601583867  MEMB      11              0.0000000000
      1082        11  SAPE      C38            13.4130839544       -6.9763816440       11.4051313060  MEMB      11              0.0000000000
      1083        11  SAPE      H8X            12.3896333453       -7.0355504030       11.8333472656  MEMB      11              0.0000000000
      1084        11  SAPE      H8Y            13.8133431835       -7.9457243074       11.7718583290  MEMB      11              0.0000000000
      1085        11  SAPE      C39            13.4757525354       -6.8966019379        9.8630019327  MEMB      11              0.0000000000
      1086        11  SAPE      H9X            13.0424737084       -7.8157492494        9.4138265489  MEMB      11              0.0000000000
      1087        11  SAPE      H9Y            14.5501794724       -6.9366522174        9.5831375089  MEMB      11              0.0000000000
      1088        11  SAPE      C310           12.6334831417       -5.7355773007        9.2471854965  MEMB      11              0.0000000000
      1089        11  SAPE      H10X           12.8678120933       -4.7718760627        9.7478758895  MEMB      11              0.0000000000
      1090        11  SAPE      H10Y           11.5644420496       -6.0285384729        9.3223257787  MEMB      11              0.0000000000
      1091        11  SAPE      C311           13.0131415304       -5.3982063843        7.7789000282  MEMB      11              0.0000000000
      1092        11  SAPE      H11X           12.8881516439       -6.2653818286        7.0957413596  MEMB      11              0.0000000000
      1093        11  SAPE      H11Y           14.1070392181       -5.2058513133        7.8055110290  MEMB      11              0.0000000000
      1094        11  SAPE      C312           12.1066076943       -4.3137634291        7.1419898719  MEMB      11              0.0000000000
      1095        11  SAPE      H12X           12.1794544182       -3.3138729318        7.6207728512  MEMB      11              0.0000000000
      1096        11  SAPE      H12Y           11.0896927334       -4.7060180968        7.3572596277  MEMB      11              0.0000000000
      1097        11  SAPE      C313           12.1953188075       -4.3044868562        5.6265532904  MEMB      11              0.0000000000
      1098        11  SAPE      H13X           11.7232462984       -5.2178620499        5.2055855302  MEMB      11              0.0000000000
      1099        11  SAPE      H13Y           13.2594159621       -4.4656706913        5.3508035039  MEMB      11              0.0000000000
      1100        11  SAPE      C314           11.5821084444       -3.0579735331        5.0372387377  MEMB      11              0.0000000000
      1101        11  SAPE      H14X           11.9355506165       -2.2980294206        5.7665425786  MEMB      11              0.0000000000
      1102        11  SAPE      H14Y           10.4772439233       -3.1460954509        4.9608850670  MEMB      11              0.0000000000
      1103        11  SAPE      C315           12.0113806445       -2.6025752476        3.7090961545  MEMB      11              0.0000000000
      1104        11  SAPE      H15X           11.8255627060       -3.3154758696        2.8774913327  MEMB      11              0.0000000000
      1105        11  SAPE      H15Y           13.0834032606       -2.3109718828        3.7015838466  MEMB      11              0.0000000000
      1106        11  SAPE      C316           11.1276593777       -1.4756096859        3.2208555835  MEMB      11              0.0000000000
      1107        11  SAPE      H16X           10.9710202224       -0.7347965508        4.0338627740  MEMB      11              0.0000000000
      1108        11  SAPE      H16Y           10.2031607532       -1.9446842046        2.8213657888  MEMB      11              0.0000000000
      1109        11  SAPE      C317           11.7718452899       -0.6467410702        2.0107119087  MEMB      11              0.0000000000
      1110        11  SAPE      H17X           12.8055829766       -0.3837432144        2.3214200564  MEMB      11              0.0000000000
      1111        11  SAPE      H17Y           11.2065498646        0.2892269941        1.8139260656  MEMB      11              0.0000000000
      1112        11  SAPE      C318           11.9244689079       -1.4366265948        0.7005149430  MEMB      11              0.0000000000
      1113        11  SAPE      H18X           12.4790060246       -2.3597152499        0.9738594853  MEMB      11              0.0000000000
      1114        11  SAPE      H18Y           12.6031304541       -0.9149255644       -0.0077000571  MEMB      11              0.0000000000
      1115        11  SAPE      H18Z           10.9360153582       -1.6872188614        0.2595114076  MEMB      11              0.0000000000
      1116        12  CHL1      C3              9.1552238917      -10.3543156746       17.3805850000  MEMB      12              0.0000000000
      1117        12  CHL1      H3              8.6794300759       -9.3525764676       17.4473250000  MEMB      12              0.0000000000
      1118        12  CHL1      O3              9.7393122883      -10.8595187254       18.6194150000  MEMB      12              0.0000000000
      1119        12  CHL1      H3'            10.4284386437      -10.2463030466       18.8852450000  MEMB      12              0.0000000000
      1120        12  CHL1      C4              8.1143352719      -11.3608538360       16.9483250000  MEMB      12              0.0000000000
      1121        12  CHL1      H4A             8.4812115290      -12.4082087510       16.8955850000  MEMB      12              0.0000000000
      1122        12  CHL1      H4B             7.3379369386      -11.4133191821       17.7412750000  MEMB      12              0.0000000000
      1123        12  CHL1      C5              7.5420114409      -10.9404417887       15.6205250000  MEMB      12              0.0000000000
      1124        12  CHL1      C6              6.2270073729      -10.7536729731       15.4660550000  MEMB      12              0.0000000000
      1125        12  CHL1      H6              5.5602633566      -10.9771213584       16.3119350000  MEMB      12              0.0000000000
      1126        12  CHL1      C7              5.5489408585      -10.3952260732       14.1549550000  MEMB      12              0.0000000000
      1127        12  CHL1      H7A             4.5611665110      -10.8575429568       13.9431250000  MEMB      12              0.0000000000
      1128        12  CHL1      H7B             5.4188422803       -9.2990964231       14.0288250000  MEMB      12              0.0000000000
      1129        12  CHL1      C8              6.4406144246      -10.7554162667       12.9525050000  MEMB      12              0.0000000000
      1130        12  CHL1      H8              6.4531265793      -11.8647305291       12.8925650000  MEMB      12              0.0000000000
      1131        12  CHL1      C14             5.9047515853      -10.1892010611       11.6209150000  MEMB      12              0.0000000000
      1132        12  CHL1      H14             5.8724254486       -9.0787332742       11.6326750000  MEMB      12              0.0000000000
      1133        12  CHL1      C15             4.4673795818      -10.5277957841       11.2535150000  MEMB      12              0.0000000000
      1134        12  CHL1      H15A            4.2318911284      -11.6135020305       11.2431050000  MEMB      12              0.0000000000
      1135        12  CHL1      H15B            3.7451276147       -9.9859961077       11.9009250000  MEMB      12              0.0000000000
      1136        12  CHL1      C16             4.3724010593       -9.9949114661        9.8015250000  MEMB      12              0.0000000000
      1137        12  CHL1      H16A            3.6957888612      -10.6093451630        9.1698750000  MEMB      12              0.0000000000
      1138        12  CHL1      H16B            4.1387856764       -8.9118292195        9.7197950000  MEMB      12              0.0000000000
      1139        12  CHL1      C17             5.8773053483       -9.8804114133        9.2927750000  MEMB      12              0.0000000000
      1140        12  CHL1      H17             6.1273465034       -8.7984663594        9.3271850000  MEMB      12              0.0000000000
      1141        12  CHL1      C13             6.7706088194      -10.4640973961       10.4015550000  MEMB      12              0.0000000000
      1142        12  CHL1      C18             6.8203873091      -12.0073890615       10.1427450000  MEMB      12              0.0000000000
      1143        12  CHL1      H18A            5.8113070244      -12.4262471882        9.9411250000  MEMB      12              0.0000000000
      1144        12  CHL1      H18B            7.4973904128      -12.3499194398        9.3311750000  MEMB      12              0.0000000000
      1145        12  CHL1      H18C            7.1739617427      -12.5803459377       11.0265050000  MEMB      12              0.0000000000
      1146        12  CHL1      C12             8.1018390423       -9.7645267788       10.6175450000  MEMB      12              0.0000000000
      1147        12  CHL1      H12A            8.8003263775       -9.7834232493        9.7537850000  MEMB      12              0.0000000000
      1148        12  CHL1      H12B            7.9997304361       -8.6802632807       10.8372550000  MEMB      12              0.0000000000
      1149        12  CHL1      C11             8.7995646454      -10.3730191240       11.9133650000  MEMB      12              0.0000000000
      1150        12  CHL1      H11A            8.9972005699      -11.4473820434       11.7109150000  MEMB      12              0.0000000000
      1151        12  CHL1      H11B            9.8036897397       -9.9108973798       12.0250950000  MEMB      12              0.0000000000
      1152        12  CHL1      C9              7.8417706054      -10.2065218750       13.1729050000  MEMB      12              0.0000000000
      1153        12  CHL1      H9              7.7303320517       -9.1222896818       13.3881650000  MEMB      12              0.0000000000
      1154        12  CHL1      C10             8.5927831373      -10.7782452194       14.4576450000  MEMB      12              0.0000000000
      1155        12  CHL1      C19             9.1370312659      -12.2162871974       14.1807950000  MEMB      12              0.0000000000
      1156        12  CHL1      H19A            9.4655991777      -12.6621672628       15.1438950000  MEMB      12              0.0000000000
      1157        12  CHL1      H19B            8.2898547010      -12.8088430661       13.7739850000  MEMB      12              0.0000000000
      1158        12  CHL1      H19C            9.8511462258      -12.2493513122       13.3303450000  MEMB      12              0.0000000000
      1159        12  CHL1      C1              9.6275551838       -9.7637975364       14.9411150000  MEMB      12              0.0000000000
      1160        12  CHL1      H1A            10.4306708037       -9.6568322389       14.1809250000  MEMB      12              0.0000000000
      1161        12  CHL1      H1B             9.2368221109       -8.7263727241       15.0145550000  MEMB      12              0.0000000000
      1162        12  CHL1      C2             10.2476301217      -10.1844593657       16.3179050000  MEMB      12              0.0000000000
      1163        12  CHL1      H2A            10.9517532020       -9.4033424232       16.6762450000  MEMB      12              0.0000000000
      1164        12  CHL1      H2B            10.7525607975      -11.1583906531       16.1423450000  MEMB      12              0.0000000000
      1165        12  CHL1      C20             6.0913665805      -10.2619053207        7.8011850000  MEMB      12              0.0000000000
      1166        12  CHL1      H20             5.8244437477      -11.3284769312        7.6415550000  MEMB      12              0.0000000000
      1167        12  CHL1      C21             7.5400004159      -10.2308145418        7.2913450000  MEMB      12              0.0000000000
      1168        12  CHL1      H21A            8.0139382575       -9.2518188264        7.5177650000  MEMB      12              0.0000000000
      1169        12  CHL1      H21B            7.5150119140      -10.2789886569        6.1816750000  MEMB      12              0.0000000000
      1170        12  CHL1      H21C            8.0761389094      -11.0997305264        7.7293750000  MEMB      12              0.0000000000
      1171        12  CHL1      C22             5.2268189989       -9.4742817053        6.8602750000  MEMB      12              0.0000000000
      1172        12  CHL1      H22A            4.2513699334       -9.1960430652        7.3134750000  MEMB      12              0.0000000000
      1173        12  CHL1      H22B            5.7008855556       -8.5187456901        6.5495750000  MEMB      12              0.0000000000
      1174        12  CHL1      C23             4.7764625996      -10.2837873437        5.6400050000  MEMB      12              0.0000000000
      1175        12  CHL1      H23A            5.6272004889      -10.7347453997        5.0857550000  MEMB      12              0.0000000000
      1176        12  CHL1      H23B            4.2874789438      -11.1567629456        6.1228550000  MEMB      12              0.0000000000
      1177        12  CHL1      C24             3.8554805974       -9.4263926901        4.7790250000  MEMB      12              0.0000000000
      1178        12  CHL1      H24A            3.0785084587       -8.9978872542        5.4476250000  MEMB      12              0.0000000000
      1179        12  CHL1      H24B            4.5064647681       -8.5950237619        4.4335150000  MEMB      12              0.0000000000
      1180        12  CHL1      C25             3.2066627886      -10.0003629007        3.5417550000  MEMB      12              0.0000000000
      1181        12  CHL1      H25             2.4112850985      -10.7534358720        3.7276950000  MEMB      12              0.0000000000
      1182        12  CHL1      C26             2.7485244246       -8.9614742452        2.4985950000  MEMB      12              0.0000000000
      1183        12  CHL1      H26A            3.6445459096       -8.3852045788        2.1833350000  MEMB      12              0.0000000000
      1184        12  CHL1      H26B            2.3707236462       -9.5370851211        1.6266750000  MEMB      12              0.0000000000
      1185        12  CHL1      H26C            1.9415481485       -8.2993181670        2.8789350000  MEMB      12              0.0000000000
      1186        12  CHL1      C27             4.2156502617      -10.7877118751        2.6543250000  MEMB      12              0.0000000000
      1187        12  CHL1      H27A            3.8098763233      -11.0018045743        1.6424850000  MEMB      12              0.0000000000
      1188        12  CHL1      H27B            5.1698024784      -10.2503073812        2.4669150000  MEMB      12              0.0000000000
      1189        12  CHL1      H27C            4.5266316915      -11.7681539574        3.0742750000  MEMB      12              0.0000000000
      1190        13  SLPC      N             -14.2130241355        5.5906432864       18.8372082694  MEMB      13              0.0000000000
      1191        13  SLPC      C13           -12.8199734143        6.1379143404       18.9414648569  MEMB      13              0.0000000000
      1192        13  SLPC      H13A          -12.2974128005        5.4823851250       19.6223552764  MEMB      13              0.0000000000
      1193        13  SLPC      H13B          -12.3221419137        6.0675310019       17.9856354244  MEMB      13              0.0000000000
      1194        13  SLPC      H13C          -12.8031955019        7.1524729762       19.3113151943  MEMB      13              0.0000000000
      1195        13  SLPC      C14           -15.0151986537        6.4119842503       17.8101175289  MEMB      13              0.0000000000
      1196        13  SLPC      H14A          -15.8694538812        6.8126857607       18.3355566798  MEMB      13              0.0000000000
      1197        13  SLPC      H14B          -14.4106200228        7.1938147033       17.3746570670  MEMB      13              0.0000000000
      1198        13  SLPC      H14C          -15.3547381305        5.7610748129       17.0180127993  MEMB      13              0.0000000000
      1199        13  SLPC      C15           -14.8471246601        5.6816928169       20.1618710685  MEMB      13              0.0000000000
      1200        13  SLPC      H15A          -14.5950877448        4.9439506062       20.9092757681  MEMB      13              0.0000000000
      1201        13  SLPC      H15B          -14.6080176579        6.6236369468       20.6330070988  MEMB      13              0.0000000000
      1202        13  SLPC      H15C          -15.9139428229        5.7106298144       19.9961555559  MEMB      13              0.0000000000
      1203        13  SLPC      C12           -14.1669276261        4.0983119806       18.4357014622  MEMB      13              0.0000000000
      1204        13  SLPC      H12A          -15.1278499920        3.7232088005       18.1158173576  MEMB      13              0.0000000000
      1205        13  SLPC      H12B          -13.7670052457        3.5767195432       19.2926749941  MEMB      13              0.0000000000
      1206        13  SLPC      C11           -13.2525575200        3.6731805488       17.1932136680  MEMB      13              0.0000000000
      1207        13  SLPC      H11A          -13.4250652572        2.6019423673       16.9544440469  MEMB      13              0.0000000000
      1208        13  SLPC      H11B          -12.1714733029        3.7544891052       17.4360439408  MEMB      13              0.0000000000
      1209        13  SLPC      P             -14.8469345483        4.0420108541       15.1386404999  MEMB      13              0.0000000000
      1210        13  SLPC      O13           -14.7610885002        2.6238317414       14.6038643616  MEMB      13              0.0000000000
      1211        13  SLPC      O14           -16.1122752766        4.4049195086       15.8788189116  MEMB      13              0.0000000000
      1212        13  SLPC      O12           -13.5547204438        4.4275839861       16.0090837109  MEMB      13              0.0000000000
      1213        13  SLPC      O11           -14.6909494712        4.9852590051       13.9900156459  MEMB      13              0.0000000000
      1214        13  SLPC      C1            -14.7389959265        6.3660013136       14.1437705282  MEMB      13              0.0000000000
      1215        13  SLPC      HA            -14.8262381347        6.7856866477       15.1687457402  MEMB      13              0.0000000000
      1216        13  SLPC      HB            -13.8277946746        6.8017602450       13.6810101331  MEMB      13              0.0000000000
      1217        13  SLPC      C2            -15.9467485843        6.9155914868       13.2977284829  MEMB      13              0.0000000000
      1218        13  SLPC      HS            -16.7847262212        6.9717038123       14.0250289375  MEMB      13              0.0000000000
      1219        13  SLPC      O21           -16.2447676330        6.1699991197       12.1211581990  MEMB      13              0.0000000000
      1220        13  SLPC      C21           -17.3215503607        6.4298466348       11.4762829709  MEMB      13              0.0000000000
      1221        13  SLPC      O22           -18.2571085774        7.1307418012       11.8293734002  MEMB      13              0.0000000000
      1222        13  SLPC      C22           -17.2789621852        5.6070801507       10.1943300658  MEMB      13              0.0000000000
      1223        13  SLPC      H2R           -16.2980228898        5.7076428057        9.6825036515  MEMB      13              0.0000000000
      1224        13  SLPC      H2S           -17.4744817081        4.5342151477       10.4065889247  MEMB      13              0.0000000000
      1225        13  SLPC      C3            -15.7485032066        8.3845702938       12.8428295397  MEMB      13              0.0000000000
      1226        13  SLPC      HX            -15.4456805918        8.9489222532       13.7506433548  MEMB      13              0.0000000000
      1227        13  SLPC      HY            -16.7111505940        8.8493714106       12.5401898748  MEMB      13              0.0000000000
      1228        13  SLPC      O31           -14.7404194593        8.4354665607       11.8443666331  MEMB      13              0.0000000000
      1229        13  SLPC      C31           -14.9635157059        8.9506333757       10.7107114375  MEMB      13              0.0000000000
      1230        13  SLPC      O32           -15.9499750780        9.5998810562       10.3665402483  MEMB      13              0.0000000000
      1231        13  SLPC      C32           -13.7782599972        8.5495012350        9.7741704449  MEMB      13              0.0000000000
      1232        13  SLPC      H2X           -13.4540699409        7.5398911345       10.1056957679  MEMB      13              0.0000000000
      1233        13  SLPC      H2Y           -12.9686297787        9.2788938112        9.9905187456  MEMB      13              0.0000000000
      1234        13  SLPC      C23           -18.4779329796        6.0454790498        9.2836898987  MEMB      13              0.0000000000
      1235        13  SLPC      H3R           -18.2872864119        7.0643458480        8.8838333203  MEMB      13              0.0000000000
      1236        13  SLPC      H3S           -19.3876386193        6.1028812543        9.9188762218  MEMB      13              0.0000000000
      1237        13  SLPC      C24           -18.7823154736        5.0702810151        8.1361849449  MEMB      13              0.0000000000
      1238        13  SLPC      H4R           -19.7072760841        4.5197033627        8.4111993543  MEMB      13              0.0000000000
      1239        13  SLPC      H4S           -18.0297076411        4.2648961405        7.9974125580  MEMB      13              0.0000000000
      1240        13  SLPC      C25           -18.8966147287        5.9238216511        6.7941053435  MEMB      13              0.0000000000
      1241        13  SLPC      H5R           -17.8950243534        6.3941657369        6.6945379875  MEMB      13              0.0000000000
      1242        13  SLPC      H5S           -19.6742574656        6.7041666000        6.9378245572  MEMB      13              0.0000000000
      1243        13  SLPC      C26           -19.1879010734        5.1124472431        5.5449460262  MEMB      13              0.0000000000
      1244        13  SLPC      H6R           -20.0472780882        4.4659501601        5.8239345763  MEMB      13              0.0000000000
      1245        13  SLPC      H6S           -18.3339992698        4.4306665581        5.3440794949  MEMB      13              0.0000000000
      1246        13  SLPC      C27           -19.4423951316        5.9473608983        4.3048052236  MEMB      13              0.0000000000
      1247        13  SLPC      H7R           -20.3283800295        6.5956618266        4.4752690900  MEMB      13              0.0000000000
      1248        13  SLPC      H7S           -19.6870721260        5.2776570729        3.4527774721  MEMB      13              0.0000000000
      1249        13  SLPC      C28           -18.2838860152        6.8888720835        3.9513299390  MEMB      13              0.0000000000
      1250        13  SLPC      H8R           -18.0846988168        7.6085132314        4.7739849052  MEMB      13              0.0000000000
      1251        13  SLPC      H8S           -18.5572051513        7.5450546847        3.0974900262  MEMB      13              0.0000000000
      1252        13  SLPC      C29           -17.0004151677        6.2100450175        3.7317464186  MEMB      13              0.0000000000
      1253        13  SLPC      H9R           -16.9077997999        5.1467936411        3.9980522232  MEMB      13              0.0000000000
      1254        13  SLPC      C210          -15.9809978607        6.9788600889        3.2459960967  MEMB      13              0.0000000000
      1255        13  SLPC      H10R          -15.0129967429        6.4595169130        3.1889303996  MEMB      13              0.0000000000
      1256        13  SLPC      C211          -15.9253648280        8.4347826917        2.8776169921  MEMB      13              0.0000000000
      1257        13  SLPC      H11R          -16.6626001371        9.0990190428        3.3772121374  MEMB      13              0.0000000000
      1258        13  SLPC      H11S          -16.1452665678        8.5575676256        1.7955407127  MEMB      13              0.0000000000
      1259        13  SLPC      C212          -14.5450061845        8.9671144183        3.1011083699  MEMB      13              0.0000000000
      1260        13  SLPC      H12R          -14.4507703648        9.5639667044        4.0202857592  MEMB      13              0.0000000000
      1261        13  SLPC      C213          -13.4631469751        8.9614228597        2.2999643878  MEMB      13              0.0000000000
      1262        13  SLPC      H13R          -12.5266432171        9.3846897883        2.6921456204  MEMB      13              0.0000000000
      1263        13  SLPC      C214          -13.3990289408        8.4150605485        0.9095164837  MEMB      13              0.0000000000
      1264        13  SLPC      H14R          -13.9609646254        7.4570267214        0.9363605775  MEMB      13              0.0000000000
      1265        13  SLPC      H14S          -12.3162270969        8.2543164454        0.7197203459  MEMB      13              0.0000000000
      1266        13  SLPC      C215          -13.8264563461        9.4262511870       -0.1597002982  MEMB      13              0.0000000000
      1267        13  SLPC      H15R          -13.3961848083       10.4241486011        0.0713577963  MEMB      13              0.0000000000
      1268        13  SLPC      H15S          -14.9078255667        9.6809119132       -0.1492359046  MEMB      13              0.0000000000
      1269        13  SLPC      C216          -13.3200211126        9.1501237032       -1.5482203344  MEMB      13              0.0000000000
      1270        13  SLPC      H16R          -12.2092474560        9.1352777892       -1.5314128098  MEMB      13              0.0000000000
      1271        13  SLPC      H16S          -13.7299682808        9.9227689583       -2.2332637193  MEMB      13              0.0000000000
      1272        13  SLPC      C217          -13.7843485169        7.7968624187       -2.1503806540  MEMB      13              0.0000000000
      1273        13  SLPC      H17R          -13.7347337006        7.0526839840       -1.3269372343  MEMB      13              0.0000000000
      1274        13  SLPC      H17S          -12.9909565482        7.5978978254       -2.9022198844  MEMB      13              0.0000000000
      1275        13  SLPC      C218          -15.1772131410        7.9306554274       -2.8259912654  MEMB      13              0.0000000000
      1276        13  SLPC      H18R          -15.0092919846        8.4273870806       -3.8054723837  MEMB      13              0.0000000000
      1277        13  SLPC      H18S          -15.7235841064        8.4914074724       -2.0377289635  MEMB      13              0.0000000000
      1278        13  SLPC      H18T          -15.6041902496        6.9222133733       -3.0132232192  MEMB      13              0.0000000000
      1279        13  SLPC      C33           -14.1517067474        8.7211525004        8.2887874376  MEMB      13              0.0000000000
      1280        13  SLPC      H3X           -14.3633842270        9.8020428330        8.1432196138  MEMB      13              0.0000000000
      1281        13  SLPC      H3Y           -15.0301920624        8.1156757731        7.9789773359  MEMB      13              0.0000000000
      1282        13  SLPC      C34           -13.0156270475        8.2345020519        7.3626401563  MEMB      13              0.0000000000
      1283        13  SLPC      H4X           -12.0772081193        8.2115893191        7.9569181798  MEMB      13              0.0000000000
      1284        13  SLPC      H4Y           -12.7881509705        8.9358062768        6.5315280483  MEMB      13              0.0000000000
      1285        13  SLPC      C35           -13.2879526220        6.7741161873        6.9422538347  MEMB      13              0.0000000000
      1286        13  SLPC      H5X           -14.2699279817        6.6161198248        6.4471965930  MEMB      13              0.0000000000
      1287        13  SLPC      H5Y           -13.3681356368        6.2893084111        7.9386745631  MEMB      13              0.0000000000
      1288        13  SLPC      C36           -12.1634380827        6.0154549787        6.1714039726  MEMB      13              0.0000000000
      1289        13  SLPC      H6X           -11.2900187136        6.6259670221        6.4856253155  MEMB      13              0.0000000000
      1290        13  SLPC      H6Y           -12.2884173328        6.1842487122        5.0804372798  MEMB      13              0.0000000000
      1291        13  SLPC      C37           -12.1783817113        4.5048016242        6.5383992014  MEMB      13              0.0000000000
      1292        13  SLPC      H7X           -11.9422778025        4.3557705697        7.6137431659  MEMB      13              0.0000000000
      1293        13  SLPC      H7Y           -11.3406361027        4.0946096844        5.9348708623  MEMB      13              0.0000000000
      1294        13  SLPC      C38           -13.3729399892        3.7563713165        6.1672094637  MEMB      13              0.0000000000
      1295        13  SLPC      H8X           -14.3009375088        4.2937514364        6.4576651645  MEMB      13              0.0000000000
      1296        13  SLPC      H8Y           -13.4452751380        2.6895715429        6.4689166821  MEMB      13              0.0000000000
      1297        13  SLPC      C39           -13.6406842424        3.6592996408        4.6687510774  MEMB      13              0.0000000000
      1298        13  SLPC      H9X           -12.7824031390        3.3364434416        4.0415040183  MEMB      13              0.0000000000
      1299        13  SLPC      H9Y           -13.8447009401        4.6808585406        4.2825958254  MEMB      13              0.0000000000
      1300        13  SLPC      C310          -14.9434759205        2.8327946479        4.2972871697  MEMB      13              0.0000000000
      1301        13  SLPC      H10X          -15.7423872508        3.2942778292        4.9162331502  MEMB      13              0.0000000000
      1302        13  SLPC      H10Y          -14.7291704272        1.7929705356        4.6246393528  MEMB      13              0.0000000000
      1303        13  SLPC      C311          -15.2870495726        2.9494588435        2.8404392366  MEMB      13              0.0000000000
      1304        13  SLPC      H11X          -14.7172369136        2.1431630603        2.3310064175  MEMB      13              0.0000000000
      1305        13  SLPC      H11Y          -15.0634952569        3.9949060171        2.5381397060  MEMB      13              0.0000000000
      1306        13  SLPC      C312          -16.8116327233        2.6523056841        2.4904449420  MEMB      13              0.0000000000
      1307        13  SLPC      H12X          -17.4017076081        3.2142619361        3.2456523559  MEMB      13              0.0000000000
      1308        13  SLPC      H12Y          -17.0619477810        1.5734046818        2.5778302709  MEMB      13              0.0000000000
      1309        13  SLPC      C313          -17.3307473989        2.9983065651        1.0818421345  MEMB      13              0.0000000000
      1310        13  SLPC      H13X          -18.3247651851        2.5275237680        0.9249552105  MEMB      13              0.0000000000
      1311        13  SLPC      H13Y          -16.6537133432        2.5089348861        0.3494075758  MEMB      13              0.0000000000
      1312        13  SLPC      C314          -17.6150601847        4.4530915300        0.7497158463  MEMB      13              0.0000000000
      1313        13  SLPC      H14X          -16.8122035072        5.1266011159        1.1186695021  MEMB      13              0.0000000000
      1314        13  SLPC      H14Y          -18.5870211651        4.6256510372        1.2594568320  MEMB      13              0.0000000000
      1315        13  SLPC      C315          -17.6875930016        4.7220664393       -0.8398090759  MEMB      13              0.0000000000
      1316        13  SLPC      H15X          -18.5071711481        4.0626560665       -1.1972877362  MEMB      13              0.0000000000
      1317        13  SLPC      H15Y          -16.7548461826        4.6214700288       -1.4349437327  MEMB      13              0.0000000000
      1318        13  SLPC      C316          -18.1175281643        6.2131885399       -1.0852292919  MEMB      13              0.0000000000
      1319        13  SLPC      H16X          -17.1724932442        6.7934906824       -1.1521556894  MEMB      13              0.0000000000
      1320        13  SLPC      H16Y          -18.7197189735        6.6004581855       -0.2356929249  MEMB      13              0.0000000000
      1321        13  SLPC      C317          -18.9375527245        6.3687036862       -2.3579322817  MEMB      13              0.0000000000
      1322        13  SLPC      H17X          -18.2750681203        5.9918562677       -3.1662768446  MEMB      13              0.0000000000
      1323        13  SLPC      H17Y          -18.9098531066        7.4589160296       -2.5700426256  MEMB      13              0.0000000000
      1324        13  SLPC      C318          -20.4046135509        5.8046740009       -2.4080438896  MEMB      13              0.0000000000
      1325        13  SLPC      H18X          -20.4672744569        4.7074812027       -2.2450641782  MEMB      13              0.0000000000
      1326        13  SLPC      H18Y          -20.8036349753        6.0209275896       -3.4221126954  MEMB      13              0.0000000000
      1327        13  SLPC      H18Z          -21.0594954469        6.3329904256       -1.6825553898  MEMB      13              0.0000000000
      1328        14  OSM       N             -12.1354786291       11.6779320083       22.1970082435  MEMB      14              0.0000000000
      1329        14  OSM       C15           -11.7730423027       10.3144531424       21.5373370581  MEMB      14              0.0000000000
      1330        14  OSM       H15A          -10.7756877150       10.3863825874       21.1292808051  MEMB      14              0.0000000000
      1331        14  OSM       H15B          -12.4447117146       10.0382922289       20.7379651197  MEMB      14              0.0000000000
      1332        14  OSM       H15C          -11.8849022140        9.5804811773       22.3216664068  MEMB      14              0.0000000000
      1333        14  OSM       C14           -13.3763896297       11.4198210335       23.0421210502  MEMB      14              0.0000000000
      1334        14  OSM       H14A          -13.1637181439       10.6882262603       23.8075881186  MEMB      14              0.0000000000
      1335        14  OSM       H14B          -14.1562370220       11.1350202248       22.3513774131  MEMB      14              0.0000000000
      1336        14  OSM       H14C          -13.6560311684       12.3179237313       23.5727926331  MEMB      14              0.0000000000
      1337        14  OSM       C13           -11.0207274224       12.0483830576       23.1643042375  MEMB      14              0.0000000000
      1338        14  OSM       H13A          -10.1141231695       12.1543803284       22.5870405271  MEMB      14              0.0000000000
      1339        14  OSM       H13B          -10.9670114112       11.2053618005       23.8372304764  MEMB      14              0.0000000000
      1340        14  OSM       H13C          -11.3113222402       12.9253080337       23.7237301056  MEMB      14              0.0000000000
      1341        14  OSM       C12           -12.3954254324       12.7176306768       21.1114848284  MEMB      14              0.0000000000
      1342        14  OSM       H12A          -13.0453094517       13.4263379365       21.6032010703  MEMB      14              0.0000000000
      1343        14  OSM       H12B          -13.0583771683       12.1430230289       20.4816268531  MEMB      14              0.0000000000
      1344        14  OSM       C11           -11.1731864132       13.3325064534       20.3566959909  MEMB      14              0.0000000000
      1345        14  OSM       H11A          -10.5916740344       13.9754071074       21.0515651326  MEMB      14              0.0000000000
      1346        14  OSM       H11B          -11.5435017991       14.0441366743       19.5880804411  MEMB      14              0.0000000000
      1347        14  OSM       P              -8.8585719673       12.1107178878       19.9898843709  MEMB      14              0.0000000000
      1348        14  OSM       O13            -8.4562966913       12.6192322673       21.3180200097  MEMB      14              0.0000000000
      1349        14  OSM       O14            -8.5490866047       10.6795706973       19.6853381981  MEMB      14              0.0000000000
      1350        14  OSM       O11            -8.3134301037       13.0717879396       18.8226953924  MEMB      14              0.0000000000
      1351        14  OSM       O12           -10.4321838993       12.3170780758       19.7751106206  MEMB      14              0.0000000000
      1352        14  OSM       C1S            -9.0167908456       13.0103124634       17.5366369993  MEMB      14              0.0000000000
      1353        14  OSM       H1S           -10.0838435490       12.7031498927       17.5736595215  MEMB      14              0.0000000000
      1354        14  OSM       H1T            -8.4963035207       12.2306076272       16.9404202822  MEMB      14              0.0000000000
      1355        14  OSM       NF             -9.4184540884       13.8665084933       15.2888633356  MEMB      14              0.0000000000
      1356        14  OSM       HNF            -8.7598180208       13.7499031145       14.5495322280  MEMB      14              0.0000000000
      1357        14  OSM       C2S            -8.9397568601       14.2794766023       16.6349930566  MEMB      14              0.0000000000
      1358        14  OSM       H2S            -9.6455337988       15.0681633581       16.9728880149  MEMB      14              0.0000000000
      1359        14  OSM       C3S            -7.4466888913       14.6915537152       16.5144567699  MEMB      14              0.0000000000
      1360        14  OSM       H3S            -6.8231735617       13.8009524208       16.2855924612  MEMB      14              0.0000000000
      1361        14  OSM       O3             -6.8548395812       15.3008351572       17.6751612427  MEMB      14              0.0000000000
      1362        14  OSM       HO3            -7.2737268105       14.8623804084       18.4193995530  MEMB      14              0.0000000000
      1363        14  OSM       C4S            -7.2947930944       15.7471522235       15.4316142565  MEMB      14              0.0000000000
      1364        14  OSM       H4S            -7.6869073801       16.7297170217       15.7329665934  MEMB      14              0.0000000000
      1365        14  OSM       C5S            -6.6955220230       15.6346953455       14.1865449788  MEMB      14              0.0000000000
      1366        14  OSM       H5S            -6.2365068209       14.6601858813       13.9637525453  MEMB      14              0.0000000000
      1367        14  OSM       C6S            -6.5247739153       16.6807513724       13.1208114569  MEMB      14              0.0000000000
      1368        14  OSM       H6S            -5.5762857799       17.2571921891       13.1698735007  MEMB      14              0.0000000000
      1369        14  OSM       H6T            -7.2973514119       17.4658613669       13.2658880213  MEMB      14              0.0000000000
      1370        14  OSM       C7S            -6.6334969465       16.0203069709       11.7299364263  MEMB      14              0.0000000000
      1371        14  OSM       H7S            -6.4001556016       14.9342192918       11.7130209708  MEMB      14              0.0000000000
      1372        14  OSM       H7T            -6.0607511935       16.6779963059       11.0416570220  MEMB      14              0.0000000000
      1373        14  OSM       C8S            -8.1170892244       16.0810781989       11.2194305850  MEMB      14              0.0000000000
      1374        14  OSM       H8S            -8.3753151636       17.1296865703       10.9585457404  MEMB      14              0.0000000000
      1375        14  OSM       H8T            -8.8255256721       15.5388944164       11.8816047927  MEMB      14              0.0000000000
      1376        14  OSM       C9S            -8.2118349063       15.4344340531        9.8136275040  MEMB      14              0.0000000000
      1377        14  OSM       H9S            -7.7360958285       14.4304654060        9.8072862971  MEMB      14              0.0000000000
      1378        14  OSM       H9T            -7.7125475479       16.0163384294        9.0096253178  MEMB      14              0.0000000000
      1379        14  OSM       C10S           -9.6251990658       15.3424328340        9.3708250514  MEMB      14              0.0000000000
      1380        14  OSM       H10S          -10.1914130126       16.2982270856        9.3573999781  MEMB      14              0.0000000000
      1381        14  OSM       H10T          -10.0867352396       14.6210180493       10.0785438910  MEMB      14              0.0000000000
      1382        14  OSM       C11S           -9.7373964709       14.7388787112        7.9515760535  MEMB      14              0.0000000000
      1383        14  OSM       H11S           -9.5427924873       13.6453107905        7.9279212755  MEMB      14              0.0000000000
      1384        14  OSM       H11T           -9.0581473424       15.1984155639        7.2020648222  MEMB      14              0.0000000000
      1385        14  OSM       C12S          -11.2219459769       14.9346157272        7.4380647753  MEMB      14              0.0000000000
      1386        14  OSM       H12S          -11.5388809866       15.9979673799        7.3818793742  MEMB      14              0.0000000000
      1387        14  OSM       H12T          -11.9262924135       14.3139839282        8.0322303452  MEMB      14              0.0000000000
      1388        14  OSM       C13S          -11.4052654989       14.2152363451        6.0487414842  MEMB      14              0.0000000000
      1389        14  OSM       H13S          -10.9145091866       13.2212461098        6.1226514390  MEMB      14              0.0000000000
      1390        14  OSM       H13T          -10.8728973555       14.7834386632        5.2562448496  MEMB      14              0.0000000000
      1391        14  OSM       C14S          -12.8545272859       14.1653788081        5.4946468269  MEMB      14              0.0000000000
      1392        14  OSM       H14S          -13.2980586583       15.1789751125        5.5957570030  MEMB      14              0.0000000000
      1393        14  OSM       H14T          -13.4586106101       13.5150146665        6.1628008898  MEMB      14              0.0000000000
      1394        14  OSM       C15S          -13.0932028994       13.8236768776        4.0031486013  MEMB      14              0.0000000000
      1395        14  OSM       H15S          -12.2944687208       14.1413161790        3.2992666480  MEMB      14              0.0000000000
      1396        14  OSM       H15T          -13.9872917180       14.2897652354        3.5365784144  MEMB      14              0.0000000000
      1397        14  OSM       C16S          -13.3258850534       12.3162159491        3.7603134588  MEMB      14              0.0000000000
      1398        14  OSM       H16S          -14.4269080169       12.1775317301        3.8135684263  MEMB      14              0.0000000000
      1399        14  OSM       H16T          -12.9582639793       11.7637818994        4.6513764979  MEMB      14              0.0000000000
      1400        14  OSM       C17S          -12.7705701983       11.7542691923        2.4495419598  MEMB      14              0.0000000000
      1401        14  OSM       H17S          -13.2807301789       10.7698800020        2.3785804003  MEMB      14              0.0000000000
      1402        14  OSM       H17T          -11.6654118934       11.6407750182        2.4414673553  MEMB      14              0.0000000000
      1403        14  OSM       C18S          -12.9719331739       12.5604308852        1.1379706433  MEMB      14              0.0000000000
      1404        14  OSM       H18S          -12.4112853734       13.5114523030        1.0132581914  MEMB      14              0.0000000000
      1405        14  OSM       H18T          -14.0161880080       12.9033766184        0.9759829118  MEMB      14              0.0000000000
      1406        14  OSM       H18U          -12.6472774308       11.9672540025        0.2564607274  MEMB      14              0.0000000000
      1407        14  OSM       C1F           -10.7807459761       13.6250587623       15.0855502539  MEMB      14              0.0000000000
      1408        14  OSM       OF            -11.5634738687       13.5810818009       16.0301020242  MEMB      14              0.0000000000
      1409        14  OSM       C2F           -11.2546240078       13.3260275223       13.6819288466  MEMB      14              0.0000000000
      1410        14  OSM       H2F           -10.4415672628       12.7769550926       13.1606044031  MEMB      14              0.0000000000
      1411        14  OSM       H2G           -11.4446068885       14.3060686515       13.1943361577  MEMB      14              0.0000000000
      1412        14  OSM       C3F           -12.5247270888       12.4406243690       13.6225746702  MEMB      14              0.0000000000
      1413        14  OSM       H3F           -13.0280006358       12.3135798996       12.6402833838  MEMB      14              0.0000000000
      1414        14  OSM       H3G           -13.2557770319       12.9856988316       14.2572246640  MEMB      14              0.0000000000
      1415        14  OSM       C4F           -12.3556993844       11.0582148218       14.3257925831  MEMB      14              0.0000000000
      1416        14  OSM       H4F           -13.3372851979       10.5759909651       14.1301645760  MEMB      14              0.0000000000
      1417        14  OSM       H4G           -12.2582279708       11.0142692561       15.4316357979  MEMB      14              0.0000000000
      1418        14  OSM       C5F           -11.3623560791       10.1206587184       13.6153338086  MEMB      14              0.0000000000
      1419        14  OSM       H5F           -11.2571557830        9.2333254171       14.2755558496  MEMB      14              0.0000000000
      1420        14  OSM       H5G           -10.4445836715       10.7467633869       13.6125290635  MEMB      14              0.0000000000
      1421        14  OSM       C6F           -11.5184875831        9.9215745615       12.0403097740  MEMB      14              0.0000000000
      1422        14  OSM       H6F           -11.6544247466       10.9290564900       11.5921774836  MEMB      14              0.0000000000
      1423        14  OSM       H6G           -12.4087990913        9.2574099798       12.0168209302  MEMB      14              0.0000000000
      1424        14  OSM       C7F           -10.3181396304        9.2353982042       11.4144001705  MEMB      14              0.0000000000
      1425        14  OSM       H7F           -10.1671056584        8.3903138012       12.1196245072  MEMB      14              0.0000000000
      1426        14  OSM       H7G            -9.4238825131        9.8818312815       11.5438202391  MEMB      14              0.0000000000
      1427        14  OSM       C8F           -10.6211430159        8.9972981060        9.9016770840  MEMB      14              0.0000000000
      1428        14  OSM       H8F           -10.9474800306        9.8500155618        9.2686698075  MEMB      14              0.0000000000
      1429        14  OSM       H8G           -11.2322748253        8.0739888983        9.8103604807  MEMB      14              0.0000000000
      1430        14  OSM       C9F            -9.2635535227        8.4357468543        9.3346503510  MEMB      14              0.0000000000
      1431        14  OSM       H9F            -8.9966467294        7.4037633508        9.6062581711  MEMB      14              0.0000000000
      1432        14  OSM       C10F           -8.4517988127        9.0948092601        8.5348038563  MEMB      14              0.0000000000
      1433        14  OSM       H10F           -7.5138816731        8.6832608050        8.1336311550  MEMB      14              0.0000000000
      1434        14  OSM       C11F           -8.7089310334       10.4800679812        8.0009244833  MEMB      14              0.0000000000
      1435        14  OSM       H11F           -7.6484563864       10.7595124196        7.8230886230  MEMB      14              0.0000000000
      1436        14  OSM       H11G           -9.1542484168       11.1491996475        8.7679158801  MEMB      14              0.0000000000
      1437        14  OSM       C12F           -9.4319510541       10.6187651919        6.6034537822  MEMB      14              0.0000000000
      1438        14  OSM       H12F           -9.4220694136       11.7156451068        6.4271644601  MEMB      14              0.0000000000
      1439        14  OSM       H12G          -10.4329644877       10.1385317308        6.5626029350  MEMB      14              0.0000000000
      1440        14  OSM       C13F           -8.6158705717        9.9423613969        5.4296080559  MEMB      14              0.0000000000
      1441        14  OSM       H13F           -8.2717876283        8.9157147369        5.6784537299  MEMB      14              0.0000000000
      1442        14  OSM       H13G           -7.7053697730       10.5699585816        5.5365248066  MEMB      14              0.0000000000
      1443        14  OSM       C14F           -9.2633827946       10.0747392363        4.0916359086  MEMB      14              0.0000000000
      1444        14  OSM       H14F           -9.7266033739       11.0824229423        4.0258999634  MEMB      14              0.0000000000
      1445        14  OSM       H14G          -10.1423720818        9.3996168169        4.1684997508  MEMB      14              0.0000000000
      1446        14  OSM       C15F           -8.3314665535        9.9038280356        2.9517501135  MEMB      14              0.0000000000
      1447        14  OSM       H15F           -7.8014377091        8.9451046294        3.1367884479  MEMB      14              0.0000000000
      1448        14  OSM       H15G           -7.5780511316       10.7076228097        2.8082201574  MEMB      14              0.0000000000
      1449        14  OSM       C16F           -9.1052039368        9.8240306898        1.6086940290  MEMB      14              0.0000000000
      1450        14  OSM       H16F          -10.1055608761        9.3610851423        1.7475762199  MEMB      14              0.0000000000
      1451        14  OSM       H16G           -8.5434556013        9.2618937158        0.8323162758  MEMB      14              0.0000000000
      1452        14  OSM       C17F           -9.4131627427       11.1511698789        0.8947006856  MEMB      14              0.0000000000
      1453        14  OSM       H17F           -9.9525228732       11.9177223369        1.4911993328  MEMB      14              0.0000000000
      1454        14  OSM       H17G          -10.1421734947       11.0586466529        0.0614519696  MEMB      14              0.0000000000
      1455        14  OSM       C18F           -8.1854916919       11.8961635954        0.3558505765  MEMB      14              0.0000000000
      1456        14  OSM       H18F           -7.5063306585       11.2537238186       -0.2444257850  MEMB      14              0.0000000000
      1457        14  OSM       H18G           -7.5013046232       12.2493163169        1.1567831102  MEMB      14              0.0000000000
      1458        14  OSM       H18H           -8.5714450069       12.6669833297       -0.3450028756  MEMB      14              0.0000000000
      1459        15  SAPS      N              12.2171461353        6.7785579030       20.7915592956  MEMB      15              0.0000000000
      1460        15  SAPS      HN1            11.4704015927        7.3041734808       21.2892548584  MEMB      15              0.0000000000
      1461        15  SAPS      HN2            11.9152366714        6.3785217784       19.8802844450  MEMB      15              0.0000000000
      1462        15  SAPS      HN3            12.5483070419        6.0126144173       21.4122549149  MEMB      15              0.0000000000
      1463        15  SAPS      C12            13.3746564367        7.7021616935       20.5712828333  MEMB      15              0.0000000000
      1464        15  SAPS      H12A           13.8140705866        8.0087216292       21.5090120885  MEMB      15              0.0000000000
      1465        15  SAPS      C13            14.5892421474        7.0278977068       19.8789571244  MEMB      15              0.0000000000
      1466        15  SAPS      O13A           14.5551445023        5.7953271318       19.7429357269  MEMB      15              0.0000000000
      1467        15  SAPS      O13B           15.3861025892        7.8216534991       19.2780296450  MEMB      15              0.0000000000
      1468        15  SAPS      C11            13.0058681934        8.9871820199       19.8390045314  MEMB      15              0.0000000000
      1469        15  SAPS      H11A           12.6796311630        8.8264086786       18.7892224885  MEMB      15              0.0000000000
      1470        15  SAPS      H11B           13.8597165243        9.6971005743       19.8747769640  MEMB      15              0.0000000000
      1471        15  SAPS      P              11.5865732617       11.1446806671       20.0216499342  MEMB      15              0.0000000000
      1472        15  SAPS      O13            10.2185297595       11.4934336185       20.4216322935  MEMB      15              0.0000000000
      1473        15  SAPS      O14            12.7460073626       11.9865180325       20.5688293338  MEMB      15              0.0000000000
      1474        15  SAPS      O12            11.9200684676        9.6031148515       20.4669415892  MEMB      15              0.0000000000
      1475        15  SAPS      O11            11.6384549253       11.1377402404       18.4191777158  MEMB      15              0.0000000000
      1476        15  SAPS      C1             11.6118781528       12.4378578611       17.8583382494  MEMB      15              0.0000000000
      1477        15  SAPS      HA             10.7455038077       13.0198751854       18.2390907331  MEMB      15              0.0000000000
      1478        15  SAPS      HB             12.5535691925       12.9888366073       18.0680082812  MEMB      15              0.0000000000
      1479        15  SAPS      C2             11.4793017187       12.3238435530       16.3362204994  MEMB      15              0.0000000000
      1480        15  SAPS      HS             10.6199896476       11.6925150938       16.0242461197  MEMB      15              0.0000000000
      1481        15  SAPS      O21            12.6891136662       11.7082981219       15.8390853716  MEMB      15              0.0000000000
      1482        15  SAPS      C21            12.7503674126       10.3611974495       15.7377142083  MEMB      15              0.0000000000
      1483        15  SAPS      O22            11.9055370184        9.6032444565       16.0632487182  MEMB      15              0.0000000000
      1484        15  SAPS      C22            14.2314742077        9.9282285837       15.3891030102  MEMB      15              0.0000000000
      1485        15  SAPS      H2R            14.7633431502       10.7995952524       14.9507461043  MEMB      15              0.0000000000
      1486        15  SAPS      H2S            14.6790095885        9.5425423647       16.3299957387  MEMB      15              0.0000000000
      1487        15  SAPS      C3             11.1779863301       13.7769868651       15.7874213810  MEMB      15              0.0000000000
      1488        15  SAPS      HX             12.1795957022       14.2559075749       15.8290668429  MEMB      15              0.0000000000
      1489        15  SAPS      HY             10.5626493205       14.2604550890       16.5760529049  MEMB      15              0.0000000000
      1490        15  SAPS      O31            10.4996583467       13.9063490581       14.4646650767  MEMB      15              0.0000000000
      1491        15  SAPS      C31            11.3013905322       13.6282413168       13.3462756368  MEMB      15              0.0000000000
      1492        15  SAPS      O32            12.4738278730       13.4673639869       13.4170289063  MEMB      15              0.0000000000
      1493        15  SAPS      C32            10.4716721199       13.5977619471       12.0239611156  MEMB      15              0.0000000000
      1494        15  SAPS      H2X            10.1907686187       14.6455543179       11.7840735411  MEMB      15              0.0000000000
      1495        15  SAPS      H2Y             9.6393273732       12.8763482979       12.1691695693  MEMB      15              0.0000000000
      1496        15  SAPS      C23            14.0503390244        8.7753873786       14.3262296653  MEMB      15              0.0000000000
      1497        15  SAPS      H3R            13.7159177130        9.1041227957       13.3190470625  MEMB      15              0.0000000000
      1498        15  SAPS      H3S            13.3886238749        8.0015196935       14.7707325676  MEMB      15              0.0000000000
      1499        15  SAPS      C24            15.3121701921        7.8159711703       14.0612908579  MEMB      15              0.0000000000
      1500        15  SAPS      H4R            15.0093618077        7.1062208245       13.2619898427  MEMB      15              0.0000000000
      1501        15  SAPS      H4S            15.5364206873        7.0689522225       14.8524898302  MEMB      15              0.0000000000
      1502        15  SAPS      C25            16.4018272702        8.5074464594       13.3194175558  MEMB      15              0.0000000000
      1503        15  SAPS      H5R            17.2499550567        8.7410414652       13.9798058626  MEMB      15              0.0000000000
      1504        15  SAPS      C26            16.4319701274        8.9532639309       11.9869257304  MEMB      15              0.0000000000
      1505        15  SAPS      H6R            17.3523786020        9.4482333230       11.6436275557  MEMB      15              0.0000000000
      1506        15  SAPS      C27            15.3764692295        8.8133158342       10.9510611982  MEMB      15              0.0000000000
      1507        15  SAPS      H7R            14.9682509616        9.8146046891       10.6959155697  MEMB      15              0.0000000000
      1508        15  SAPS      H7S            14.5542948203        8.2285229284       11.4162148831  MEMB      15              0.0000000000
      1509        15  SAPS      C28            15.8711746695        8.1608453112        9.6856271589  MEMB      15              0.0000000000
      1510        15  SAPS      H8R            16.4367382962        7.2472680967        9.9212417743  MEMB      15              0.0000000000
      1511        15  SAPS      C29            15.7405024837        8.6032122705        8.4239559162  MEMB      15              0.0000000000
      1512        15  SAPS      H9R            16.1342406078        7.9222962114        7.6549803470  MEMB      15              0.0000000000
      1513        15  SAPS      C210           15.1574582168        9.8102787600        7.7451485540  MEMB      15              0.0000000000
      1514        15  SAPS      H10R           14.3959984999       10.2870351162        8.3987564990  MEMB      15              0.0000000000
      1515        15  SAPS      H10S           14.5178859773        9.6116209010        6.8586926589  MEMB      15              0.0000000000
      1516        15  SAPS      C211           16.2463608776       10.7139229100        7.3352067576  MEMB      15              0.0000000000
      1517        15  SAPS      H11R           17.2175701948       10.2705014216        7.0703851155  MEMB      15              0.0000000000
      1518        15  SAPS      C212           16.1166316831       12.0144015265        7.2727303472  MEMB      15              0.0000000000
      1519        15  SAPS      H12R           17.0104404767       12.5289678046        6.8902017790  MEMB      15              0.0000000000
      1520        15  SAPS      C213           14.8672448470       12.8661169297        7.6412504111  MEMB      15              0.0000000000
      1521        15  SAPS      H13R           15.0825454157       13.4281895153        8.5750820032  MEMB      15              0.0000000000
      1522        15  SAPS      H13S           13.9964522028       12.2203832774        7.8842921978  MEMB      15              0.0000000000
      1523        15  SAPS      C214           14.5704234569       13.8859344169        6.5416973365  MEMB      15              0.0000000000
      1524        15  SAPS      H14R           15.4025225701       14.1114432775        5.8585017468  MEMB      15              0.0000000000
      1525        15  SAPS      C215           13.3334630940       14.2545203517        6.3286319175  MEMB      15              0.0000000000
      1526        15  SAPS      H15R           13.3343508602       15.0643104290        5.5841593431  MEMB      15              0.0000000000
      1527        15  SAPS      C216           12.0697358332       13.8379105404        6.9302368961  MEMB      15              0.0000000000
      1528        15  SAPS      H16R           11.6261480379       14.7267776420        7.4276964298  MEMB      15              0.0000000000
      1529        15  SAPS      H16S           12.2288102769       13.1273383361        7.7693457491  MEMB      15              0.0000000000
      1530        15  SAPS      C217           11.0659691883       13.3354889559        5.8876157050  MEMB      15              0.0000000000
      1531        15  SAPS      H17R           10.8455723792       14.1955533014        5.2197560775  MEMB      15              0.0000000000
      1532        15  SAPS      H17S           10.0646471152       13.2464452348        6.3606333565  MEMB      15              0.0000000000
      1533        15  SAPS      C218           11.5557355471       12.1698607102        5.1148647332  MEMB      15              0.0000000000
      1534        15  SAPS      H18R           10.8581469061       11.3369271397        4.8826736252  MEMB      15              0.0000000000
      1535        15  SAPS      H18S           12.4216535551       11.6867177607        5.6159434695  MEMB      15              0.0000000000
      1536        15  SAPS      C219           12.1567232533       12.5802187747        3.7001438560  MEMB      15              0.0000000000
      1537        15  SAPS      H19R           12.9287683940       13.3608418022        3.8701288784  MEMB      15              0.0000000000
      1538        15  SAPS      H19S           11.3556057202       13.0360814614        3.0798861588  MEMB      15              0.0000000000
      1539        15  SAPS      C220           12.7383557533       11.4741325199        2.7778936172  MEMB      15              0.0000000000
      1540        15  SAPS      H20R           13.3440949539       12.0364123723        2.0354358807  MEMB      15              0.0000000000
      1541        15  SAPS      H20S           12.0433764931       10.7795642738        2.2593373302  MEMB      15              0.0000000000
      1542        15  SAPS      H20T           13.4344975650       10.7841204468        3.3009522483  MEMB      15              0.0000000000
      1543        15  SAPS      C33            11.3329038403       13.3093429376       10.6803846418  MEMB      15              0.0000000000
      1544        15  SAPS      H3X            12.1793032210       14.0174483227       10.5518732620  MEMB      15              0.0000000000
      1545        15  SAPS      H3Y            10.6098643439       13.4975368461        9.8581209553  MEMB      15              0.0000000000
      1546        15  SAPS      C34            11.7770178458       11.8052160352       10.7004728625  MEMB      15              0.0000000000
      1547        15  SAPS      H4X            12.0563510312       11.6689605885       11.7671158854  MEMB      15              0.0000000000
      1548        15  SAPS      H4Y            12.6806538859       11.6942301830       10.0637270600  MEMB      15              0.0000000000
      1549        15  SAPS      C35            10.7209132228       10.7263115889       10.2801835962  MEMB      15              0.0000000000
      1550        15  SAPS      H5X             9.9226488790       11.1438845959        9.6300082348  MEMB      15              0.0000000000
      1551        15  SAPS      H5Y            10.2442365002       10.3595576544       11.2143099017  MEMB      15              0.0000000000
      1552        15  SAPS      C36            11.3862326425        9.5166075540        9.5692339931  MEMB      15              0.0000000000
      1553        15  SAPS      H6X            12.0386401619        9.1002848339       10.3663293555  MEMB      15              0.0000000000
      1554        15  SAPS      H6Y            12.0074622706       10.0125689895        8.7930789429  MEMB      15              0.0000000000
      1555        15  SAPS      C37            10.3835811698        8.5402620290        8.9577970207  MEMB      15              0.0000000000
      1556        15  SAPS      H7X             9.7643766135        8.1425860117        9.7901188452  MEMB      15              0.0000000000
      1557        15  SAPS      H7Y            10.9724006545        7.6898239547        8.5523737579  MEMB      15              0.0000000000
      1558        15  SAPS      C38             9.4505121291        9.0112899307        7.8096865596  MEMB      15              0.0000000000
      1559        15  SAPS      H8X             8.8382043987        9.8682398263        8.1632927458  MEMB      15              0.0000000000
      1560        15  SAPS      H8Y             8.7050944750        8.1965193944        7.6879394364  MEMB      15              0.0000000000
      1561        15  SAPS      C39            10.1227916586        9.2834813202        6.5433402886  MEMB      15              0.0000000000
      1562        15  SAPS      H9X            10.7988163116       10.1586254132        6.6502706637  MEMB      15              0.0000000000
      1563        15  SAPS      H9Y             9.3724948892        9.4980000753        5.7525444565  MEMB      15              0.0000000000
      1564        15  SAPS      C310           10.9851046378        8.0664216349        6.0054323825  MEMB      15              0.0000000000
      1565        15  SAPS      H10X           10.5362777766        7.0529837950        6.0817125014  MEMB      15              0.0000000000
      1566        15  SAPS      H10Y           11.9148432717        8.1172874118        6.6115015656  MEMB      15              0.0000000000
      1567        15  SAPS      C311           11.5800913043        8.2670507827        4.5517409353  MEMB      15              0.0000000000
      1568        15  SAPS      H11X           12.4173432554        8.9927254802        4.6337540931  MEMB      15              0.0000000000
      1569        15  SAPS      H11Y           10.7741824458        8.6630222142        3.8974941919  MEMB      15              0.0000000000
      1570        15  SAPS      C312           12.1383701588        6.9349808565        4.0213778460  MEMB      15              0.0000000000
      1571        15  SAPS      H12X           12.4809783066        7.1736810099        2.9918330113  MEMB      15              0.0000000000
      1572        15  SAPS      H12Y           11.2440179238        6.2830478123        3.9242261763  MEMB      15              0.0000000000
      1573        15  SAPS      C313           13.2335732217        6.2039527441        4.7430805724  MEMB      15              0.0000000000
      1574        15  SAPS      H13X           13.4591820335        5.3061392292        4.1287908784  MEMB      15              0.0000000000
      1575        15  SAPS      H13Y           12.7850584332        5.8776590044        5.7057271660  MEMB      15              0.0000000000
      1576        15  SAPS      C314           14.5123904784        7.0017876545        5.0957354294  MEMB      15              0.0000000000
      1577        15  SAPS      H14X           15.1431199462        6.4034726247        5.7874874027  MEMB      15              0.0000000000
      1578        15  SAPS      H14Y           14.2302110862        7.9619113987        5.5782894158  MEMB      15              0.0000000000
      1579        15  SAPS      C315           15.4993036341        7.3317255735        3.9719765259  MEMB      15              0.0000000000
      1580        15  SAPS      H15X           14.8930032818        7.6357067563        3.0920236358  MEMB      15              0.0000000000
      1581        15  SAPS      H15Y           16.0597864130        6.3996991376        3.7450248348  MEMB      15              0.0000000000
      1582        15  SAPS      C316           16.4299947571        8.5410058949        4.2094626919  MEMB      15              0.0000000000
      1583        15  SAPS      H16X           17.3055938903        8.3381521199        4.8625297639  MEMB      15              0.0000000000
      1584        15  SAPS      H16Y           15.8641279697        9.3650286688        4.6943358871  MEMB      15              0.0000000000
      1585        15  SAPS      C317           16.9131811864        9.2643862364        2.9423453617  MEMB      15              0.0000000000
      1586        15  SAPS      H17X           16.2891633097        8.7947698097        2.1521674064  MEMB      15              0.0000000000
      1587        15  SAPS      H17Y           18.0142843721        9.1684891410        2.8296669875  MEMB      15              0.0000000000
      1588        15  SAPS      C318           16.7038238616       10.8156214464        3.0449475206  MEMB      15              0.0000000000
      1589        15  SAPS      H18X           16.8562429067       11.2431748540        2.0309021356  MEMB      15              0.0000000000
      1590        15  SAPS      H18Y           17.3917016640       11.1099984826        3.8662197405  MEMB      15              0.0000000000
      1591        15  SAPS      H18Z           15.6712790675       11.1017067147        3.3387631227  MEMB      15              0.0000000000
      1592        16  OSM       N              -0.6271125122       18.1408452223       20.1208473094  MEMB      16              0.0000000000
      1593        16  OSM       C15            -1.3102984720       18.5094949057       21.4453287161  MEMB      16              0.0000000000
      1594        16  OSM       H15A           -2.2622093240       18.0023633561       21.3898012111  MEMB      16              0.0000000000
      1595        16  OSM       H15B           -1.4834851155       19.5753212996       21.4658346794  MEMB      16              0.0000000000
      1596        16  OSM       H15C           -0.6712001715       18.1179578573       22.2229225494  MEMB      16              0.0000000000
      1597        16  OSM       C14            -1.4526804763       18.6436792033       18.9845381127  MEMB      16              0.0000000000
      1598        16  OSM       H14A           -2.1269092866       17.8194551539       18.8043430784  MEMB      16              0.0000000000
      1599        16  OSM       H14B           -0.8246428593       18.9573787513       18.1638304696  MEMB      16              0.0000000000
      1600        16  OSM       H14C           -2.0010276594       19.5010368704       19.3459979258  MEMB      16              0.0000000000
      1601        16  OSM       C13             0.7581566004       18.7472662847       20.1183622322  MEMB      16              0.0000000000
      1602        16  OSM       H13A            1.5118384689       18.1306579135       20.5854357427  MEMB      16              0.0000000000
      1603        16  OSM       H13B            0.7761391561       19.6945622915       20.6367317386  MEMB      16              0.0000000000
      1604        16  OSM       H13C            1.0511478519       18.9395484407       19.0968027781  MEMB      16              0.0000000000
      1605        16  OSM       C12            -0.5192352591       16.6420270593       20.0207931190  MEMB      16              0.0000000000
      1606        16  OSM       H12A            0.1280130643       16.3903575080       19.1936703967  MEMB      16              0.0000000000
      1607        16  OSM       H12B           -1.5154187608       16.2766484182       19.8195048643  MEMB      16              0.0000000000
      1608        16  OSM       C11            -0.2064329111       15.8213192885       21.3303667444  MEMB      16              0.0000000000
      1609        16  OSM       H11A           -0.0778669912       14.7789016833       20.9682101468  MEMB      16              0.0000000000
      1610        16  OSM       H11B           -1.0122688629       15.8468577229       22.0947600852  MEMB      16              0.0000000000
      1611        16  OSM       P               2.3643386341       15.6713734796       21.8472468650  MEMB      16              0.0000000000
      1612        16  OSM       O13             3.3337223350       16.5176633444       22.5393216438  MEMB      16              0.0000000000
      1613        16  OSM       O14             2.2313925884       14.2901210182       22.3530000498  MEMB      16              0.0000000000
      1614        16  OSM       O11             2.6168341145       15.6744211122       20.3388572759  MEMB      16              0.0000000000
      1615        16  OSM       O12             0.9857408000       16.3944007806       21.9013379645  MEMB      16              0.0000000000
      1616        16  OSM       C1S             3.6722943564       16.2381510167       19.6338828828  MEMB      16              0.0000000000
      1617        16  OSM       H1S             4.6434282355       16.1902709429       20.1714023988  MEMB      16              0.0000000000
      1618        16  OSM       H1T             3.4828780354       17.3232028206       19.4886066317  MEMB      16              0.0000000000
      1619        16  OSM       NF              2.6984310827       16.2319567669       17.4219069969  MEMB      16              0.0000000000
      1620        16  OSM       HNF             1.9063421530       15.6304466404       17.3526996482  MEMB      16              0.0000000000
      1621        16  OSM       C2S             3.8145312178       15.7256650032       18.1701253750  MEMB      16              0.0000000000
      1622        16  OSM       H2S             4.8059446101       16.1170744082       17.8567259068  MEMB      16              0.0000000000
      1623        16  OSM       C3S             3.7364540952       14.2046589564       18.2103461491  MEMB      16              0.0000000000
      1624        16  OSM       H3S             2.8247510649       13.8103459594       18.7079765042  MEMB      16              0.0000000000
      1625        16  OSM       O3              4.7930659233       13.7264670338       18.9862353208  MEMB      16              0.0000000000
      1626        16  OSM       HO3             5.2455475797       14.4591885365       19.4104749516  MEMB      16              0.0000000000
      1627        16  OSM       C4S             3.8658734357       13.6394076019       16.7992949526  MEMB      16              0.0000000000
      1628        16  OSM       H4S             4.8503963165       13.7515347448       16.3216531057  MEMB      16              0.0000000000
      1629        16  OSM       C5S             2.9746472290       12.8888093061       16.1636678672  MEMB      16              0.0000000000
      1630        16  OSM       H5S             2.0482190503       12.6257870613       16.6952223807  MEMB      16              0.0000000000
      1631        16  OSM       C6S             3.2814184736       12.3569353293       14.8189515053  MEMB      16              0.0000000000
      1632        16  OSM       H6S             2.9011720030       11.3136515392       14.8549023287  MEMB      16              0.0000000000
      1633        16  OSM       H6T             4.3605637210       12.2127195476       14.5976625131  MEMB      16              0.0000000000
      1634        16  OSM       C7S             2.7001325907       13.3110848832       13.7129238244  MEMB      16              0.0000000000
      1635        16  OSM       H7S             2.7735174536       12.8042856283       12.7269774121  MEMB      16              0.0000000000
      1636        16  OSM       H7T             3.3386419859       14.2202588443       13.7183827702  MEMB      16              0.0000000000
      1637        16  OSM       C8S             1.2010201203       13.7112924723       13.7207980670  MEMB      16              0.0000000000
      1638        16  OSM       H8S             1.0521095393       14.2767019767       14.6654986450  MEMB      16              0.0000000000
      1639        16  OSM       H8T             0.6125723584       12.7792435579       13.8598494571  MEMB      16              0.0000000000
      1640        16  OSM       C9S             0.7158052249       14.4566649849       12.4861322520  MEMB      16              0.0000000000
      1641        16  OSM       H9S             1.5311459002       14.9818166277       11.9441395171  MEMB      16              0.0000000000
      1642        16  OSM       H9T            -0.0129220426       15.2336011488       12.8018029155  MEMB      16              0.0000000000
      1643        16  OSM       C10S            0.1186195986       13.4623169608       11.5067822315  MEMB      16              0.0000000000
      1644        16  OSM       H10S           -0.7773240341       13.0173737568       11.9901361604  MEMB      16              0.0000000000
      1645        16  OSM       H10T            0.9577508025       12.7740307490       11.2692077504  MEMB      16              0.0000000000
      1646        16  OSM       C11S           -0.0731943336       13.9915029376       10.0770550346  MEMB      16              0.0000000000
      1647        16  OSM       H11S           -0.6428148129       14.9452638846       10.0909790399  MEMB      16              0.0000000000
      1648        16  OSM       H11T           -0.6961677989       13.3435666209        9.4240588990  MEMB      16              0.0000000000
      1649        16  OSM       C12S            1.3199933338       14.1003944110        9.2501041593  MEMB      16              0.0000000000
      1650        16  OSM       H12S            1.7549169674       13.0797097806        9.1920889446  MEMB      16              0.0000000000
      1651        16  OSM       H12T            2.0529215311       14.6741977625        9.8566405845  MEMB      16              0.0000000000
      1652        16  OSM       C13S            1.0468730848       14.6465607455        7.8758759942  MEMB      16              0.0000000000
      1653        16  OSM       H13S            0.5260525347       15.6274151774        7.8443889155  MEMB      16              0.0000000000
      1654        16  OSM       H13T            0.4306172275       13.9725939588        7.2431690571  MEMB      16              0.0000000000
      1655        16  OSM       C14S            2.3567114130       14.7314004550        7.0553659793  MEMB      16              0.0000000000
      1656        16  OSM       H14S            2.8629273494       13.8138198309        7.4243004330  MEMB      16              0.0000000000
      1657        16  OSM       H14T            2.9571979912       15.6411899074        7.2698888862  MEMB      16              0.0000000000
      1658        16  OSM       C15S            2.2984840225       14.6782495266        5.4704362018  MEMB      16              0.0000000000
      1659        16  OSM       H15S            1.6758734497       13.7844108440        5.2519645901  MEMB      16              0.0000000000
      1660        16  OSM       H15T            3.3209343030       14.5541303348        5.0538895159  MEMB      16              0.0000000000
      1661        16  OSM       C16S            1.6139257474       15.9776446291        4.8462675553  MEMB      16              0.0000000000
      1662        16  OSM       H16S            2.1482635435       16.7617438787        5.4241889977  MEMB      16              0.0000000000
      1663        16  OSM       H16T            0.5754006551       16.0686776718        5.2303244583  MEMB      16              0.0000000000
      1664        16  OSM       C17S            1.6333294662       16.1277560969        3.3199809747  MEMB      16              0.0000000000
      1665        16  OSM       H17S            2.6723915117       16.4421180498        3.0836618145  MEMB      16              0.0000000000
      1666        16  OSM       H17T            0.8303617587       16.8816403991        3.1743018054  MEMB      16              0.0000000000
      1667        16  OSM       C18S            1.2722299052       14.8767632473        2.4681536778  MEMB      16              0.0000000000
      1668        16  OSM       H18S            0.8793234611       15.1798692737        1.4741348576  MEMB      16              0.0000000000
      1669        16  OSM       H18T            0.3823078283       14.3882678149        2.9195203300  MEMB      16              0.0000000000
      1670        16  OSM       H18U            2.1199664283       14.1590575360        2.4444393481  MEMB      16              0.0000000000
      1671        16  OSM       C1F             2.5046673578       17.5173701332       17.0387820099  MEMB      16              0.0000000000
      1672        16  OSM       OF              3.2838988055       18.4078480187       17.3869656914  MEMB      16              0.0000000000
      1673        16  OSM       C2F             1.2284949258       17.6877225360       16.2927793143  MEMB      16              0.0000000000
      1674        16  OSM       H2F             0.3468834236       17.6978785006       16.9687816150  MEMB      16              0.0000000000
      1675        16  OSM       H2G             1.0672275440       16.8068374194       15.6352422525  MEMB      16              0.0000000000
      1676        16  OSM       C3F             1.2727407244       19.1361396812       15.6280749880  MEMB      16              0.0000000000
      1677        16  OSM       H3F             2.2932163796       19.3615385781       15.2510525832  MEMB      16              0.0000000000
      1678        16  OSM       H3G             1.1027792070       19.8355361916       16.4744076783  MEMB      16              0.0000000000
      1679        16  OSM       C4F             0.2877355000       19.3540368619       14.4770857114  MEMB      16              0.0000000000
      1680        16  OSM       H4F             0.3032406061       20.4295441999       14.1989400162  MEMB      16              0.0000000000
      1681        16  OSM       H4G            -0.7242534067       18.9557216474       14.7041195632  MEMB      16              0.0000000000
      1682        16  OSM       C5F             0.8401239061       18.6960359638       13.1606493269  MEMB      16              0.0000000000
      1683        16  OSM       H5F             0.9679811503       17.6176554898       13.3953179533  MEMB      16              0.0000000000
      1684        16  OSM       H5G             1.8870292529       19.0652039179       13.1156463487  MEMB      16              0.0000000000
      1685        16  OSM       C6F            -0.0118500559       19.0410788874       11.9338360876  MEMB      16              0.0000000000
      1686        16  OSM       H6F             0.0697226992       20.1357634915       11.7625685422  MEMB      16              0.0000000000
      1687        16  OSM       H6G            -1.0822905722       18.8636318238       12.1725628342  MEMB      16              0.0000000000
      1688        16  OSM       C7F             0.4633997226       18.3790804848       10.6621627770  MEMB      16              0.0000000000
      1689        16  OSM       H7F            -0.1725330449       18.6282892443        9.7859172150  MEMB      16              0.0000000000
      1690        16  OSM       H7G             0.6463586785       17.3063917043       10.8861851064  MEMB      16              0.0000000000
      1691        16  OSM       C8F             1.8509273888       18.9879471121       10.1668532400  MEMB      16              0.0000000000
      1692        16  OSM       H8F             2.5403626048       18.9246712926       11.0357585054  MEMB      16              0.0000000000
      1693        16  OSM       H8G             1.7253194988       20.0592219514        9.9005582754  MEMB      16              0.0000000000
      1694        16  OSM       C9F             2.5162397997       18.1742179430        9.0668637131  MEMB      16              0.0000000000
      1695        16  OSM       H9F             2.3866302060       17.0821913913        9.0929299411  MEMB      16              0.0000000000
      1696        16  OSM       C10F            3.1072128665       18.7126714167        7.9708278223  MEMB      16              0.0000000000
      1697        16  OSM       H10F            3.4097601796       17.9331479726        7.2561193072  MEMB      16              0.0000000000
      1698        16  OSM       C11F            3.2141150292       20.1644377500        7.5079388517  MEMB      16              0.0000000000
      1699        16  OSM       H11F            4.2728912162       20.3493614890        7.2266617159  MEMB      16              0.0000000000
      1700        16  OSM       H11G            2.9965697426       20.8837750021        8.3261987845  MEMB      16              0.0000000000
      1701        16  OSM       C12F            2.2153150660       20.5077111170        6.4153034100  MEMB      16              0.0000000000
      1702        16  OSM       H12F            2.5165708003       20.0042261093        5.4718684490  MEMB      16              0.0000000000
      1703        16  OSM       H12G            2.3392027951       21.5475666085        6.0442586742  MEMB      16              0.0000000000
      1704        16  OSM       C13F            0.6937040846       20.3870510301        6.8413578819  MEMB      16              0.0000000000
      1705        16  OSM       H13F            0.4311356529       21.1402085621        7.6147478145  MEMB      16              0.0000000000
      1706        16  OSM       H13G            0.5715720709       19.3607236017        7.2488587778  MEMB      16              0.0000000000
      1707        16  OSM       C14F           -0.2882971369       20.5723199978        5.7156980044  MEMB      16              0.0000000000
      1708        16  OSM       H14F            0.0874146789       21.3699294378        5.0396943056  MEMB      16              0.0000000000
      1709        16  OSM       H14G           -1.3044888571       20.7415653642        6.1316682451  MEMB      16              0.0000000000
      1710        16  OSM       C15F           -0.4447054548       19.2504707323        4.9890605470  MEMB      16              0.0000000000
      1711        16  OSM       H15F           -0.7026898223       18.4509278865        5.7160368106  MEMB      16              0.0000000000
      1712        16  OSM       H15G            0.3596576771       18.9453622209        4.2860457576  MEMB      16              0.0000000000
      1713        16  OSM       C16F           -1.5049950114       19.4093484168        3.8908281129  MEMB      16              0.0000000000
      1714        16  OSM       H16F           -2.4590985459       19.7396360583        4.3544203019  MEMB      16              0.0000000000
      1715        16  OSM       H16G           -1.6831317032       18.4429177932        3.3725618482  MEMB      16              0.0000000000
      1716        16  OSM       C17F           -1.2103125928       20.4762658456        2.7961322076  MEMB      16              0.0000000000
      1717        16  OSM       H17F           -0.1648494088       20.2997734054        2.4642016255  MEMB      16              0.0000000000
      1718        16  OSM       H17G           -1.2555375297       21.4538113136        3.3221359804  MEMB      16              0.0000000000
      1719        16  OSM       C18F           -2.1765655603       20.2338907543        1.6404263063  MEMB      16              0.0000000000
      1720        16  OSM       H18F           -1.9913729761       20.9736475395        0.8324757175  MEMB      16              0.0000000000
      1721        16  OSM       H18G           -3.2496414633       20.2584346336        1.9271782676  MEMB      16              0.0000000000
      1722        16  OSM       H18H           -2.0091827035       19.2307337880        1.1932357057  MEMB      16              0.0000000000
      1723        17  CHL1      C3            -14.1268200224       -9.4932282389       17.3994500000  MEMB      17              0.0000000000
      1724        17  CHL1      H3            -13.0749920320       -9.8477388474       17.4473900000  MEMB      17              0.0000000000
      1725        17  CHL1      O3            -14.7950201776       -9.8069052211       18.6005500000  MEMB      17              0.0000000000
      1726        17  CHL1      H3'           -15.5417412326       -9.2038815480       18.5812500000  MEMB      17              0.0000000000
      1727        17  CHL1      C4            -14.1124797093       -7.9430736253       17.2502900000  MEMB      17              0.0000000000
      1728        17  CHL1      H4A           -15.1117264632       -7.5019171163       17.4532600000  MEMB      17              0.0000000000
      1729        17  CHL1      H4B           -13.5859884987       -7.5480593830       18.1453300000  MEMB      17              0.0000000000
      1730        17  CHL1      C5            -13.4303308515       -7.5684664231       15.9281000000  MEMB      17              0.0000000000
      1731        17  CHL1      C6            -12.3680214124       -6.7260553867       15.9734800000  MEMB      17              0.0000000000
      1732        17  CHL1      H6            -11.8961231953       -6.3686182806       16.9006000000  MEMB      17              0.0000000000
      1733        17  CHL1      C7            -11.5946921290       -6.2415940701       14.7457800000  MEMB      17              0.0000000000
      1734        17  CHL1      H7A           -11.4245574165       -5.1568787117       14.9153500000  MEMB      17              0.0000000000
      1735        17  CHL1      H7B           -10.6794211066       -6.7823773340       14.4230500000  MEMB      17              0.0000000000
      1736        17  CHL1      C8            -12.5970949657       -6.4201530294       13.4925500000  MEMB      17              0.0000000000
      1737        17  CHL1      H8            -13.2900591620       -5.5598080337       13.6105500000  MEMB      17              0.0000000000
      1738        17  CHL1      C14           -11.7435994871       -6.2260956447       12.2010700000  MEMB      17              0.0000000000
      1739        17  CHL1      H14           -11.0975669341       -7.1267384772       12.2772400000  MEMB      17              0.0000000000
      1740        17  CHL1      C15           -10.7937003210       -4.9534759871       12.0313900000  MEMB      17              0.0000000000
      1741        17  CHL1      H15A          -11.2982005486       -4.0298711978       12.3873900000  MEMB      17              0.0000000000
      1742        17  CHL1      H15B           -9.7988741443       -5.2475224522       12.4291300000  MEMB      17              0.0000000000
      1743        17  CHL1      C16           -10.6736537715       -4.8815697117       10.4844600000  MEMB      17              0.0000000000
      1744        17  CHL1      H16A          -11.1048062068       -3.8988483057       10.1969300000  MEMB      17              0.0000000000
      1745        17  CHL1      H16B           -9.6213061460       -5.0550694164       10.1733500000  MEMB      17              0.0000000000
      1746        17  CHL1      C17           -11.4363954464       -6.0538067806        9.8937700000  MEMB      17              0.0000000000
      1747        17  CHL1      H17           -10.7205825817       -6.8964227590       10.0030300000  MEMB      17              0.0000000000
      1748        17  CHL1      C13           -12.5616437511       -6.3716107305       10.9280400000  MEMB      17              0.0000000000
      1749        17  CHL1      C18           -13.6719365499       -5.2266868043       10.8027900000  MEMB      17              0.0000000000
      1750        17  CHL1      H18A          -14.4273852119       -5.3243331091       11.6115500000  MEMB      17              0.0000000000
      1751        17  CHL1      H18B          -13.2389238946       -4.2035544450       10.8068900000  MEMB      17              0.0000000000
      1752        17  CHL1      H18C          -14.1755691785       -5.4429825313        9.8364000000  MEMB      17              0.0000000000
      1753        17  CHL1      C12           -13.1962269596       -7.8097317988       10.8380100000  MEMB      17              0.0000000000
      1754        17  CHL1      H12A          -13.9119198590       -7.8231957405        9.9883600000  MEMB      17              0.0000000000
      1755        17  CHL1      H12B          -12.4247600626       -8.5872934962       10.6520700000  MEMB      17              0.0000000000
      1756        17  CHL1      C11           -14.0975083634       -7.9878528146       12.1565500000  MEMB      17              0.0000000000
      1757        17  CHL1      H11A          -15.0486610457       -7.4345956189       12.0030700000  MEMB      17              0.0000000000
      1758        17  CHL1      H11B          -14.4920884587       -9.0263742232       12.1467900000  MEMB      17              0.0000000000
      1759        17  CHL1      C9            -13.3007268988       -7.7633075583       13.4401200000  MEMB      17              0.0000000000
      1760        17  CHL1      H9            -12.4349189043       -8.4446161174       13.2968800000  MEMB      17              0.0000000000
      1761        17  CHL1      C10           -14.1544702567       -8.1588102822       14.6933100000  MEMB      17              0.0000000000
      1762        17  CHL1      C19           -15.5255556264       -7.3899191525       14.6072400000  MEMB      17              0.0000000000
      1763        17  CHL1      H19A          -16.2158439283       -7.9740669396       13.9618000000  MEMB      17              0.0000000000
      1764        17  CHL1      H19B          -16.0396697255       -7.3401592776       15.5908700000  MEMB      17              0.0000000000
      1765        17  CHL1      H19C          -15.4069152707       -6.3328385135       14.2865800000  MEMB      17              0.0000000000
      1766        17  CHL1      C1            -14.3139734616       -9.6991188125       14.7896700000  MEMB      17              0.0000000000
      1767        17  CHL1      H1A           -14.9521396685       -9.9475076538       13.9148100000  MEMB      17              0.0000000000
      1768        17  CHL1      H1B           -13.2745526268      -10.0914412470       14.7888700000  MEMB      17              0.0000000000
      1769        17  CHL1      C2            -14.8392188100      -10.0507032191       16.1749500000  MEMB      17              0.0000000000
      1770        17  CHL1      H2A           -14.8314176764      -11.1592493369       16.2484600000  MEMB      17              0.0000000000
      1771        17  CHL1      H2B           -15.8678604330       -9.6363709710       16.2424100000  MEMB      17              0.0000000000
      1772        17  CHL1      C20           -11.8094565438       -6.0070556719        8.3212800000  MEMB      17              0.0000000000
      1773        17  CHL1      H20           -12.7615109386       -5.4436143849        8.2190300000  MEMB      17              0.0000000000
      1774        17  CHL1      C21           -11.9390415887       -7.3740331966        7.6683200000  MEMB      17              0.0000000000
      1775        17  CHL1      H21A          -12.1481537515       -7.3432019179        6.5776100000  MEMB      17              0.0000000000
      1776        17  CHL1      H21B          -12.6446159620       -8.0219064576        8.2311200000  MEMB      17              0.0000000000
      1777        17  CHL1      H21C          -10.9730136882       -7.9141575790        7.7651500000  MEMB      17              0.0000000000
      1778        17  CHL1      C22           -10.6586659537       -5.2056489659        7.5761500000  MEMB      17              0.0000000000
      1779        17  CHL1      H22A          -10.6689165828       -4.1595572512        7.9502000000  MEMB      17              0.0000000000
      1780        17  CHL1      H22B           -9.6442451178       -5.6502902179        7.6631800000  MEMB      17              0.0000000000
      1781        17  CHL1      C23           -10.9156033128       -5.1018430245        6.0296100000  MEMB      17              0.0000000000
      1782        17  CHL1      H23A          -10.7779197421       -6.1063231450        5.5753000000  MEMB      17              0.0000000000
      1783        17  CHL1      H23B          -11.9708287560       -4.8045167549        5.8495500000  MEMB      17              0.0000000000
      1784        17  CHL1      C24           -10.0058793575       -4.0021678393        5.4366800000  MEMB      17              0.0000000000
      1785        17  CHL1      H24A          -10.3748930473       -2.9794965084        5.6653500000  MEMB      17              0.0000000000
      1786        17  CHL1      H24B           -9.0500946143       -4.1920956132        5.9702800000  MEMB      17              0.0000000000
      1787        17  CHL1      C25           -10.0540567223       -4.1964509699        3.9363500000  MEMB      17              0.0000000000
      1788        17  CHL1      H25            -9.8238966760       -5.2364400426        3.6204900000  MEMB      17              0.0000000000
      1789        17  CHL1      C26           -11.3972329698       -3.9448256685        3.2624300000  MEMB      17              0.0000000000
      1790        17  CHL1      H26A          -11.3060235887       -3.9930741525        2.1562300000  MEMB      17              0.0000000000
      1791        17  CHL1      H26B          -12.1634971800       -4.6628128125        3.6252800000  MEMB      17              0.0000000000
      1792        17  CHL1      H26C          -11.7351671366       -2.9540495355        3.6345700000  MEMB      17              0.0000000000
      1793        17  CHL1      C27            -9.1258500550       -3.1875462114        3.2424200000  MEMB      17              0.0000000000
      1794        17  CHL1      H27A           -9.2408331863       -3.2333808874        2.1383300000  MEMB      17              0.0000000000
      1795        17  CHL1      H27B           -9.5205872764       -2.1917304557        3.5371400000  MEMB      17              0.0000000000
      1796        17  CHL1      H27C           -8.1057823116       -3.1974167433        3.6825000000  MEMB      17              0.0000000000
      1797        18  CHL1      C3             17.4383359829        2.9655707458       17.2814150000  MEMB      18              0.0000000000
      1798        18  CHL1      H3             17.1233137378        4.0300599762       17.2372050000  MEMB      18              0.0000000000
      1799        18  CHL1      O3             17.5290564171        2.7169299742       18.7185850000  MEMB      18              0.0000000000
      1800        18  CHL1      H3'            16.6295377597        2.4263865475       18.8860350000  MEMB      18              0.0000000000
      1801        18  CHL1      C4             16.4541644302        1.9593994467       16.7560550000  MEMB      18              0.0000000000
      1802        18  CHL1      H4A            16.7444400461        1.0364472604       17.3021550000  MEMB      18              0.0000000000
      1803        18  CHL1      H4B            15.4107002714        2.2234226500       17.0313250000  MEMB      18              0.0000000000
      1804        18  CHL1      C5             16.5545946575        1.6728928380       15.2559050000  MEMB      18              0.0000000000
      1805        18  CHL1      C6             15.3572654406        1.4746647468       14.5859050000  MEMB      18              0.0000000000
      1806        18  CHL1      H6             14.4315904389        1.3555242260       15.1680750000  MEMB      18              0.0000000000
      1807        18  CHL1      C7             15.3410671772        1.3184355188       13.0868850000  MEMB      18              0.0000000000
      1808        18  CHL1      H7A            14.6094010524        0.5741089526       12.7061150000  MEMB      18              0.0000000000
      1809        18  CHL1      H7B            15.1894774008        2.3181771055       12.6266150000  MEMB      18              0.0000000000
      1810        18  CHL1      C8             16.7873178932        0.9464541416       12.5147250000  MEMB      18              0.0000000000
      1811        18  CHL1      H8             16.9462043585       -0.1195014642       12.7845550000  MEMB      18              0.0000000000
      1812        18  CHL1      C14            16.7231506825        1.1229414683       11.0241550000  MEMB      18              0.0000000000
      1813        18  CHL1      H14            16.5130543281        2.2061718927       10.8945050000  MEMB      18              0.0000000000
      1814        18  CHL1      C15            15.5447820071        0.5833686540       10.1817750000  MEMB      18              0.0000000000
      1815        18  CHL1      H15A           15.3388001971       -0.4334256724       10.5793150000  MEMB      18              0.0000000000
      1816        18  CHL1      H15B           14.6488735183        1.2308000683       10.2935650000  MEMB      18              0.0000000000
      1817        18  CHL1      C16            16.0863899385        0.5363732375        8.7495150000  MEMB      18              0.0000000000
      1818        18  CHL1      H16A           16.1564653359       -0.5219498448        8.4187950000  MEMB      18              0.0000000000
      1819        18  CHL1      H16B           15.3159779863        1.0249250165        8.1154050000  MEMB      18              0.0000000000
      1820        18  CHL1      C17            17.4394568072        1.2931500058        8.7604650000  MEMB      18              0.0000000000
      1821        18  CHL1      H17            17.2374855073        2.3797025514        8.6467050000  MEMB      18              0.0000000000
      1822        18  CHL1      C13            17.9916772533        1.0423019829       10.2157850000  MEMB      18              0.0000000000
      1823        18  CHL1      C18            18.4792334094       -0.4142319574       10.2993750000  MEMB      18              0.0000000000
      1824        18  CHL1      H18A           19.3531948421       -0.6714669104        9.6635050000  MEMB      18              0.0000000000
      1825        18  CHL1      H18B           18.8518155401       -0.5560539736       11.3363850000  MEMB      18              0.0000000000
      1826        18  CHL1      H18C           17.6466523256       -1.0980135788       10.0281250000  MEMB      18              0.0000000000
      1827        18  CHL1      C12            18.9730802871        2.1589237587       10.7584950000  MEMB      18              0.0000000000
      1828        18  CHL1      H12A           19.9430158641        2.1601156056       10.2167050000  MEMB      18              0.0000000000
      1829        18  CHL1      H12B           18.5677753317        3.1812320901       10.6006450000  MEMB      18              0.0000000000
      1830        18  CHL1      C11            19.2494205687        1.9418301263       12.2862050000  MEMB      18              0.0000000000
      1831        18  CHL1      H11A           19.8636920950        1.0418386814       12.5030050000  MEMB      18              0.0000000000
      1832        18  CHL1      H11B           19.7748910978        2.8510968098       12.6487550000  MEMB      18              0.0000000000
      1833        18  CHL1      C9             17.8953366449        1.8960523560       13.0686950000  MEMB      18              0.0000000000
      1834        18  CHL1      H9             17.3287404320        2.8385283981       12.9105250000  MEMB      18              0.0000000000
      1835        18  CHL1      C10            17.9578918768        1.8001511977       14.6309850000  MEMB      18              0.0000000000
      1836        18  CHL1      C19            18.5672200061        0.3528359096       14.9188050000  MEMB      18              0.0000000000
      1837        18  CHL1      H19A           19.3968707176        0.0641438033       14.2386150000  MEMB      18              0.0000000000
      1838        18  CHL1      H19B           18.7532750700        0.1741333262       15.9994450000  MEMB      18              0.0000000000
      1839        18  CHL1      H19C           17.8016201944       -0.4188242603       14.6892250000  MEMB      18              0.0000000000
      1840        18  CHL1      C1             18.8488602366        2.9547529716       15.1947150000  MEMB      18              0.0000000000
      1841        18  CHL1      H1A            19.9117505228        2.8127865307       14.9041550000  MEMB      18              0.0000000000
      1842        18  CHL1      H1B            18.4385142851        3.9647312195       14.9805150000  MEMB      18              0.0000000000
      1843        18  CHL1      C2             18.8881827062        2.9459125027       16.7372550000  MEMB      18              0.0000000000
      1844        18  CHL1      H2A            19.5152037289        3.7643801211       17.1510950000  MEMB      18              0.0000000000
      1845        18  CHL1      H2B            19.2898174024        1.9904113236       17.1372950000  MEMB      18              0.0000000000
      1846        18  CHL1      C20            18.3315422256        0.8502262897        7.5907450000  MEMB      18              0.0000000000
      1847        18  CHL1      H20            18.5025320838       -0.2442613662        7.5060050000  MEMB      18              0.0000000000
      1848        18  CHL1      C21            19.7535425362        1.3653003533        7.5914550000  MEMB      18              0.0000000000
      1849        18  CHL1      H21A           20.2980174308        0.8222139021        8.3932750000  MEMB      18              0.0000000000
      1850        18  CHL1      H21B           19.7480238958        2.4312565498        7.9045550000  MEMB      18              0.0000000000
      1851        18  CHL1      H21C           20.2347374208        1.3082796548        6.5916850000  MEMB      18              0.0000000000
      1852        18  CHL1      C22            17.5542849983        1.1678351870        6.2997750000  MEMB      18              0.0000000000
      1853        18  CHL1      H22A           16.4782119681        0.9960233426        6.5162750000  MEMB      18              0.0000000000
      1854        18  CHL1      H22B           17.7275582327        2.2482977690        6.1076750000  MEMB      18              0.0000000000
      1855        18  CHL1      C23            18.0606792763        0.3237682294        5.1348250000  MEMB      18              0.0000000000
      1856        18  CHL1      H23A           19.1536125826        0.3865977872        4.9454450000  MEMB      18              0.0000000000
      1857        18  CHL1      H23B           17.9375173545       -0.7544849948        5.3725850000  MEMB      18              0.0000000000
      1858        18  CHL1      C24            17.3355709304        0.6693107243        3.8577050000  MEMB      18              0.0000000000
      1859        18  CHL1      H24A           16.3824120924        0.1399108965        4.0711150000  MEMB      18              0.0000000000
      1860        18  CHL1      H24B           17.1763157169        1.7688315417        3.8575850000  MEMB      18              0.0000000000
      1861        18  CHL1      C25            18.0563106269        0.1828356264        2.5587950000  MEMB      18              0.0000000000
      1862        18  CHL1      H25            18.3359979150       -0.8889458269        2.6447050000  MEMB      18              0.0000000000
      1863        18  CHL1      C26            17.1355627751        0.3392295878        1.2888450000  MEMB      18              0.0000000000
      1864        18  CHL1      H26A           16.1115496915       -0.0570636241        1.4581450000  MEMB      18              0.0000000000
      1865        18  CHL1      H26B           17.0725392582        1.4136843774        1.0133550000  MEMB      18              0.0000000000
      1866        18  CHL1      H26C           17.6256310565       -0.1337519259        0.4110850000  MEMB      18              0.0000000000
      1867        18  CHL1      C27            19.3001748061        0.9920166256        2.1756750000  MEMB      18              0.0000000000
      1868        18  CHL1      H27A           19.0418935474        2.0418288754        1.9197450000  MEMB      18              0.0000000000
      1869        18  CHL1      H27B           20.0799890869        1.1001560153        2.9595750000  MEMB      18              0.0000000000
      1870        18  CHL1      H27C           19.7483751829        0.5753563890        1.2483950000  MEMB      18              0.0000000000
      1871        19  SAPC      N              -1.9191133992      -15.7777981075       18.8390206289  MEMB      19              0.0000000000
      1872        19  SAPC      C12            -1.8136266585      -16.1922362455       20.2760542516  MEMB      19              0.0000000000
      1873        19  SAPC      H12A           -1.8838078413      -15.3374860542       20.9324663776  MEMB      19              0.0000000000
      1874        19  SAPC      H12B           -0.8466575583      -16.6457534882       20.4363441546  MEMB      19              0.0000000000
      1875        19  SAPC      C13            -1.8958748746      -16.9579933212       17.9026547331  MEMB      19              0.0000000000
      1876        19  SAPC      H13A           -2.2838805774      -16.6799928937       16.9338579218  MEMB      19              0.0000000000
      1877        19  SAPC      H13B           -0.8309603134      -17.1323904219       17.8585793497  MEMB      19              0.0000000000
      1878        19  SAPC      H13C           -2.5058132015      -17.7415927256       18.3273277497  MEMB      19              0.0000000000
      1879        19  SAPC      C14            -3.2457533231      -15.0915416478       18.6738083987  MEMB      19              0.0000000000
      1880        19  SAPC      H14A           -3.1437599383      -14.1525132547       19.1974715847  MEMB      19              0.0000000000
      1881        19  SAPC      H14B           -3.4675755052      -14.7974767472       17.6585642517  MEMB      19              0.0000000000
      1882        19  SAPC      H14C           -4.0331603863      -15.6280273913       19.1823090141  MEMB      19              0.0000000000
      1883        19  SAPC      C15            -0.7641044466      -14.9046123154       18.5746211096  MEMB      19              0.0000000000
      1884        19  SAPC      H15A           -0.9309801543      -14.4360804708       17.6159602833  MEMB      19              0.0000000000
      1885        19  SAPC      H15B           -0.5752250038      -14.0623297163       19.2236854803  MEMB      19              0.0000000000
      1886        19  SAPC      H15C            0.1025634042      -15.5475073645       18.6190370748  MEMB      19              0.0000000000
      1887        19  SAPC      C11            -2.8379961957      -17.1535081012       20.8783497407  MEMB      19              0.0000000000
      1888        19  SAPC      H11A           -3.8252367894      -16.7011126429       20.6437960217  MEMB      19              0.0000000000
      1889        19  SAPC      H11B           -2.7150672905      -17.1149976924       21.9818561383  MEMB      19              0.0000000000
      1890        19  SAPC      P              -2.6415463293      -19.8613155056       21.0551353694  MEMB      19              0.0000000000
      1891        19  SAPC      O13            -1.2794632033      -20.3683974721       20.9711565242  MEMB      19              0.0000000000
      1892        19  SAPC      O14            -3.2176399131      -19.7322160860       22.4130661114  MEMB      19              0.0000000000
      1893        19  SAPC      O12            -2.8008429228      -18.4732996142       20.3050967052  MEMB      19              0.0000000000
      1894        19  SAPC      O11            -3.4945531360      -20.7454415595       20.1110364274  MEMB      19              0.0000000000
      1895        19  SAPC      C1             -4.4110721564      -20.3747253956       19.0974999841  MEMB      19              0.0000000000
      1896        19  SAPC      HA             -5.3948845933      -20.7576122936       19.4436672349  MEMB      19              0.0000000000
      1897        19  SAPC      HB             -4.5257567573      -19.2702776655       19.0605733096  MEMB      19              0.0000000000
      1898        19  SAPC      C2             -4.2315983485      -21.1560973243       17.8073489682  MEMB      19              0.0000000000
      1899        19  SAPC      HS             -4.1456976741      -22.2035868937       18.1674980206  MEMB      19              0.0000000000
      1900        19  SAPC      O21            -3.0001607179      -20.6181943701       17.1349726213  MEMB      19              0.0000000000
      1901        19  SAPC      C21            -1.7709574900      -21.1116582991       17.4280022078  MEMB      19              0.0000000000
      1902        19  SAPC      O22            -1.5889822678      -22.0764964931       18.1941141718  MEMB      19              0.0000000000
      1903        19  SAPC      C22            -0.6255952835      -20.3976257827       16.7707613987  MEMB      19              0.0000000000
      1904        19  SAPC      H2R            -0.2112574990      -19.5640468318       17.3772195316  MEMB      19              0.0000000000
      1905        19  SAPC      H2S             0.1936227529      -21.1174629322       16.5585408770  MEMB      19              0.0000000000
      1906        19  SAPC      C3             -5.4739531818      -20.9911132215       16.8939901962  MEMB      19              0.0000000000
      1907        19  SAPC      HX             -6.4442133652      -21.3175396455       17.3256872904  MEMB      19              0.0000000000
      1908        19  SAPC      HY             -5.3037204509      -21.5151528487       15.9292498761  MEMB      19              0.0000000000
      1909        19  SAPC      O31            -5.5226226217      -19.5840914647       16.6781943583  MEMB      19              0.0000000000
      1910        19  SAPC      C31            -5.2971874450      -19.0877488557       15.4881436506  MEMB      19              0.0000000000
      1911        19  SAPC      O32            -5.0886860101      -19.7116655432       14.4430653854  MEMB      19              0.0000000000
      1912        19  SAPC      C32            -5.5523408598      -17.4727032558       15.6336710475  MEMB      19              0.0000000000
      1913        19  SAPC      H2X            -5.4361687783      -17.2199769908       16.7092891009  MEMB      19              0.0000000000
      1914        19  SAPC      H2Y            -6.5504313021      -17.1121071089       15.3048744052  MEMB      19              0.0000000000
      1915        19  SAPC      C23            -1.1162179151      -19.8406666027       15.4080242865  MEMB      19              0.0000000000
      1916        19  SAPC      H3R            -1.7788770256      -18.9634873438       15.5685247944  MEMB      19              0.0000000000
      1917        19  SAPC      H3S            -1.6262120926      -20.6615786673       14.8599997655  MEMB      19              0.0000000000
      1918        19  SAPC      C24             0.0718861931      -19.4492906188       14.5345667686  MEMB      19              0.0000000000
      1919        19  SAPC      H4R             0.7931043516      -18.8532091701       15.1336094907  MEMB      19              0.0000000000
      1920        19  SAPC      H4S            -0.2830931701      -18.7464299004       13.7507955759  MEMB      19              0.0000000000
      1921        19  SAPC      C25             0.6746810584      -20.7075286802       13.9105152833  MEMB      19              0.0000000000
      1922        19  SAPC      H5R             1.1934336254      -21.4191323335       14.5696929606  MEMB      19              0.0000000000
      1923        19  SAPC      C26             0.5610947658      -21.1428436909       12.6421145601  MEMB      19              0.0000000000
      1924        19  SAPC      H6R             1.0440463537      -22.0846448466       12.3425018289  MEMB      19              0.0000000000
      1925        19  SAPC      C27            -0.2587771447      -20.5151016188       11.4990353850  MEMB      19              0.0000000000
      1926        19  SAPC      H7R            -0.2016797722      -19.4101127737       11.5993380356  MEMB      19              0.0000000000
      1927        19  SAPC      H7S            -1.3338978203      -20.7945357318       11.5178276012  MEMB      19              0.0000000000
      1928        19  SAPC      C28             0.1904952956      -20.8355093663       10.1121700211  MEMB      19              0.0000000000
      1929        19  SAPC      H8R             1.2886135561      -20.8289133323       10.0481964499  MEMB      19              0.0000000000
      1930        19  SAPC      C29            -0.5019472135      -21.1845028423        8.9769329624  MEMB      19              0.0000000000
      1931        19  SAPC      H9R             0.1551434499      -21.3044319101        8.1029483772  MEMB      19              0.0000000000
      1932        19  SAPC      C210           -2.0068089540      -21.3017410013        8.9448590051  MEMB      19              0.0000000000
      1933        19  SAPC      H10R           -2.4208238281      -20.2997022528        8.7023073971  MEMB      19              0.0000000000
      1934        19  SAPC      H10S           -2.3412305824      -21.4853038584        9.9883084104  MEMB      19              0.0000000000
      1935        19  SAPC      C211           -2.6418227947      -22.3698109174        8.1031607704  MEMB      19              0.0000000000
      1936        19  SAPC      H11R           -1.8266248111      -23.0230297727        7.7585483977  MEMB      19              0.0000000000
      1937        19  SAPC      C212           -3.9529036500      -22.4696071277        7.8030849006  MEMB      19              0.0000000000
      1938        19  SAPC      H12R           -4.3313069881      -23.2203531557        7.0937257509  MEMB      19              0.0000000000
      1939        19  SAPC      C213           -4.9402513043      -21.4470643376        8.3075405684  MEMB      19              0.0000000000
      1940        19  SAPC      H13R           -4.4723229858      -20.4457732881        8.4205897973  MEMB      19              0.0000000000
      1941        19  SAPC      H13S           -5.2850387874      -21.7382014928        9.3227654461  MEMB      19              0.0000000000
      1942        19  SAPC      C214           -6.3292467534      -21.3257384499        7.5240890512  MEMB      19              0.0000000000
      1943        19  SAPC      H14R           -7.1859405312      -21.6973971846        8.1054195427  MEMB      19              0.0000000000
      1944        19  SAPC      C215           -6.4262668666      -20.9414213028        6.2742542782  MEMB      19              0.0000000000
      1945        19  SAPC      H15R           -7.3968933344      -20.8326087082        5.7682460077  MEMB      19              0.0000000000
      1946        19  SAPC      C216           -5.2779856106      -20.5711509994        5.3217731160  MEMB      19              0.0000000000
      1947        19  SAPC      H16R           -4.4914375124      -20.2051515776        6.0158247412  MEMB      19              0.0000000000
      1948        19  SAPC      H16S           -5.5944020771      -19.6389834071        4.8067340972  MEMB      19              0.0000000000
      1949        19  SAPC      C217           -4.8385442309      -21.7465128124        4.4385401042  MEMB      19              0.0000000000
      1950        19  SAPC      H17R           -4.8727802997      -22.6975793245        5.0117947574  MEMB      19              0.0000000000
      1951        19  SAPC      H17S           -3.8286202279      -21.4842413085        4.0569789343  MEMB      19              0.0000000000
      1952        19  SAPC      C218           -5.6453491862      -21.9664244652        3.0900176776  MEMB      19              0.0000000000
      1953        19  SAPC      H18R           -6.3770161848      -22.7910479650        3.2277876676  MEMB      19              0.0000000000
      1954        19  SAPC      H18S           -4.8580082816      -22.4845349810        2.5018196924  MEMB      19              0.0000000000
      1955        19  SAPC      C219           -6.3355474831      -20.7430312108        2.4435529854  MEMB      19              0.0000000000
      1956        19  SAPC      H19R           -5.6728581660      -19.8530280738        2.4988555688  MEMB      19              0.0000000000
      1957        19  SAPC      H19S           -7.2236472275      -20.5314600510        3.0766690296  MEMB      19              0.0000000000
      1958        19  SAPC      C220           -6.6976893820      -20.8568564890        0.9754378539  MEMB      19              0.0000000000
      1959        19  SAPC      H20R           -7.5682445769      -21.5397209676        0.8746866566  MEMB      19              0.0000000000
      1960        19  SAPC      H20S           -5.7942643729      -21.2834031456        0.4894328751  MEMB      19              0.0000000000
      1961        19  SAPC      H20T           -6.8365682435      -19.9585822314        0.3365828901  MEMB      19              0.0000000000
      1962        19  SAPC      C33            -4.4156317507      -16.8084054400       14.7969715616  MEMB      19              0.0000000000
      1963        19  SAPC      H3X            -4.5531500615      -17.3578552879       13.8411922566  MEMB      19              0.0000000000
      1964        19  SAPC      H3Y            -3.3684406105      -17.0082138162       15.1096834968  MEMB      19              0.0000000000
      1965        19  SAPC      C34            -4.7255793242      -15.3056062995       14.7092198533  MEMB      19              0.0000000000
      1966        19  SAPC      H4X            -4.9990366427      -15.0613689260       15.7579763669  MEMB      19              0.0000000000
      1967        19  SAPC      H4Y            -5.5866347626      -15.2502457998       14.0093347251  MEMB      19              0.0000000000
      1968        19  SAPC      C35            -3.5262896751      -14.5061301883       14.0690785514  MEMB      19              0.0000000000
      1969        19  SAPC      H5X            -2.6194151997      -14.8571090877       14.6063995130  MEMB      19              0.0000000000
      1970        19  SAPC      H5Y            -3.6477331691      -13.4048430930       14.1511721740  MEMB      19              0.0000000000
      1971        19  SAPC      C36            -3.3317842861      -14.7727412217       12.5724027917  MEMB      19              0.0000000000
      1972        19  SAPC      H6X            -4.1023102109      -14.1785574116       12.0361600336  MEMB      19              0.0000000000
      1973        19  SAPC      H6Y            -3.4611439085      -15.8517739307       12.3415880043  MEMB      19              0.0000000000
      1974        19  SAPC      C37            -2.0091254518      -14.3325498501       12.0116911084  MEMB      19              0.0000000000
      1975        19  SAPC      H7X            -1.6220630897      -13.3077767194       12.1970125759  MEMB      19              0.0000000000
      1976        19  SAPC      H7Y            -2.1580382407      -14.2578673167       10.9132522967  MEMB      19              0.0000000000
      1977        19  SAPC      C38            -0.9449874374      -15.3803190151       12.4589740402  MEMB      19              0.0000000000
      1978        19  SAPC      H8X            -0.9852388957      -15.6825866762       13.5273064430  MEMB      19              0.0000000000
      1979        19  SAPC      H8Y             0.0240419973      -14.8622715855       12.2948702132  MEMB      19              0.0000000000
      1980        19  SAPC      C39            -0.8063170181      -16.6150209608       11.5094536674  MEMB      19              0.0000000000
      1981        19  SAPC      H9X            -1.5166909928      -17.3597107021       11.9279351534  MEMB      19              0.0000000000
      1982        19  SAPC      H9Y             0.1745015938      -17.1274752218       11.6079756478  MEMB      19              0.0000000000
      1983        19  SAPC      C310           -1.0493855160      -16.3520919871        9.9991136677  MEMB      19              0.0000000000
      1984        19  SAPC      H10X           -0.3818333892      -15.5025330776        9.7403759364  MEMB      19              0.0000000000
      1985        19  SAPC      H10Y           -2.0012012220      -15.8568898446        9.7107682878  MEMB      19              0.0000000000
      1986        19  SAPC      C311           -0.5416346708      -17.5329926083        9.1660522628  MEMB      19              0.0000000000
      1987        19  SAPC      H11X           -1.2067457603      -18.4092013179        9.3216364572  MEMB      19              0.0000000000
      1988        19  SAPC      H11Y            0.4447041021      -17.7545288687        9.6268974509  MEMB      19              0.0000000000
      1989        19  SAPC      C312           -0.3454948735      -17.1081724438        7.6976692422  MEMB      19              0.0000000000
      1990        19  SAPC      H12X            0.4197137433      -17.7298681561        7.1855453370  MEMB      19              0.0000000000
      1991        19  SAPC      H12Y            0.2460682318      -16.1704425096        7.7686396697  MEMB      19              0.0000000000
      1992        19  SAPC      C313           -1.5756209436      -16.9088738371        6.8621999215  MEMB      19              0.0000000000
      1993        19  SAPC      H13X           -1.2868185215      -16.0358329417        6.2387308089  MEMB      19              0.0000000000
      1994        19  SAPC      H13Y           -2.2997587180      -16.5176067342        7.6084276258  MEMB      19              0.0000000000
      1995        19  SAPC      C314           -2.1159195574      -18.0962902848        6.0041297192  MEMB      19              0.0000000000
      1996        19  SAPC      H14X           -3.1465035189      -17.7857752419        5.7288155352  MEMB      19              0.0000000000
      1997        19  SAPC      H14Y           -2.2357961953      -18.9354676821        6.7222743501  MEMB      19              0.0000000000
      1998        19  SAPC      C315           -1.3140222537      -18.5099632601        4.7451624665  MEMB      19              0.0000000000
      1999        19  SAPC      H15X           -1.3509352792      -19.6055127570        4.5642494022  MEMB      19              0.0000000000
      2000        19  SAPC      H15Y           -0.2627880866      -18.1543536872        4.7977901053  MEMB      19              0.0000000000
      2001        19  SAPC      C316           -1.7797174734      -17.7943338537        3.4587030868  MEMB      19              0.0000000000
      2002        19  SAPC      H16X           -1.7060774996      -16.7125930738        3.7010556001  MEMB      19              0.0000000000
      2003        19  SAPC      H16Y           -2.8677181569      -17.9626174456        3.3095167235  MEMB      19              0.0000000000
      2004        19  SAPC      C317           -0.9970640944      -18.1632227503        2.2431989155  MEMB      19              0.0000000000
      2005        19  SAPC      H17X            0.0718384479      -18.1279098351        2.5440678908  MEMB      19              0.0000000000
      2006        19  SAPC      H17Y           -1.2835976127      -17.4521064052        1.4391270376  MEMB      19              0.0000000000
      2007        19  SAPC      C318           -1.3494453577      -19.5297085082        1.6217009376  MEMB      19              0.0000000000
      2008        19  SAPC      H18X           -2.4071832121      -19.5842712525        1.2862400246  MEMB      19              0.0000000000
      2009        19  SAPC      H18Y           -1.1564420607      -20.4088746022        2.2729596370  MEMB      19              0.0000000000
      2010        19  SAPC      H18Z           -0.7417135289      -19.7016206246        0.7076832612  MEMB      19              0.0000000000
      2011        20  OSM       N               6.5521186515      -19.5337203155       21.8356704962  MEMB      20              0.0000000000
      2012        20  OSM       C15             7.0543129581      -20.6162752260       22.8285140876  MEMB      20              0.0000000000
      2013        20  OSM       H15A            7.5813298672      -21.4624424937       22.4129976125  MEMB      20              0.0000000000
      2014        20  OSM       H15B            6.3025859338      -21.1693316688       23.3720535204  MEMB      20              0.0000000000
      2015        20  OSM       H15C            7.8126942154      -20.1452565149       23.4362961636  MEMB      20              0.0000000000
      2016        20  OSM       C14             7.7136822005      -18.9625618135       21.0436441923  MEMB      20              0.0000000000
      2017        20  OSM       H14A            8.5596842421      -18.7334870918       21.6746793472  MEMB      20              0.0000000000
      2018        20  OSM       H14B            7.3550903550      -17.9680500395       20.8228319978  MEMB      20              0.0000000000
      2019        20  OSM       H14C            7.9343653936      -19.6224797718       20.2176858304  MEMB      20              0.0000000000
      2020        20  OSM       C13             5.6391836522      -20.2186040166       20.9014098640  MEMB      20              0.0000000000
      2021        20  OSM       H13A            6.2236740076      -21.0332495167       20.5000072829  MEMB      20              0.0000000000
      2022        20  OSM       H13B            5.1693578323      -19.5887841870       20.1604707859  MEMB      20              0.0000000000
      2023        20  OSM       H13C            4.8203981036      -20.5079837687       21.5434765402  MEMB      20              0.0000000000
      2024        20  OSM       C12             5.8699142924      -18.4317448510       22.6222136284  MEMB      20              0.0000000000
      2025        20  OSM       H12A            6.5747682091      -17.8455176621       23.1931063173  MEMB      20              0.0000000000
      2026        20  OSM       H12B            5.2720620986      -19.0007347109       23.3187934529  MEMB      20              0.0000000000
      2027        20  OSM       C11             4.9646334076      -17.5045024080       21.9080602146  MEMB      20              0.0000000000
      2028        20  OSM       H11A            4.6950385392      -16.6688917541       22.5887909890  MEMB      20              0.0000000000
      2029        20  OSM       H11B            4.0539379629      -18.0752682965       21.6266686628  MEMB      20              0.0000000000
      2030        20  OSM       P               4.8451103744      -15.7150892949       20.0232169715  MEMB      20              0.0000000000
      2031        20  OSM       O13             3.5067375236      -16.0028307763       19.5065255307  MEMB      20              0.0000000000
      2032        20  OSM       O14             4.9938910287      -14.5277766933       20.9060483233  MEMB      20              0.0000000000
      2033        20  OSM       O11             5.7112156911      -15.4578907428       18.6944738566  MEMB      20              0.0000000000
      2034        20  OSM       O12             5.5365786799      -16.9801205586       20.7302228345  MEMB      20              0.0000000000
      2035        20  OSM       C1S             6.5896344957      -16.3806731363       18.0705374941  MEMB      20              0.0000000000
      2036        20  OSM       H1S             6.6098675809      -17.3206909104       18.6623805016  MEMB      20              0.0000000000
      2037        20  OSM       H1T             7.6556251350      -16.0740467958       18.1335070903  MEMB      20              0.0000000000
      2038        20  OSM       NF              6.5227201843      -17.9976947507       16.1454684763  MEMB      20              0.0000000000
      2039        20  OSM       HNF             7.2921399744      -17.8490831162       15.5290947760  MEMB      20              0.0000000000
      2040        20  OSM       C2S             6.0706100276      -16.7674186922       16.6289414307  MEMB      20              0.0000000000
      2041        20  OSM       H2S             4.9640858273      -16.8330449532       16.5539853545  MEMB      20              0.0000000000
      2042        20  OSM       C3S             6.5779398027      -15.5866903408       15.7073966829  MEMB      20              0.0000000000
      2043        20  OSM       H3S             7.6439240190      -15.4198977963       15.9723097470  MEMB      20              0.0000000000
      2044        20  OSM       O3              5.7977998514      -14.4156162629       16.1175395539  MEMB      20              0.0000000000
      2045        20  OSM       HO3             5.4656399934      -14.6135100892       16.9962363552  MEMB      20              0.0000000000
      2046        20  OSM       C4S             6.4039501005      -15.8450460567       14.2617975384  MEMB      20              0.0000000000
      2047        20  OSM       H4S             5.4009868135      -16.0525700126       13.8605515560  MEMB      20              0.0000000000
      2048        20  OSM       C5S             7.4016914113      -15.8249069862       13.3916662618  MEMB      20              0.0000000000
      2049        20  OSM       H5S             8.4163912763      -15.4898867541       13.6527135022  MEMB      20              0.0000000000
      2050        20  OSM       C6S             7.1340522633      -16.0551891463       11.9615739210  MEMB      20              0.0000000000
      2051        20  OSM       H6S             7.0904510317      -15.0691272007       11.4515722287  MEMB      20              0.0000000000
      2052        20  OSM       H6T             6.0772221279      -16.3820162515       11.8585444327  MEMB      20              0.0000000000
      2053        20  OSM       C7S             8.0551124836      -17.0609225351       11.1355795482  MEMB      20              0.0000000000
      2054        20  OSM       H7S             8.0035375893      -18.0371059383       11.6635258055  MEMB      20              0.0000000000
      2055        20  OSM       H7T             9.1287335928      -16.7755684542       11.1508033392  MEMB      20              0.0000000000
      2056        20  OSM       C8S             7.5375015095      -17.1364984331        9.7135600598  MEMB      20              0.0000000000
      2057        20  OSM       H8S             6.4595037198      -17.3677078182        9.8506144068  MEMB      20              0.0000000000
      2058        20  OSM       H8T             7.9937517261      -17.9937166505        9.1738065118  MEMB      20              0.0000000000
      2059        20  OSM       C9S             7.6097641443      -15.8520801303        8.7640860474  MEMB      20              0.0000000000
      2060        20  OSM       H9S             8.6273955020      -15.4207500637        8.6513827567  MEMB      20              0.0000000000
      2061        20  OSM       H9T             6.9742035796      -15.0270748872        9.1510614589  MEMB      20              0.0000000000
      2062        20  OSM       C10S            7.2411637755      -16.1633879807        7.3483426381  MEMB      20              0.0000000000
      2063        20  OSM       H10S            6.2471272658      -16.6493095679        7.4488044920  MEMB      20              0.0000000000
      2064        20  OSM       H10T            7.9500173840      -16.9050534273        6.9219860822  MEMB      20              0.0000000000
      2065        20  OSM       C11S            7.1682816270      -15.1143177244        6.2147353557  MEMB      20              0.0000000000
      2066        20  OSM       H11S            8.1881433494      -14.7271549014        6.0042412997  MEMB      20              0.0000000000
      2067        20  OSM       H11T            6.6020684424      -14.2189159272        6.5493684165  MEMB      20              0.0000000000
      2068        20  OSM       C12S            6.5730467382      -15.6527912253        4.9045727800  MEMB      20              0.0000000000
      2069        20  OSM       H12S            5.5093157060      -15.7160222697        5.2188961280  MEMB      20              0.0000000000
      2070        20  OSM       H12T            7.0510692006      -16.5990799868        4.5723775639  MEMB      20              0.0000000000
      2071        20  OSM       C13S            6.5024992715      -14.7896097875        3.6057231544  MEMB      20              0.0000000000
      2072        20  OSM       H13S            6.0699152160      -13.7942648097        3.8433794183  MEMB      20              0.0000000000
      2073        20  OSM       H13T            5.7728134278      -15.3087830499        2.9481985316  MEMB      20              0.0000000000
      2074        20  OSM       C14S            7.7691887750      -14.3845360481        2.9588099659  MEMB      20              0.0000000000
      2075        20  OSM       H14S            8.3688775216      -15.2976894912        2.7567085944  MEMB      20              0.0000000000
      2076        20  OSM       H14T            8.3657052778      -13.7541980229        3.6524690399  MEMB      20              0.0000000000
      2077        20  OSM       C15S            7.7441764310      -13.7066521813        1.5512603313  MEMB      20              0.0000000000
      2078        20  OSM       H15S            8.8272670244      -13.7098485586        1.3038227135  MEMB      20              0.0000000000
      2079        20  OSM       H15T            7.3427320753      -12.6725430571        1.6127587959  MEMB      20              0.0000000000
      2080        20  OSM       C16S            7.0996978724      -14.5596226628        0.4371010458  MEMB      20              0.0000000000
      2081        20  OSM       H16S            7.1335945460      -13.8678699231       -0.4316058512  MEMB      20              0.0000000000
      2082        20  OSM       H16T            6.0297255892      -14.7255426814        0.6859988630  MEMB      20              0.0000000000
      2083        20  OSM       C17S            7.8000052711      -15.8694288346       -0.0042426406  MEMB      20              0.0000000000
      2084        20  OSM       H17S            8.9078990934      -15.7944773794       -0.0399459486  MEMB      20              0.0000000000
      2085        20  OSM       H17T            7.3733497159      -16.0672641536       -1.0107954789  MEMB      20              0.0000000000
      2086        20  OSM       C18S            7.5039095595      -17.0803288517        0.8201058119  MEMB      20              0.0000000000
      2087        20  OSM       H18S            7.7552149842      -18.0961789222        0.4469890756  MEMB      20              0.0000000000
      2088        20  OSM       H18T            6.4210466162      -17.2220650396        1.0241630620  MEMB      20              0.0000000000
      2089        20  OSM       H18U            7.8850848323      -16.9982381846        1.8604354759  MEMB      20              0.0000000000
      2090        20  OSM       C1F             5.9853987337      -19.1282621213       16.5742830948  MEMB      20              0.0000000000
      2091        20  OSM       OF              5.2764050245      -19.1995518435       17.5884791067  MEMB      20              0.0000000000
      2092        20  OSM       C2F             6.3151211031      -20.3170012721       15.7163447460  MEMB      20              0.0000000000
      2093        20  OSM       H2F             6.8977226021      -21.0437417806       16.3219393474  MEMB      20              0.0000000000
      2094        20  OSM       H2G             6.9584537373      -19.9394260703       14.8930093208  MEMB      20              0.0000000000
      2095        20  OSM       C3F             5.0034989226      -21.0204225564       15.3008274740  MEMB      20              0.0000000000
      2096        20  OSM       H3F             4.3988875476      -21.1872829290       16.2178462777  MEMB      20              0.0000000000
      2097        20  OSM       H3G             5.3760561892      -21.9982959354       14.9276169547  MEMB      20              0.0000000000
      2098        20  OSM       C4F             4.1404529015      -20.2635279569       14.3472892719  MEMB      20              0.0000000000
      2099        20  OSM       H4F             3.7212539618      -19.3879999606       14.8876999455  MEMB      20              0.0000000000
      2100        20  OSM       H4G             3.3740820967      -21.0331716274       14.1135259487  MEMB      20              0.0000000000
      2101        20  OSM       C5F             4.7958585889      -19.8028787780       13.0407529867  MEMB      20              0.0000000000
      2102        20  OSM       H5F             5.1702089555      -20.7279652385       12.5524930843  MEMB      20              0.0000000000
      2103        20  OSM       H5G             5.7075208126      -19.1818407947       13.1730588660  MEMB      20              0.0000000000
      2104        20  OSM       C6F             3.9159731568      -19.1117583938       12.0037940629  MEMB      20              0.0000000000
      2105        20  OSM       H6F             3.2845065982      -19.9538022291       11.6480788830  MEMB      20              0.0000000000
      2106        20  OSM       H6G             4.4507781317      -18.8108863958       11.0776292914  MEMB      20              0.0000000000
      2107        20  OSM       C7F             3.0776375855      -17.9178294067       12.4915651420  MEMB      20              0.0000000000
      2108        20  OSM       H7F             3.7571837224      -17.2944769419       13.1112179929  MEMB      20              0.0000000000
      2109        20  OSM       H7G             2.2517025513      -18.1713339832       13.1900549803  MEMB      20              0.0000000000
      2110        20  OSM       C8F             2.4538056143      -17.0150526858       11.3598598300  MEMB      20              0.0000000000
      2111        20  OSM       H8F             3.2914543587      -16.4001281574       10.9667520675  MEMB      20              0.0000000000
      2112        20  OSM       H8G             1.8555403462      -16.2249554221       11.8620010871  MEMB      20              0.0000000000
      2113        20  OSM       C9F             1.6715105148      -17.7106748465       10.3500862789  MEMB      20              0.0000000000
      2114        20  OSM       H9F             0.7668345482      -18.2012093552       10.7385918054  MEMB      20              0.0000000000
      2115        20  OSM       C10F            1.8437996199      -17.8963175406        9.0195799549  MEMB      20              0.0000000000
      2116        20  OSM       H10F            1.2302548775      -18.6342185696        8.4819324917  MEMB      20              0.0000000000
      2117        20  OSM       C11F            3.0746675889      -17.3538125676        8.3235133466  MEMB      20              0.0000000000
      2118        20  OSM       H11F            3.8733226281      -17.2046257734        9.0812820853  MEMB      20              0.0000000000
      2119        20  OSM       H11G            2.8220443396      -16.3346145358        7.9605561739  MEMB      20              0.0000000000
      2120        20  OSM       C12F            3.7056251467      -18.0661523570        7.0116777687  MEMB      20              0.0000000000
      2121        20  OSM       H12F            4.5341320768      -17.4556762527        6.5930884149  MEMB      20              0.0000000000
      2122        20  OSM       H12G            2.8971285719      -18.2205678109        6.2654800750  MEMB      20              0.0000000000
      2123        20  OSM       C13F            4.3061133890      -19.4032313813        7.4265276775  MEMB      20              0.0000000000
      2124        20  OSM       H13F            3.5606744358      -19.9102776377        8.0757934039  MEMB      20              0.0000000000
      2125        20  OSM       H13G            5.1701441915      -19.1457180016        8.0757258411  MEMB      20              0.0000000000
      2126        20  OSM       C14F            4.8186392577      -20.3405383347        6.2732862817  MEMB      20              0.0000000000
      2127        20  OSM       H14F            3.9632403574      -20.7692702245        5.7086603074  MEMB      20              0.0000000000
      2128        20  OSM       H14G            5.2752179608      -21.1906497532        6.8238926539  MEMB      20              0.0000000000
      2129        20  OSM       C15F            5.7658285228      -19.6607657502        5.2337058473  MEMB      20              0.0000000000
      2130        20  OSM       H15F            6.2642592429      -18.7985203478        5.7260685475  MEMB      20              0.0000000000
      2131        20  OSM       H15G            5.1819164287      -19.1719892087        4.4247166839  MEMB      20              0.0000000000
      2132        20  OSM       C16F            6.9421319883      -20.5818300595        4.6620838497  MEMB      20              0.0000000000
      2133        20  OSM       H16F            6.5569933836      -21.4304424425        4.0572323307  MEMB      20              0.0000000000
      2134        20  OSM       H16G            7.6272889396      -20.9434202316        5.4584100960  MEMB      20              0.0000000000
      2135        20  OSM       C17F            7.9145119081      -19.7654745053        3.8601664656  MEMB      20              0.0000000000
      2136        20  OSM       H17F            8.6610513181      -19.2576115199        4.5075268901  MEMB      20              0.0000000000
      2137        20  OSM       H17G            7.4037175742      -18.9513027930        3.3029114337  MEMB      20              0.0000000000
      2138        20  OSM       C18F            8.7271614096      -20.5491913412        2.7775531155  MEMB      20              0.0000000000
      2139        20  OSM       H18F            9.3841185363      -21.1596707262        3.4333285415  MEMB      20              0.0000000000
      2140        20  OSM       H18G            9.2413041707      -19.9557258148        1.9915649891  MEMB      20              0.0000000000
      2141        20  OSM       H18H            8.0629580819      -21.2999188946        2.2984252626  MEMB      20              0.0000000000
      2142        21  SAPE      N             -18.3206864342       -3.8426374595       22.8415871815  MEMB      21              0.0000000000
      2143        21  SAPE      HN1           -17.4153547394       -3.4440818622       23.1627224082  MEMB      21              0.0000000000
      2144        21  SAPE      HN2           -19.0061346342       -3.0715342717       22.9725848771  MEMB      21              0.0000000000
      2145        21  SAPE      HN3           -18.5371070859       -4.6613478020       23.4453051461  MEMB      21              0.0000000000
      2146        21  SAPE      C12           -18.2921819697       -4.2050158631       21.3812048015  MEMB      21              0.0000000000
      2147        21  SAPE      H12A          -19.3585966065       -4.2498782172       21.0728734502  MEMB      21              0.0000000000
      2148        21  SAPE      H12B          -17.7902452905       -5.1931683240       21.3041620733  MEMB      21              0.0000000000
      2149        21  SAPE      C11           -17.6099752218       -3.0202710906       20.5331406839  MEMB      21              0.0000000000
      2150        21  SAPE      H11A          -17.2753459898       -3.4208276696       19.5523762861  MEMB      21              0.0000000000
      2151        21  SAPE      H11B          -16.7726051960       -2.6223958241       21.1453724081  MEMB      21              0.0000000000
      2152        21  SAPE      P             -18.6966321930       -1.1646627478       19.0460599929  MEMB      21              0.0000000000
      2153        21  SAPE      O13           -20.0339967717       -0.6286684717       18.7626620862  MEMB      21              0.0000000000
      2154        21  SAPE      O14           -17.6172295456       -0.2056197550       19.1500110522  MEMB      21              0.0000000000
      2155        21  SAPE      O12           -18.6359346358       -2.0535473503       20.3457058755  MEMB      21              0.0000000000
      2156        21  SAPE      O11           -18.3914008071       -2.2761164254       17.9396283148  MEMB      21              0.0000000000
      2157        21  SAPE      C1            -19.3055158223       -3.2627822358       17.5185883954  MEMB      21              0.0000000000
      2158        21  SAPE      HA            -18.9568950199       -4.1946518043       18.0129604930  MEMB      21              0.0000000000
      2159        21  SAPE      HB            -20.3221968048       -3.1494398553       17.9519871811  MEMB      21              0.0000000000
      2160        21  SAPE      C2            -19.4029124877       -3.3348100501       15.9235171821  MEMB      21              0.0000000000
      2161        21  SAPE      HS            -18.4467893802       -3.8455706916       15.6800563946  MEMB      21              0.0000000000
      2162        21  SAPE      O21           -19.4830274918       -1.9927522298       15.4540066485  MEMB      21              0.0000000000
      2163        21  SAPE      C21           -18.7032986662       -1.6757187787       14.3789514697  MEMB      21              0.0000000000
      2164        21  SAPE      O22           -17.9681182384       -2.4182836942       13.7501810342  MEMB      21              0.0000000000
      2165        21  SAPE      C22           -18.7024632278       -0.1533834994       14.1303954525  MEMB      21              0.0000000000
      2166        21  SAPE      H2R           -18.9644963913        0.4346041905       15.0358955006  MEMB      21              0.0000000000
      2167        21  SAPE      H2S           -17.6863165028        0.1536559991       13.8025332596  MEMB      21              0.0000000000
      2168        21  SAPE      C3            -20.5646481315       -4.1570344402       15.3705613902  MEMB      21              0.0000000000
      2169        21  SAPE      HX            -21.5360363113       -3.6363078557       15.5104536488  MEMB      21              0.0000000000
      2170        21  SAPE      HY            -20.6619473160       -5.0945046627       15.9587820790  MEMB      21              0.0000000000
      2171        21  SAPE      O31           -20.3629126523       -4.4639764870       13.9178184553  MEMB      21              0.0000000000
      2172        21  SAPE      C31           -19.4011339803       -5.3372484865       13.6316686773  MEMB      21              0.0000000000
      2173        21  SAPE      O32           -18.7337452155       -5.9452571424       14.4721380288  MEMB      21              0.0000000000
      2174        21  SAPE      C32           -19.2812007970       -5.4042249444       12.1462716498  MEMB      21              0.0000000000
      2175        21  SAPE      H2X           -18.7829266194       -6.3688518108       11.9106051322  MEMB      21              0.0000000000
      2176        21  SAPE      H2Y           -18.7080882231       -4.5211259606       11.7913080736  MEMB      21              0.0000000000
      2177        21  SAPE      C23           -19.5558657799        0.0951097387       12.9178366281  MEMB      21              0.0000000000
      2178        21  SAPE      H3R           -20.5345249129       -0.2471888346       13.3170595765  MEMB      21              0.0000000000
      2179        21  SAPE      H3S           -19.2293610366       -0.5719779384       12.0915743330  MEMB      21              0.0000000000
      2180        21  SAPE      C24           -19.5974075421        1.5039300780       12.4264190849  MEMB      21              0.0000000000
      2181        21  SAPE      H4R           -18.5370054446        1.8307227702       12.4818716997  MEMB      21              0.0000000000
      2182        21  SAPE      H4S           -20.0932627621        2.1667598483       13.1674356452  MEMB      21              0.0000000000
      2183        21  SAPE      C25           -20.3057597696        1.4770219977       11.1331380918  MEMB      21              0.0000000000
      2184        21  SAPE      H5R           -21.3535980183        1.1592197374       11.2381934969  MEMB      21              0.0000000000
      2185        21  SAPE      C26           -19.7648965141        1.7733308972        9.9407162904  MEMB      21              0.0000000000
      2186        21  SAPE      H6R           -20.3432282879        1.7035230307        9.0076250469  MEMB      21              0.0000000000
      2187        21  SAPE      C27           -18.3150435470        2.1709567567        9.6333498291  MEMB      21              0.0000000000
      2188        21  SAPE      H7R           -18.2023003460        3.2676127084        9.7710282310  MEMB      21              0.0000000000
      2189        21  SAPE      H7S           -18.2402762262        1.9337307907        8.5505499813  MEMB      21              0.0000000000
      2190        21  SAPE      C28           -17.1248309167        1.7991310755       10.4216446207  MEMB      21              0.0000000000
      2191        21  SAPE      H8R           -16.7521329998        2.5759678396       11.1054724628  MEMB      21              0.0000000000
      2192        21  SAPE      C29           -16.3880932595        0.6888517255       10.4439215297  MEMB      21              0.0000000000
      2193        21  SAPE      H9R           -15.5759398352        0.5728578983       11.1766918485  MEMB      21              0.0000000000
      2194        21  SAPE      C210          -16.6093537747       -0.4898840786        9.6214039759  MEMB      21              0.0000000000
      2195        21  SAPE      H10R          -15.7098561849       -0.5398967532        8.9712319138  MEMB      21              0.0000000000
      2196        21  SAPE      H10S          -17.5230332000       -0.3287319400        9.0102244397  MEMB      21              0.0000000000
      2197        21  SAPE      C211          -16.7383657505       -1.6571195345       10.5750263064  MEMB      21              0.0000000000
      2198        21  SAPE      H11R          -17.2163164495       -1.3781740745       11.5256851241  MEMB      21              0.0000000000
      2199        21  SAPE      C212          -16.4108750765       -2.9347519423       10.3496725518  MEMB      21              0.0000000000
      2200        21  SAPE      H12R          -16.8179904610       -3.6723694585       11.0569048087  MEMB      21              0.0000000000
      2201        21  SAPE      C213          -15.8045388376       -3.3911761008        9.0919815146  MEMB      21              0.0000000000
      2202        21  SAPE      H13R          -14.8505756004       -3.8561960038        9.4206632070  MEMB      21              0.0000000000
      2203        21  SAPE      H13S          -15.6460943623       -2.5984546498        8.3298728026  MEMB      21              0.0000000000
      2204        21  SAPE      C214          -16.4723049935       -4.5733611268        8.3450117009  MEMB      21              0.0000000000
      2205        21  SAPE      H14R          -16.7834703074       -5.4388272289        8.9484555601  MEMB      21              0.0000000000
      2206        21  SAPE      C215          -16.7802857049       -4.6776697235        7.0612759528  MEMB      21              0.0000000000
      2207        21  SAPE      H15R          -17.3010332641       -5.5621037571        6.6655501233  MEMB      21              0.0000000000
      2208        21  SAPE      C216          -16.3560053213       -3.5603901002        6.0935903037  MEMB      21              0.0000000000
      2209        21  SAPE      H16R          -15.3781764359       -3.0940566999        6.3399723453  MEMB      21              0.0000000000
      2210        21  SAPE      H16S          -17.1100019998       -2.7531239780        5.9747155362  MEMB      21              0.0000000000
      2211        21  SAPE      C217          -16.0753393028       -4.1112501091        4.7070081249  MEMB      21              0.0000000000
      2212        21  SAPE      H17R          -16.9094337911       -4.7137699811        4.2879891127  MEMB      21              0.0000000000
      2213        21  SAPE      H17S          -15.2162088237       -4.8149380557        4.6747744374  MEMB      21              0.0000000000
      2214        21  SAPE      C218          -15.7381933041       -2.9206120552        3.7647859803  MEMB      21              0.0000000000
      2215        21  SAPE      H18R          -15.0957375356       -2.1493726092        4.2409808804  MEMB      21              0.0000000000
      2216        21  SAPE      H18S          -16.7088592216       -2.4182657773        3.5653440682  MEMB      21              0.0000000000
      2217        21  SAPE      C219          -15.1925770625       -3.1709154382        2.3444881611  MEMB      21              0.0000000000
      2218        21  SAPE      H19R          -14.1290812894       -3.4694002018        2.4636748414  MEMB      21              0.0000000000
      2219        21  SAPE      H19S          -15.2610129514       -2.1525440958        1.9056758203  MEMB      21              0.0000000000
      2220        21  SAPE      C220          -15.8995945388       -4.2225794889        1.5166234472  MEMB      21              0.0000000000
      2221        21  SAPE      H20R          -16.7870751942       -3.7253976493        1.0699606773  MEMB      21              0.0000000000
      2222        21  SAPE      H20S          -16.1442454496       -5.1922062214        2.0006601696  MEMB      21              0.0000000000
      2223        21  SAPE      H20T          -15.1693180128       -4.5071663615        0.7292046693  MEMB      21              0.0000000000
      2224        21  SAPE      C33           -20.5833034755       -5.3552186230       11.3865542526  MEMB      21              0.0000000000
      2225        21  SAPE      H3X           -21.2375718238       -4.5040345950       11.6724556775  MEMB      21              0.0000000000
      2226        21  SAPE      H3Y           -21.1783607411       -6.2549022054       11.6526316585  MEMB      21              0.0000000000
      2227        21  SAPE      C34           -20.4236937801       -5.4724819037        9.8277327744  MEMB      21              0.0000000000
      2228        21  SAPE      H4X           -19.9225196154       -6.4448574749        9.6337458647  MEMB      21              0.0000000000
      2229        21  SAPE      H4Y           -19.8085855470       -4.5960582193        9.5313472583  MEMB      21              0.0000000000
      2230        21  SAPE      C35           -21.7556305868       -5.4815997554        9.0642058956  MEMB      21              0.0000000000
      2231        21  SAPE      H5X           -22.3464942742       -4.5863676639        9.3536197419  MEMB      21              0.0000000000
      2232        21  SAPE      H5Y           -22.2648778751       -6.4404102260        9.3001518362  MEMB      21              0.0000000000
      2233        21  SAPE      C36           -21.6199445608       -5.5560809401        7.5518520146  MEMB      21              0.0000000000
      2234        21  SAPE      H6X           -21.3427943867       -4.5691950856        7.1234073332  MEMB      21              0.0000000000
      2235        21  SAPE      H6Y           -22.6369717408       -5.6545333502        7.1156371555  MEMB      21              0.0000000000
      2236        21  SAPE      C37           -20.6784800493       -6.6702837493        6.9509035879  MEMB      21              0.0000000000
      2237        21  SAPE      H7X           -21.2612026170       -7.5938582921        7.1552700675  MEMB      21              0.0000000000
      2238        21  SAPE      H7Y           -19.7245908316       -6.6696811575        7.5204792650  MEMB      21              0.0000000000
      2239        21  SAPE      C38           -20.4468424827       -6.4139538888        5.4486749741  MEMB      21              0.0000000000
      2240        21  SAPE      H8X           -19.7128927888       -7.0869635143        4.9560325421  MEMB      21              0.0000000000
      2241        21  SAPE      H8Y           -20.1030009437       -5.3646847065        5.3256769226  MEMB      21              0.0000000000
      2242        21  SAPE      C39           -21.7794833454       -6.6491956760        4.6177728863  MEMB      21              0.0000000000
      2243        21  SAPE      H9X           -22.5286258123       -5.8992881972        4.9505566679  MEMB      21              0.0000000000
      2244        21  SAPE      H9Y           -22.2195160267       -7.6259456321        4.9121395925  MEMB      21              0.0000000000
      2245        21  SAPE      C310          -21.5446537986       -6.4671830404        3.1927436243  MEMB      21              0.0000000000
      2246        21  SAPE      H10X          -22.2337665239       -6.9739208166        2.4837570960  MEMB      21              0.0000000000
      2247        21  SAPE      H10Y          -20.7181291349       -7.1689326072        2.9504097628  MEMB      21              0.0000000000
      2248        21  SAPE      C311          -21.3618821921       -4.9907744443        2.7816824571  MEMB      21              0.0000000000
      2249        21  SAPE      H11X          -21.0086331006       -4.9198482746        1.7307287909  MEMB      21              0.0000000000
      2250        21  SAPE      H11Y          -20.5435793626       -4.4932856878        3.3448940962  MEMB      21              0.0000000000
      2251        21  SAPE      C312          -22.6605527478       -4.1146560052        2.8791416873  MEMB      21              0.0000000000
      2252        21  SAPE      H12X          -22.4233313802       -3.0293189592        2.8886392664  MEMB      21              0.0000000000
      2253        21  SAPE      H12Y          -23.2102087398       -4.4622524635        3.7799055925  MEMB      21              0.0000000000
      2254        21  SAPE      C313          -23.5678299382       -4.2407339131        1.6127730704  MEMB      21              0.0000000000
      2255        21  SAPE      H13X          -24.5836827262       -3.8951560436        1.9007661101  MEMB      21              0.0000000000
      2256        21  SAPE      H13Y          -23.5953638818       -5.3502088400        1.5615071249  MEMB      21              0.0000000000
      2257        21  SAPE      C314          -23.1125133260       -3.3399552992        0.4202539286  MEMB      21              0.0000000000
      2258        21  SAPE      H14X          -23.7861408108       -3.5366862677       -0.4410485045  MEMB      21              0.0000000000
      2259        21  SAPE      H14Y          -22.0548754140       -3.5265124237        0.1357903660  MEMB      21              0.0000000000
      2260        21  SAPE      C315          -23.0064913573       -1.7925242792        0.6487118583  MEMB      21              0.0000000000
      2261        21  SAPE      H15X          -21.9465194745       -1.5906161019        0.9133131944  MEMB      21              0.0000000000
      2262        21  SAPE      H15Y          -23.6540912256       -1.5118850087        1.5067197709  MEMB      21              0.0000000000
      2263        21  SAPE      C316          -23.3750603056       -0.9198960023       -0.5784435375  MEMB      21              0.0000000000
      2264        21  SAPE      H16X          -24.3930921550       -0.9309825417       -1.0232022884  MEMB      21              0.0000000000
      2265        21  SAPE      H16Y          -22.7683640527       -1.1133377742       -1.4888401316  MEMB      21              0.0000000000
      2266        21  SAPE      C317          -23.0886385024        0.5158104047       -0.1208640174  MEMB      21              0.0000000000
      2267        21  SAPE      H17X          -22.7774332978        1.0526065861       -1.0424512952  MEMB      21              0.0000000000
      2268        21  SAPE      H17Y          -22.1133376272        0.3809326678        0.3938358924  MEMB      21              0.0000000000
      2269        21  SAPE      C318          -24.2691684011        1.1312107181        0.6315333784  MEMB      21              0.0000000000
      2270        21  SAPE      H18X          -25.1933961647        1.0936610207        0.0161345053  MEMB      21              0.0000000000
      2271        21  SAPE      H18Y          -24.1645765688        2.2041587494        0.9001659976  MEMB      21              0.0000000000
      2272        21  SAPE      H18Z          -24.4728464390        0.7810345807        1.6660437925  MEMB      21              0.0000000000
      2273        22  CHL1      C3              9.1816387634       16.8143764908       17.4064550000  MEMB      22              0.0000000000
      2274        22  CHL1      H3              9.5046474832       15.7955688522       17.1030950000  MEMB      22              0.0000000000
      2275        22  CHL1      O3              8.4626106566       16.6590453092       18.5935450000  MEMB      22              0.0000000000
      2276        22  CHL1      H3'             9.0948667436       16.2396451502       19.1817250000  MEMB      22              0.0000000000
      2277        22  CHL1      C4             10.3728889448       17.7008450608       17.5891750000  MEMB      22              0.0000000000
      2278        22  CHL1      H4A            10.1607227712       18.6453370074       18.1343650000  MEMB      22              0.0000000000
      2279        22  CHL1      H4B            11.0669773453       17.1375688649       18.2489450000  MEMB      22              0.0000000000
      2280        22  CHL1      C5             11.1171560463       18.0905295325       16.3211550000  MEMB      22              0.0000000000
      2281        22  CHL1      C6             12.4767622966       17.7900395452       16.1567750000  MEMB      22              0.0000000000
      2282        22  CHL1      H6             13.0968154973       17.3170779555       16.9325550000  MEMB      22              0.0000000000
      2283        22  CHL1      C7             13.0818792557       18.0895604784       14.8362650000  MEMB      22              0.0000000000
      2284        22  CHL1      H7A            14.0844998793       18.5583087927       14.9329750000  MEMB      22              0.0000000000
      2285        22  CHL1      H7B            13.3239395152       17.1675948748       14.2655650000  MEMB      22              0.0000000000
      2286        22  CHL1      C8             12.3051249984       19.0865556961       13.8768350000  MEMB      22              0.0000000000
      2287        22  CHL1      H8             12.3054210750       20.1194252261       14.2861150000  MEMB      22              0.0000000000
      2288        22  CHL1      C14            12.9342662314       19.0593750357       12.4751850000  MEMB      22              0.0000000000
      2289        22  CHL1      H14            12.7528572237       18.0782824182       11.9864350000  MEMB      22              0.0000000000
      2290        22  CHL1      C15            14.4999316090       19.1289538704       12.3207450000  MEMB      22              0.0000000000
      2291        22  CHL1      H15A           14.9161051335       19.9855248830       12.8929450000  MEMB      22              0.0000000000
      2292        22  CHL1      H15B           15.0557222119       18.2005195651       12.5725950000  MEMB      22              0.0000000000
      2293        22  CHL1      C16            14.6021049658       19.5222822794       10.8315050000  MEMB      22              0.0000000000
      2294        22  CHL1      H16A           15.1901914765       20.4482154975       10.6551050000  MEMB      22              0.0000000000
      2295        22  CHL1      H16B           15.0067250436       18.6273436389       10.3121850000  MEMB      22              0.0000000000
      2296        22  CHL1      C17            13.2126672360       19.7374128862       10.2226950000  MEMB      22              0.0000000000
      2297        22  CHL1      H17            12.9605053153       18.7531915296        9.7731850000  MEMB      22              0.0000000000
      2298        22  CHL1      C13            12.3361879086       20.0525661201       11.4333050000  MEMB      22              0.0000000000
      2299        22  CHL1      C18            12.4358646395       21.5005138203       11.8697250000  MEMB      22              0.0000000000
      2300        22  CHL1      H18A           11.8782463113       22.1228280343       11.1375350000  MEMB      22              0.0000000000
      2301        22  CHL1      H18B           11.8499349976       21.6557433951       12.8008050000  MEMB      22              0.0000000000
      2302        22  CHL1      H18C           13.4459591530       21.9209585906       12.0627150000  MEMB      22              0.0000000000
      2303        22  CHL1      C12            10.7375027796       19.6854212812       11.3656050000  MEMB      22              0.0000000000
      2304        22  CHL1      H12A           10.2258108205       20.5353646691       10.8655150000  MEMB      22              0.0000000000
      2305        22  CHL1      H12B           10.6519921338       18.6908227584       10.8779750000  MEMB      22              0.0000000000
      2306        22  CHL1      C11            10.1032352099       19.6245054788       12.7944650000  MEMB      22              0.0000000000
      2307        22  CHL1      H11A           10.1727917053       20.6378836470       13.2445350000  MEMB      22              0.0000000000
      2308        22  CHL1      H11B            9.0172693865       19.4011052538       12.7231450000  MEMB      22              0.0000000000
      2309        22  CHL1      C9             10.8394994077       18.7231382908       13.7837750000  MEMB      22              0.0000000000
      2310        22  CHL1      H9             10.8454483188       17.7366819091       13.2727050000  MEMB      22              0.0000000000
      2311        22  CHL1      C10            10.2332455444       18.6205389477       15.1948850000  MEMB      22              0.0000000000
      2312        22  CHL1      C19             9.7932863271       20.0672851311       15.7104250000  MEMB      22              0.0000000000
      2313        22  CHL1      H19A           10.6156162625       20.8120459636       15.6518450000  MEMB      22              0.0000000000
      2314        22  CHL1      H19B            8.9886727135       20.3503413483       14.9985350000  MEMB      22              0.0000000000
      2315        22  CHL1      H19C            9.4292691147       20.2201448672       16.7489150000  MEMB      22              0.0000000000
      2316        22  CHL1      C1              8.9986541329       17.6863695573       15.0230550000  MEMB      22              0.0000000000
      2317        22  CHL1      H1A             8.2787297709       18.1185798706       14.2955850000  MEMB      22              0.0000000000
      2318        22  CHL1      H1B             9.3778519723       16.7059804640       14.6633750000  MEMB      22              0.0000000000
      2319        22  CHL1      C2              8.2838145759       17.4198611308       16.3631550000  MEMB      22              0.0000000000
      2320        22  CHL1      H2A             7.4726355871       16.6862805349       16.1677950000  MEMB      22              0.0000000000
      2321        22  CHL1      H2B             7.7405335633       18.3258319603       16.7072350000  MEMB      22              0.0000000000
      2322        22  CHL1      C20            13.3027002254       20.6606802516        8.9669050000  MEMB      22              0.0000000000
      2323        22  CHL1      H20            13.8433034749       21.5877846266        9.2542150000  MEMB      22              0.0000000000
      2324        22  CHL1      C21            11.9284412469       20.9685466919        8.3697250000  MEMB      22              0.0000000000
      2325        22  CHL1      H21A           11.3354026984       20.1217008263        7.9629250000  MEMB      22              0.0000000000
      2326        22  CHL1      H21B           12.0393160893       21.5926108090        7.4572850000  MEMB      22              0.0000000000
      2327        22  CHL1      H21C           11.3072966694       21.4847086183        9.1326650000  MEMB      22              0.0000000000
      2328        22  CHL1      C22            14.1218518614       19.9019742044        7.8844350000  MEMB      22              0.0000000000
      2329        22  CHL1      H22A           14.4451825552       20.6422990674        7.1217450000  MEMB      22              0.0000000000
      2330        22  CHL1      H22B           15.1089620264       19.5022697482        8.2009250000  MEMB      22              0.0000000000
      2331        22  CHL1      C23            13.3116822436       18.8280154934        7.0801250000  MEMB      22              0.0000000000
      2332        22  CHL1      H23A           12.9197810413       18.0628181585        7.7838450000  MEMB      22              0.0000000000
      2333        22  CHL1      H23B           12.4838825471       19.3722593215        6.5772750000  MEMB      22              0.0000000000
      2334        22  CHL1      C24            13.9932110646       18.1329351900        5.8363150000  MEMB      22              0.0000000000
      2335        22  CHL1      H24A           14.7749562457       17.4685994433        6.2627650000  MEMB      22              0.0000000000
      2336        22  CHL1      H24B           13.2210418704       17.4337907673        5.4499550000  MEMB      22              0.0000000000
      2337        22  CHL1      C25            14.6930452294       19.0718683274        4.7575550000  MEMB      22              0.0000000000
      2338        22  CHL1      H25            15.5703249059       19.5755620662        5.2168850000  MEMB      22              0.0000000000
      2339        22  CHL1      C26            15.1842936327       18.2442087166        3.5891250000  MEMB      22              0.0000000000
      2340        22  CHL1      H26A           15.6559079964       17.2989227420        3.9331350000  MEMB      22              0.0000000000
      2341        22  CHL1      H26B           14.4048068446       17.7491082415        2.9713850000  MEMB      22              0.0000000000
      2342        22  CHL1      H26C           15.9242261985       18.6906468244        2.8908950000  MEMB      22              0.0000000000
      2343        22  CHL1      C27            13.7319366178       20.2080191489        4.1885250000  MEMB      22              0.0000000000
      2344        22  CHL1      H27A           13.4152291465       20.8445848584        5.0422150000  MEMB      22              0.0000000000
      2345        22  CHL1      H27B           14.2914908669       20.8668590938        3.4905650000  MEMB      22              0.0000000000
      2346        22  CHL1      H27C           12.7977630198       19.7699720070        3.7765150000  MEMB      22              0.0000000000
      2347        23  CHL1      C3            -10.2569505464      -16.9140695678       17.3102200000  MEMB      23              0.0000000000
      2348        23  CHL1      H3            -11.0845901023      -17.6526811197       17.3717000000  MEMB      23              0.0000000000
      2349        23  CHL1      O3            -10.0103938536      -16.8889554322       18.6897800000  MEMB      23              0.0000000000
      2350        23  CHL1      H3'           -10.8592743557      -16.8563210765       19.1369100000  MEMB      23              0.0000000000
      2351        23  CHL1      C4             -9.0362689688      -17.5079460963       16.5290900000  MEMB      23              0.0000000000
      2352        23  CHL1      H4A            -8.1650852196      -16.8473465622       16.7265100000  MEMB      23              0.0000000000
      2353        23  CHL1      H4B            -8.7109878118      -18.4544005471       17.0115300000  MEMB      23              0.0000000000
      2354        23  CHL1      C5             -9.3859699290      -17.6492195539       15.0822100000  MEMB      23              0.0000000000
      2355        23  CHL1      C6             -9.1849998087      -18.8364143076       14.4134800000  MEMB      23              0.0000000000
      2356        23  CHL1      H6             -8.5796399870      -19.5993618014       14.9248000000  MEMB      23              0.0000000000
      2357        23  CHL1      C7             -9.6580209953      -18.9706150725       13.0234900000  MEMB      23              0.0000000000
      2358        23  CHL1      H7A            -9.0568488998      -19.7553817746       12.5164800000  MEMB      23              0.0000000000
      2359        23  CHL1      H7B           -10.7243870187      -19.2666089228       13.1213900000  MEMB      23              0.0000000000
      2360        23  CHL1      C8             -9.7198527699      -17.6331464247       12.1906400000  MEMB      23              0.0000000000
      2361        23  CHL1      H8             -8.7137813080      -17.1622081411       12.1716800000  MEMB      23              0.0000000000
      2362        23  CHL1      C14           -10.1661185968      -17.9221578172       10.7534700000  MEMB      23              0.0000000000
      2363        23  CHL1      H14           -11.2289269069      -18.2161008199       10.8889600000  MEMB      23              0.0000000000
      2364        23  CHL1      C15            -9.4224447417      -18.8703886481        9.9041200000  MEMB      23              0.0000000000
      2365        23  CHL1      H15A           -8.3355830107      -18.6569554203        9.9907600000  MEMB      23              0.0000000000
      2366        23  CHL1      H15B           -9.3998172829      -19.9611462657       10.1139800000  MEMB      23              0.0000000000
      2367        23  CHL1      C16            -9.9446447660      -18.5518861892        8.4923800000  MEMB      23              0.0000000000
      2368        23  CHL1      H16A           -9.1934445934      -18.2996792338        7.7136500000  MEMB      23              0.0000000000
      2369        23  CHL1      H16B          -10.5750221024      -19.3951701866        8.1377000000  MEMB      23              0.0000000000
      2370        23  CHL1      C17           -10.8376312264      -17.2959496777        8.6904900000  MEMB      23              0.0000000000
      2371        23  CHL1      H17           -11.8822346314      -17.6586447104        8.7980900000  MEMB      23              0.0000000000
      2372        23  CHL1      C13           -10.3749988501      -16.6296269145        9.9255200000  MEMB      23              0.0000000000
      2373        23  CHL1      C18            -9.0690233231      -15.8215126676        9.7299800000  MEMB      23              0.0000000000
      2374        23  CHL1      H18A           -8.3631415591      -16.2584503430        8.9916500000  MEMB      23              0.0000000000
      2375        23  CHL1      H18B           -9.3787637799      -14.8107641927        9.3882700000  MEMB      23              0.0000000000
      2376        23  CHL1      H18C           -8.4091468991      -15.6406499617       10.6052900000  MEMB      23              0.0000000000
      2377        23  CHL1      C12           -11.5086000486      -15.8432076154       10.6687400000  MEMB      23              0.0000000000
      2378        23  CHL1      H12A          -11.6856550577      -14.9099428063       10.0925500000  MEMB      23              0.0000000000
      2379        23  CHL1      H12B          -12.4535864955      -16.4268375373       10.6424200000  MEMB      23              0.0000000000
      2380        23  CHL1      C11           -11.0661918692      -15.5127289266       12.1046000000  MEMB      23              0.0000000000
      2381        23  CHL1      H11A          -10.1987618276      -14.8187247569       12.0889800000  MEMB      23              0.0000000000
      2382        23  CHL1      H11B          -11.8147130604      -14.9309676850       12.6839100000  MEMB      23              0.0000000000
      2383        23  CHL1      C9            -10.6855484134      -16.7388657374       12.9746000000  MEMB      23              0.0000000000
      2384        23  CHL1      H9            -11.7196220378      -17.0885729404       13.1812800000  MEMB      23              0.0000000000
      2385        23  CHL1      C10           -10.0753748700      -16.4315128890       14.3682300000  MEMB      23              0.0000000000
      2386        23  CHL1      C19            -8.8625434013      -15.3603104605       14.2429500000  MEMB      23              0.0000000000
      2387        23  CHL1      H19A           -8.4788853617      -15.0073347039       15.2240400000  MEMB      23              0.0000000000
      2388        23  CHL1      H19B           -8.0765379072      -15.6223617419       13.5027800000  MEMB      23              0.0000000000
      2389        23  CHL1      H19C           -9.3436492671      -14.4166196740       13.9078400000  MEMB      23              0.0000000000
      2390        23  CHL1      C1            -11.1824476399      -15.7745292673       15.3526300000  MEMB      23              0.0000000000
      2391        23  CHL1      H1A           -11.5120502067      -14.7983531843       14.9370100000  MEMB      23              0.0000000000
      2392        23  CHL1      H1B           -12.0292766738      -16.4932182457       15.3788800000  MEMB      23              0.0000000000
      2393        23  CHL1      C2            -10.8216925198      -15.5988266454       16.8263200000  MEMB      23              0.0000000000
      2394        23  CHL1      H2A           -11.7381653729      -15.3888204977       17.4181900000  MEMB      23              0.0000000000
      2395        23  CHL1      H2B           -10.1514147432      -14.7355792574       17.0259500000  MEMB      23              0.0000000000
      2396        23  CHL1      C20           -10.8409274976      -16.3568933998        7.4070000000  MEMB      23              0.0000000000
      2397        23  CHL1      H20            -9.7830810695      -16.1299394547        7.1544400000  MEMB      23              0.0000000000
      2398        23  CHL1      C21           -11.6105276619      -15.0158954580        7.5486300000  MEMB      23              0.0000000000
      2399        23  CHL1      H21A          -12.6087437831      -15.2070837701        7.9973400000  MEMB      23              0.0000000000
      2400        23  CHL1      H21B          -11.7474440141      -14.5955647885        6.5293700000  MEMB      23              0.0000000000
      2401        23  CHL1      H21C          -11.0802812337      -14.2041601884        8.0910900000  MEMB      23              0.0000000000
      2402        23  CHL1      C22           -11.3558816498      -17.1260322001        6.2088500000  MEMB      23              0.0000000000
      2403        23  CHL1      H22A          -10.9914722166      -18.1612593089        6.0361600000  MEMB      23              0.0000000000
      2404        23  CHL1      H22B          -12.4655372730      -17.1683989190        6.2434700000  MEMB      23              0.0000000000
      2405        23  CHL1      C23           -11.0121790231      -16.5442775174        4.8076900000  MEMB      23              0.0000000000
      2406        23  CHL1      H23A          -11.5945314734      -15.6196328444        4.6071800000  MEMB      23              0.0000000000
      2407        23  CHL1      H23B           -9.9290951328      -16.3073590853        4.7361200000  MEMB      23              0.0000000000
      2408        23  CHL1      C24           -11.2155911996      -17.5443973766        3.6211500000  MEMB      23              0.0000000000
      2409        23  CHL1      H24A          -10.5100875726      -18.3954566124        3.7320100000  MEMB      23              0.0000000000
      2410        23  CHL1      H24B          -12.1915622207      -18.0697733187        3.6972600000  MEMB      23              0.0000000000
      2411        23  CHL1      C25           -11.0865225073      -17.0914069137        2.1342900000  MEMB      23              0.0000000000
      2412        23  CHL1      H25           -11.7077493350      -16.1717188297        2.0835800000  MEMB      23              0.0000000000
      2413        23  CHL1      C26            -9.6460048234      -16.8402107637        1.7793700000  MEMB      23              0.0000000000
      2414        23  CHL1      H26A           -8.9162215329      -17.6730603004        1.8694300000  MEMB      23              0.0000000000
      2415        23  CHL1      H26B           -9.6245507318      -16.6124362092        0.6921800000  MEMB      23              0.0000000000
      2416        23  CHL1      H26C           -9.3637869534      -16.0353228041        2.4912900000  MEMB      23              0.0000000000
      2417        23  CHL1      C27           -11.6607423950      -18.1835219853        1.1137300000  MEMB      23              0.0000000000
      2418        23  CHL1      H27A          -10.7966365642      -18.8118960106        0.8091400000  MEMB      23              0.0000000000
      2419        23  CHL1      H27B          -12.4720362936      -18.8084127811        1.5445900000  MEMB      23              0.0000000000
      2420        23  CHL1      H27C          -11.9606098415      -17.7155216675        0.1517700000  MEMB      23              0.0000000000
      2421        24  SAPE      N              -4.2066175254       18.9428854114       20.8303497487  MEMB      24              0.0000000000
      2422        24  SAPE      HN1            -5.0461259539       18.9876774778       21.4425744364  MEMB      24              0.0000000000
      2423        24  SAPE      HN2            -3.4763833822       18.4053444470       21.3396707200  MEMB      24              0.0000000000
      2424        24  SAPE      HN3            -3.8779893434       19.9257420084       20.7431919648  MEMB      24              0.0000000000
      2425        24  SAPE      C12            -4.7087377513       18.5580123416       19.5299071041  MEMB      24              0.0000000000
      2426        24  SAPE      H12A           -5.3907700273       17.7011886827       19.7170062061  MEMB      24              0.0000000000
      2427        24  SAPE      H12B           -3.8273104492       18.1865077216       18.9647599021  MEMB      24              0.0000000000
      2428        24  SAPE      C11            -5.5149490293       19.7194252198       18.9136641997  MEMB      24              0.0000000000
      2429        24  SAPE      H11A           -5.9705622574       19.4585449398       17.9345425321  MEMB      24              0.0000000000
      2430        24  SAPE      H11B           -4.8929776241       20.5952164547       18.6300052278  MEMB      24              0.0000000000
      2431        24  SAPE      P              -7.8462328011       19.5596834940       20.2056851371  MEMB      24              0.0000000000
      2432        24  SAPE      O13            -7.8203123870       19.3539886205       21.6386469591  MEMB      24              0.0000000000
      2433        24  SAPE      O14            -8.9535188839       20.3547842482       19.6164839194  MEMB      24              0.0000000000
      2434        24  SAPE      O12            -6.4707849950       20.2814621917       19.7808005612  MEMB      24              0.0000000000
      2435        24  SAPE      O11            -7.7754425494       18.1147872972       19.4844623478  MEMB      24              0.0000000000
      2436        24  SAPE      C1             -8.2065894762       16.9416281248       20.2462121959  MEMB      24              0.0000000000
      2437        24  SAPE      HA             -7.2604061941       16.5278985697       20.6559512340  MEMB      24              0.0000000000
      2438        24  SAPE      HB             -8.9492647206       17.1396684272       21.0484182842  MEMB      24              0.0000000000
      2439        24  SAPE      C2             -8.7829964983       15.8691937680       19.2396158551  MEMB      24              0.0000000000
      2440        24  SAPE      HS             -9.1531387729       14.9841133134       19.7999268208  MEMB      24              0.0000000000
      2441        24  SAPE      O21            -7.7624112204       15.3420912096       18.3312987146  MEMB      24              0.0000000000
      2442        24  SAPE      C21            -6.6542850972       14.7280194781       18.7534330377  MEMB      24              0.0000000000
      2443        24  SAPE      O22            -6.4588469049       14.2232263797       19.8365587530  MEMB      24              0.0000000000
      2444        24  SAPE      C22            -5.7176225743       14.6557058517       17.5276162280  MEMB      24              0.0000000000
      2445        24  SAPE      H2R            -4.6583144599       14.5637757544       17.8496965710  MEMB      24              0.0000000000
      2446        24  SAPE      H2S            -5.9203727577       13.8339800978       16.8079077242  MEMB      24              0.0000000000
      2447        24  SAPE      C3            -10.0045389455       16.4685194432       18.3973534262  MEMB      24              0.0000000000
      2448        24  SAPE      HX            -10.5176862575       17.1358496685       19.1223852798  MEMB      24              0.0000000000
      2449        24  SAPE      HY            -10.7561294176       15.7009799237       18.1139522586  MEMB      24              0.0000000000
      2450        24  SAPE      O31            -9.4391787763       17.2260721858       17.3204516023  MEMB      24              0.0000000000
      2451        24  SAPE      C31            -9.5114003168       16.7445826045       16.0715953468  MEMB      24              0.0000000000
      2452        24  SAPE      O32            -9.7477670784       15.5842661663       15.8374535515  MEMB      24              0.0000000000
      2453        24  SAPE      C32            -9.0999846884       17.8468149712       15.1202191696  MEMB      24              0.0000000000
      2454        24  SAPE      H2X            -8.2172302604       18.3962013760       15.5116788636  MEMB      24              0.0000000000
      2455        24  SAPE      H2Y            -9.8938759998       18.6173641164       15.2217652808  MEMB      24              0.0000000000
      2456        24  SAPE      C23            -5.6671465878       15.9656542965       16.7013190548  MEMB      24              0.0000000000
      2457        24  SAPE      H3R            -5.7261126022       16.8758831801       17.3356121470  MEMB      24              0.0000000000
      2458        24  SAPE      H3S            -6.6010498945       15.9452433843       16.0998798048  MEMB      24              0.0000000000
      2459        24  SAPE      C24            -4.4792388339       16.1575129400       15.7791721006  MEMB      24              0.0000000000
      2460        24  SAPE      H4R            -4.2115936549       15.1844699449       15.3145495000  MEMB      24              0.0000000000
      2461        24  SAPE      H4S            -3.6372384330       16.2453907700       16.4986397800  MEMB      24              0.0000000000
      2462        24  SAPE      C25            -4.5531402158       17.2203333287       14.6816295383  MEMB      24              0.0000000000
      2463        24  SAPE      H5R            -4.4498062675       18.2374676888       15.0875358326  MEMB      24              0.0000000000
      2464        24  SAPE      C26            -4.7266711911       16.9428837621       13.4017078306  MEMB      24              0.0000000000
      2465        24  SAPE      H6R            -4.5624551376       17.8106409799       12.7459405612  MEMB      24              0.0000000000
      2466        24  SAPE      C27            -4.8227056476       15.6253796812       12.6901319802  MEMB      24              0.0000000000
      2467        24  SAPE      H7R            -3.8635756124       15.0790538241       12.8163012446  MEMB      24              0.0000000000
      2468        24  SAPE      H7S            -4.8641891541       15.8576194521       11.6044689343  MEMB      24              0.0000000000
      2469        24  SAPE      C28            -5.9826379504       14.7289321328       13.0329785519  MEMB      24              0.0000000000
      2470        24  SAPE      H8R            -6.1045365834       14.6032894810       14.1189594210  MEMB      24              0.0000000000
      2471        24  SAPE      C29            -6.8912599198       14.0159757613       12.2581307436  MEMB      24              0.0000000000
      2472        24  SAPE      H9R            -7.5429350209       13.2303002968       12.6680499050  MEMB      24              0.0000000000
      2473        24  SAPE      C210           -6.9004185469       13.9515698729       10.7450672577  MEMB      24              0.0000000000
      2474        24  SAPE      H10R           -6.5017811926       12.9530950373       10.4649647795  MEMB      24              0.0000000000
      2475        24  SAPE      H10S           -6.2524465211       14.7219535558       10.2750009120  MEMB      24              0.0000000000
      2476        24  SAPE      C211           -8.2922158124       14.1049686698       10.0842934727  MEMB      24              0.0000000000
      2477        24  SAPE      H11R           -9.1226119065       13.6355399457       10.6320880121  MEMB      24              0.0000000000
      2478        24  SAPE      C212           -8.4478536633       14.7134326447        8.8456630740  MEMB      24              0.0000000000
      2479        24  SAPE      H12R           -9.4751808438       14.8140959981        8.4655761953  MEMB      24              0.0000000000
      2480        24  SAPE      C213           -7.4085623000       15.3449409246        7.9230264065  MEMB      24              0.0000000000
      2481        24  SAPE      H13R           -6.5051782427       15.7394629951        8.4354431958  MEMB      24              0.0000000000
      2482        24  SAPE      H13S           -7.7783942662       16.2196025921        7.3463882781  MEMB      24              0.0000000000
      2483        24  SAPE      C214           -7.0128024643       14.3320409562        6.8176609206  MEMB      24              0.0000000000
      2484        24  SAPE      H14R           -5.9385900959       14.2450457325        6.5974352537  MEMB      24              0.0000000000
      2485        24  SAPE      C215           -7.8685214940       14.0424186120        5.7758220954  MEMB      24              0.0000000000
      2486        24  SAPE      H15R           -7.5066776795       13.3331414761        5.0168787467  MEMB      24              0.0000000000
      2487        24  SAPE      C216           -9.2559998806       14.6010833722        5.5677475887  MEMB      24              0.0000000000
      2488        24  SAPE      H16R           -9.6903404880       14.8257112785        6.5653501257  MEMB      24              0.0000000000
      2489        24  SAPE      H16S           -9.9359958556       13.8205125654        5.1644655036  MEMB      24              0.0000000000
      2490        24  SAPE      C217           -9.4179114304       15.8437468284        4.6396992614  MEMB      24              0.0000000000
      2491        24  SAPE      H17R           -9.0667008011       15.6334398269        3.6068672243  MEMB      24              0.0000000000
      2492        24  SAPE      H17S           -8.7997684224       16.7092148124        4.9609238888  MEMB      24              0.0000000000
      2493        24  SAPE      C218          -10.9380828796       16.2192409063        4.6633967233  MEMB      24              0.0000000000
      2494        24  SAPE      H18R          -10.9799203949       16.7411401021        5.6432911879  MEMB      24              0.0000000000
      2495        24  SAPE      H18S          -11.6799677157       15.3935697120        4.7102448695  MEMB      24              0.0000000000
      2496        24  SAPE      C219          -11.1900504741       17.1943598482        3.5219534636  MEMB      24              0.0000000000
      2497        24  SAPE      H19R          -10.2658030840       17.4673216348        2.9691623304  MEMB      24              0.0000000000
      2498        24  SAPE      H19S          -11.7514571666       18.0461882852        3.9618765602  MEMB      24              0.0000000000
      2499        24  SAPE      C220          -12.2201906473       16.6832175478        2.4938055634  MEMB      24              0.0000000000
      2500        24  SAPE      H20R          -11.7202931951       15.8148923428        2.0137677154  MEMB      24              0.0000000000
      2501        24  SAPE      H20S          -12.4257838636       17.3959454105        1.6667186703  MEMB      24              0.0000000000
      2502        24  SAPE      H20T          -13.1200714005       16.3888358534        3.0750753965  MEMB      24              0.0000000000
      2503        24  SAPE      C33            -9.0086269429       17.1608628565       13.7274056570  MEMB      24              0.0000000000
      2504        24  SAPE      H3X           -10.0418994974       16.9800202150       13.3613938060  MEMB      24              0.0000000000
      2505        24  SAPE      H3Y            -8.3762854387       16.2580402944       13.8666062493  MEMB      24              0.0000000000
      2506        24  SAPE      C34            -8.3608649698       18.2391222082       12.7016379483  MEMB      24              0.0000000000
      2507        24  SAPE      H4X            -7.3446392533       18.5366412151       13.0379247614  MEMB      24              0.0000000000
      2508        24  SAPE      H4Y            -8.9496076565       19.1655563833       12.8731685460  MEMB      24              0.0000000000
      2509        24  SAPE      C35            -8.2620396707       17.9032799164       11.2817519117  MEMB      24              0.0000000000
      2510        24  SAPE      H5X            -9.0349112153       18.3760994077       10.6387646274  MEMB      24              0.0000000000
      2511        24  SAPE      H5Y            -8.2901154654       16.8010657087       11.1451630377  MEMB      24              0.0000000000
      2512        24  SAPE      C36            -6.9277947314       18.4398402603       10.5373980038  MEMB      24              0.0000000000
      2513        24  SAPE      H6X            -7.1664219621       18.2203489034        9.4747591323  MEMB      24              0.0000000000
      2514        24  SAPE      H6Y            -6.1700155552       17.7140208516       10.9024711050  MEMB      24              0.0000000000
      2515        24  SAPE      C37            -6.5073627208       19.8746350939       10.8079892939  MEMB      24              0.0000000000
      2516        24  SAPE      H7X            -5.5397699943       20.1419356539       10.3319267936  MEMB      24              0.0000000000
      2517        24  SAPE      H7Y            -6.3289953765       19.8692361674       11.9045648161  MEMB      24              0.0000000000
      2518        24  SAPE      C38            -7.5057663720       20.9906115840       10.4404839432  MEMB      24              0.0000000000
      2519        24  SAPE      H8X            -6.9950253193       21.8774342226       10.8729303301  MEMB      24              0.0000000000
      2520        24  SAPE      H8Y            -8.4672762132       21.0005979399       10.9970096399  MEMB      24              0.0000000000
      2521        24  SAPE      C39            -7.7166829252       21.0993940711        8.9552582315  MEMB      24              0.0000000000
      2522        24  SAPE      H9X            -8.4847134145       21.8354799073        8.6349031876  MEMB      24              0.0000000000
      2523        24  SAPE      H9Y            -8.2206132276       20.1508014181        8.6714502467  MEMB      24              0.0000000000
      2524        24  SAPE      C310           -6.4637455531       21.3311484062        8.1047549036  MEMB      24              0.0000000000
      2525        24  SAPE      H10X           -5.8719004917       20.3917335111        8.0655097777  MEMB      24              0.0000000000
      2526        24  SAPE      H10Y           -5.8543959955       22.1255542936        8.5863494570  MEMB      24              0.0000000000
      2527        24  SAPE      C311           -6.9405908417       21.7895171140        6.6779558873  MEMB      24              0.0000000000
      2528        24  SAPE      H11X           -7.5163602122       22.7396289167        6.6878472816  MEMB      24              0.0000000000
      2529        24  SAPE      H11Y           -7.6670375960       21.0348114989        6.3077985698  MEMB      24              0.0000000000
      2530        24  SAPE      C312           -5.8121578062       22.0852346106        5.6534519387  MEMB      24              0.0000000000
      2531        24  SAPE      H12X           -5.4260159858       23.0460402079        6.0560293869  MEMB      24              0.0000000000
      2532        24  SAPE      H12Y           -6.2778442623       22.3410374731        4.6777352387  MEMB      24              0.0000000000
      2533        24  SAPE      C313           -4.7776253910       21.0438446648        5.4779297938  MEMB      24              0.0000000000
      2534        24  SAPE      H13X           -4.5236387912       20.8523054160        6.5424131185  MEMB      24              0.0000000000
      2535        24  SAPE      H13Y           -3.8713935163       21.4373431446        4.9697727270  MEMB      24              0.0000000000
      2536        24  SAPE      C314           -5.2467799016       19.7210408745        4.8778293639  MEMB      24              0.0000000000
      2537        24  SAPE      H14X           -6.1362168390       19.3977377504        5.4598063839  MEMB      24              0.0000000000
      2538        24  SAPE      H14Y           -4.4612343217       18.9649533523        5.0913021574  MEMB      24              0.0000000000
      2539        24  SAPE      C315           -5.6820689147       19.7370440807        3.4032406275  MEMB      24              0.0000000000
      2540        24  SAPE      H15X           -6.5552521965       20.3843179065        3.1732225670  MEMB      24              0.0000000000
      2541        24  SAPE      H15Y           -6.0762183159       18.7321998346        3.1400771627  MEMB      24              0.0000000000
      2542        24  SAPE      C316           -4.5695249392       20.1334906133        2.4206113856  MEMB      24              0.0000000000
      2543        24  SAPE      H16X           -4.4083142766       21.2321811475        2.4554081794  MEMB      24              0.0000000000
      2544        24  SAPE      H16Y           -5.0249972161       20.0106386441        1.4147407933  MEMB      24              0.0000000000
      2545        24  SAPE      C317           -3.1768314014       19.4187645236        2.5114690647  MEMB      24              0.0000000000
      2546        24  SAPE      H17X           -3.2085176026       18.3173525436        2.3693152343  MEMB      24              0.0000000000
      2547        24  SAPE      H17Y           -2.8084159332       19.6999529381        3.5211837181  MEMB      24              0.0000000000
      2548        24  SAPE      C318           -2.1163724222       19.8876054790        1.4854719618  MEMB      24              0.0000000000
      2549        24  SAPE      H18X           -2.1341237123       20.9533115386        1.1719806778  MEMB      24              0.0000000000
      2550        24  SAPE      H18Y           -2.2406800085       19.3398589112        0.5269092744  MEMB      24              0.0000000000
      2551        24  SAPE      H18Z           -1.0626368488       19.7807877786        1.8209599171  MEMB      24              0.0000000000
      2552        25  POPC      N              19.3827177621      -10.1266411203       20.3381652480  MEMB      25              0.0000000000
      2553        25  POPC      C12            18.1934504024      -10.9573697636       20.7475594271  MEMB      25              0.0000000000
      2554        25  POPC      H12A           17.9105279743      -10.8077551588       21.7790486876  MEMB      25              0.0000000000
      2555        25  POPC      H12B           18.4225112938      -12.0072507778       20.6394808445  MEMB      25              0.0000000000
      2556        25  POPC      C13            20.1083242605      -10.8821909542       19.2763268140  MEMB      25              0.0000000000
      2557        25  POPC      H13A           20.0133806308      -11.9318151576       19.5122819166  MEMB      25              0.0000000000
      2558        25  POPC      H13B           19.5424963995      -10.7108724211       18.3725079284  MEMB      25              0.0000000000
      2559        25  POPC      H13C           21.1201788403      -10.5479033032       19.1008214874  MEMB      25              0.0000000000
      2560        25  POPC      C14            19.0399529082       -8.6783633612       20.0817747099  MEMB      25              0.0000000000
      2561        25  POPC      H14A           18.4467509182       -8.4948126201       19.1981341872  MEMB      25              0.0000000000
      2562        25  POPC      H14B           18.4374315623       -8.3485180819       20.9151834131  MEMB      25              0.0000000000
      2563        25  POPC      H14C           19.8832185724       -8.0036102524       20.0784339544  MEMB      25              0.0000000000
      2564        25  POPC      C15            20.1816377587      -10.0612614918       21.6168792098  MEMB      25              0.0000000000
      2565        25  POPC      H15A           21.0636711956       -9.4979349194       21.3502708774  MEMB      25              0.0000000000
      2566        25  POPC      H15B           20.4292639981      -11.0554263973       21.9585181547  MEMB      25              0.0000000000
      2567        25  POPC      H15C           19.6090695978       -9.5812355836       22.3967130939  MEMB      25              0.0000000000
      2568        25  POPC      C11            16.8428366484      -10.9001048352       19.9042083651  MEMB      25              0.0000000000
      2569        25  POPC      H11A           16.4013465031       -9.8816513411       19.8577333735  MEMB      25              0.0000000000
      2570        25  POPC      H11B           16.0714681550      -11.5583987583       20.3580372417  MEMB      25              0.0000000000
      2571        25  POPC      P              16.5506493784      -10.8448991241       17.3242491980  MEMB      25              0.0000000000
      2572        25  POPC      O13            17.2147743674      -11.3907818292       16.1538941552  MEMB      25              0.0000000000
      2573        25  POPC      O14            16.3005195620       -9.3961351010       17.4393824396  MEMB      25              0.0000000000
      2574        25  POPC      O12            17.2174605238      -11.3706057734       18.6337373380  MEMB      25              0.0000000000
      2575        25  POPC      O11            15.1874584368      -11.6626916904       17.4838230863  MEMB      25              0.0000000000
      2576        25  POPC      C1             14.9821788616      -12.9948140530       17.8977905832  MEMB      25              0.0000000000
      2577        25  POPC      HA             14.4170320852      -13.1062730630       18.8477943518  MEMB      25              0.0000000000
      2578        25  POPC      HB             15.8928632829      -13.5880169999       18.1281929067  MEMB      25              0.0000000000
      2579        25  POPC      C2             14.1079532848      -13.6869235796       16.8049000529  MEMB      25              0.0000000000
      2580        25  POPC      HS             13.9817693890      -14.7702521815       17.0165560320  MEMB      25              0.0000000000
      2581        25  POPC      O21            14.5220088798      -13.6097592655       15.4889609321  MEMB      25              0.0000000000
      2582        25  POPC      C21            15.5767345478      -14.4299336676       15.2800143463  MEMB      25              0.0000000000
      2583        25  POPC      O22            16.1606248665      -15.1075786011       16.1090076930  MEMB      25              0.0000000000
      2584        25  POPC      C22            15.8588790759      -14.4122570900       13.7891914693  MEMB      25              0.0000000000
      2585        25  POPC      H2R            15.0846458611      -13.8152318299       13.2615121714  MEMB      25              0.0000000000
      2586        25  POPC      H2S            15.8282306946      -15.4831215747       13.4948595393  MEMB      25              0.0000000000
      2587        25  POPC      C3             12.5751150918      -13.0901623927       16.8122579471  MEMB      25              0.0000000000
      2588        25  POPC      HX             12.1187058461      -13.2597991312       17.8108746166  MEMB      25              0.0000000000
      2589        25  POPC      HY             12.0070486232      -13.7500979124       16.1222535967  MEMB      25              0.0000000000
      2590        25  POPC      O31            12.4925598125      -11.6969525340       16.3924830356  MEMB      25              0.0000000000
      2591        25  POPC      C31            12.5309105125      -11.5306142076       15.0743859292  MEMB      25              0.0000000000
      2592        25  POPC      O32            12.3979870084      -12.4059138091       14.2253571134  MEMB      25              0.0000000000
      2593        25  POPC      C32            12.7306951353       -9.9621302685       14.7969252006  MEMB      25              0.0000000000
      2594        25  POPC      H2X            13.0299989607       -9.4893355885       15.7567184517  MEMB      25              0.0000000000
      2595        25  POPC      H2Y            11.7953191161       -9.4145322836       14.5529385160  MEMB      25              0.0000000000
      2596        25  POPC      C23            17.2975099961      -13.8756590424       13.5749826655  MEMB      25              0.0000000000
      2597        25  POPC      H3R            17.9825717928      -14.2433546413       14.3685892527  MEMB      25              0.0000000000
      2598        25  POPC      H3S            17.2701646519      -12.7782986374       13.7463691475  MEMB      25              0.0000000000
      2599        25  POPC      C24            17.9349886696      -14.1199376127       12.1819133340  MEMB      25              0.0000000000
      2600        25  POPC      H4R            17.7009176355      -15.1195418246       11.7572688276  MEMB      25              0.0000000000
      2601        25  POPC      H4S            19.0439667818      -14.1645154246       12.2319252019  MEMB      25              0.0000000000
      2602        25  POPC      C25            17.4883520800      -13.1551059048       11.0676497006  MEMB      25              0.0000000000
      2603        25  POPC      H5R            16.4124306384      -12.8976808425       11.1698570315  MEMB      25              0.0000000000
      2604        25  POPC      H5S            17.6336004560      -13.5594988145       10.0431055579  MEMB      25              0.0000000000
      2605        25  POPC      C26            18.1409035436      -11.7744054753       11.1337051145  MEMB      25              0.0000000000
      2606        25  POPC      H6R            19.1856523281      -11.9194687004       11.4826712281  MEMB      25              0.0000000000
      2607        25  POPC      H6S            17.6501224945      -11.2553250867       11.9845930817  MEMB      25              0.0000000000
      2608        25  POPC      C27            18.0815975692      -10.9152872042        9.8239503557  MEMB      25              0.0000000000
      2609        25  POPC      H7R            16.9975796908      -10.7294802057        9.6667807911  MEMB      25              0.0000000000
      2610        25  POPC      H7S            18.6266813009      -11.4404741327        9.0106952628  MEMB      25              0.0000000000
      2611        25  POPC      C28            18.6984575948       -9.4520697937       10.1312585428  MEMB      25              0.0000000000
      2612        25  POPC      H8R            18.0843715369       -8.9195503331       10.8886506283  MEMB      25              0.0000000000
      2613        25  POPC      H8S            18.6092478473       -8.7442416073        9.2795884539  MEMB      25              0.0000000000
      2614        25  POPC      C29            20.1761300597       -9.4373071163       10.5866735794  MEMB      25              0.0000000000
      2615        25  POPC      H91            20.2847816679       -8.8752173229       11.5259550292  MEMB      25              0.0000000000
      2616        25  POPC      C210           21.2496095546       -9.9233266187        9.9885263206  MEMB      25              0.0000000000
      2617        25  POPC      H101           22.2430154145       -9.8061663844       10.4461481118  MEMB      25              0.0000000000
      2618        25  POPC      C211           21.2301796050      -10.6342544979        8.6770769081  MEMB      25              0.0000000000
      2619        25  POPC      H11R           20.5032619561      -11.4739350043        8.6479432062  MEMB      25              0.0000000000
      2620        25  POPC      H11S           22.2267720810      -11.0580919398        8.4291129069  MEMB      25              0.0000000000
      2621        25  POPC      C212           20.8215613659       -9.7779121791        7.4102067465  MEMB      25              0.0000000000
      2622        25  POPC      H12R           21.5170810595       -8.9327132489        7.2199128408  MEMB      25              0.0000000000
      2623        25  POPC      H12S           19.7574007167       -9.4943356895        7.5567254702  MEMB      25              0.0000000000
      2624        25  POPC      C213           20.8130842544      -10.5510328801        6.1034858953  MEMB      25              0.0000000000
      2625        25  POPC      H13R           20.1991630507      -11.4751713999        6.1617068935  MEMB      25              0.0000000000
      2626        25  POPC      H13S           21.8684790046      -10.8732091816        5.9743917167  MEMB      25              0.0000000000
      2627        25  POPC      C214           20.5121722911       -9.8065573555        4.7978506398  MEMB      25              0.0000000000
      2628        25  POPC      H14R           21.0022428922       -8.8100107712        4.7654972116  MEMB      25              0.0000000000
      2629        25  POPC      H14S           19.4291253950       -9.5740926188        4.8832382772  MEMB      25              0.0000000000
      2630        25  POPC      C215           20.9531818246      -10.5067959428        3.4484167746  MEMB      25              0.0000000000
      2631        25  POPC      H15R           20.7544262696      -11.5899880581        3.5950878749  MEMB      25              0.0000000000
      2632        25  POPC      H15S           22.0187628975      -10.4253662268        3.1447273306  MEMB      25              0.0000000000
      2633        25  POPC      C216           20.0640874708      -10.1067300082        2.3137919284  MEMB      25              0.0000000000
      2634        25  POPC      H16R           20.0096156099       -8.9977960623        2.2735526362  MEMB      25              0.0000000000
      2635        25  POPC      H16S           19.0218470826      -10.4465505305        2.4942842113  MEMB      25              0.0000000000
      2636        25  POPC      C217           20.3069785270      -10.5969847241        0.8723118145  MEMB      25              0.0000000000
      2637        25  POPC      H17R           19.3865589002      -11.1263012031        0.5452461967  MEMB      25              0.0000000000
      2638        25  POPC      H17S           21.0419353785      -11.4273051846        0.9410699394  MEMB      25              0.0000000000
      2639        25  POPC      C218           20.8142973618       -9.5320738426       -0.0133978295  MEMB      25              0.0000000000
      2640        25  POPC      H18R           21.8034029467       -9.0863422355        0.2260079025  MEMB      25              0.0000000000
      2641        25  POPC      H18S           20.0505911556       -8.7252747263       -0.0012099882  MEMB      25              0.0000000000
      2642        25  POPC      H18T           20.8295519224       -9.8060296932       -1.0899825770  MEMB      25              0.0000000000
      2643        25  POPC      C33            13.7734548057       -9.9154160224       13.6885958128  MEMB      25              0.0000000000
      2644        25  POPC      H3X            14.2826310920      -10.8688354556       13.4315902735  MEMB      25              0.0000000000
      2645        25  POPC      H3Y            14.6155609008       -9.2625892102       14.0032311301  MEMB      25              0.0000000000
      2646        25  POPC      C34            13.2729420729       -9.4799827432       12.3260982881  MEMB      25              0.0000000000
      2647        25  POPC      H4X            14.2321488613       -9.4282619356       11.7679155308  MEMB      25              0.0000000000
      2648        25  POPC      H4Y            12.7465720712       -8.5277851200       12.5509884820  MEMB      25              0.0000000000
      2649        25  POPC      C35            12.2367957236      -10.4952215096       11.8100186459  MEMB      25              0.0000000000
      2650        25  POPC      H5X            11.2572386818      -10.3450854263       12.3122614537  MEMB      25              0.0000000000
      2651        25  POPC      H5Y            12.6485872427      -11.5152058343       11.9661633089  MEMB      25              0.0000000000
      2652        25  POPC      C36            11.8588336032      -10.4063223325       10.2870982688  MEMB      25              0.0000000000
      2653        25  POPC      H6X            11.6957383238       -9.3335598201       10.0485575391  MEMB      25              0.0000000000
      2654        25  POPC      H6Y            10.8911625397      -10.9124789341       10.0827944892  MEMB      25              0.0000000000
      2655        25  POPC      C37            12.9381801931      -10.9912668670        9.3767656557  MEMB      25              0.0000000000
      2656        25  POPC      H7X            13.3578233549      -11.9891719466        9.6265773433  MEMB      25              0.0000000000
      2657        25  POPC      H7Y            13.8131984026      -10.3073609037        9.4073698362  MEMB      25              0.0000000000
      2658        25  POPC      C38            12.4848344015      -10.9525713144        7.9210231753  MEMB      25              0.0000000000
      2659        25  POPC      H8X            11.7514157216      -10.1302585604        7.7788275032  MEMB      25              0.0000000000
      2660        25  POPC      H8Y            11.9587301488      -11.9275481539        7.8376258382  MEMB      25              0.0000000000
      2661        25  POPC      C39            13.6663308360      -11.0923209017        6.8849258909  MEMB      25              0.0000000000
      2662        25  POPC      H9X            14.2977142234      -10.1913574894        7.0396548454  MEMB      25              0.0000000000
      2663        25  POPC      H9Y            13.2552225734      -11.1654622960        5.8553820624  MEMB      25              0.0000000000
      2664        25  POPC      C310           14.6668259967      -12.2711091350        7.1314442784  MEMB      25              0.0000000000
      2665        25  POPC      H10X           14.1253708062      -13.1853660013        6.8069723366  MEMB      25              0.0000000000
      2666        25  POPC      H10Y           14.7796220114      -12.2421797259        8.2363247847  MEMB      25              0.0000000000
      2667        25  POPC      C311           16.0097869479      -12.3216541993        6.4267389888  MEMB      25              0.0000000000
      2668        25  POPC      H11X           16.4417817963      -13.2438104107        6.8709570689  MEMB      25              0.0000000000
      2669        25  POPC      H11Y           16.5899495001      -11.4219682367        6.7238878752  MEMB      25              0.0000000000
      2670        25  POPC      C312           15.9180768354      -12.3503773614        4.9619998225  MEMB      25              0.0000000000
      2671        25  POPC      H12X           15.6293679410      -11.3324375948        4.6232268763  MEMB      25              0.0000000000
      2672        25  POPC      H12Y           15.3203562447      -13.1916570589        4.5505396374  MEMB      25              0.0000000000
      2673        25  POPC      C313           17.2205296760      -12.7580368634        4.2813333405  MEMB      25              0.0000000000
      2674        25  POPC      H13X           17.3294043748      -13.8351390781        4.5309698973  MEMB      25              0.0000000000
      2675        25  POPC      H13Y           18.1215461688      -12.2675808814        4.7078804969  MEMB      25              0.0000000000
      2676        25  POPC      C314           17.2711827414      -12.6958291012        2.6985483825  MEMB      25              0.0000000000
      2677        25  POPC      H14X           18.2666099824      -12.9498773202        2.2755768600  MEMB      25              0.0000000000
      2678        25  POPC      H14Y           17.1211885505      -11.6324644789        2.4138054162  MEMB      25              0.0000000000
      2679        25  POPC      C315           16.1001029011      -13.4549031679        2.0864349548  MEMB      25              0.0000000000
      2680        25  POPC      H15X           15.1350786884      -13.1156027265        2.5199384644  MEMB      25              0.0000000000
      2681        25  POPC      H15Y           16.1760224844      -14.5366349943        2.3281251260  MEMB      25              0.0000000000
      2682        25  POPC      C316           15.9196325052      -13.4580294411        0.5565582165  MEMB      25              0.0000000000
      2683        25  POPC      H16X           16.3611898203      -14.3613445189        0.0839377332  MEMB      25              0.0000000000
      2684        25  POPC      H16Y           16.3327743970      -12.5347114105        0.0970824609  MEMB      25              0.0000000000
      2685        25  POPC      H16Z           14.8232837012      -13.5727726745        0.4180866095  MEMB      25              0.0000000000
      2686        26  SAPS      N             -16.4925023630       10.2612189067       19.7892954382  MEMB      26              0.0000000000
      2687        26  SAPS      HN1           -15.5582175818       10.1799879410       20.2388658827  MEMB      26              0.0000000000
      2688        26  SAPS      HN2           -16.7236618060        9.4059443948       19.2446204469  MEMB      26              0.0000000000
      2689        26  SAPS      HN3           -16.4752207208       10.9273036162       18.9907765382  MEMB      26              0.0000000000
      2690        26  SAPS      C12           -17.2986208756       10.7717609746       20.8647673289  MEMB      26              0.0000000000
      2691        26  SAPS      H12A          -17.5570518949        9.9063676244       21.4569731104  MEMB      26              0.0000000000
      2692        26  SAPS      C13           -16.7217087405       11.6161070800       21.8660573234  MEMB      26              0.0000000000
      2693        26  SAPS      O13A          -15.4930436655       11.9444454992       21.7004749017  MEMB      26              0.0000000000
      2694        26  SAPS      O13B          -17.4195341077       12.1319254442       22.7446448536  MEMB      26              0.0000000000
      2695        26  SAPS      C11           -18.6332166556       11.3431213011       20.2778244537  MEMB      26              0.0000000000
      2696        26  SAPS      H11A          -18.4395436445       12.2776640443       19.7091051415  MEMB      26              0.0000000000
      2697        26  SAPS      H11B          -19.3839237261       11.5382293831       21.0732442849  MEMB      26              0.0000000000
      2698        26  SAPS      P             -20.5366355825       10.7124917727       18.6058684799  MEMB      26              0.0000000000
      2699        26  SAPS      O13           -21.7500794664       10.2055463216       19.2918282424  MEMB      26              0.0000000000
      2700        26  SAPS      O14           -20.5709353869       12.1482286260       18.1774600218  MEMB      26              0.0000000000
      2701        26  SAPS      O12           -19.2381865445       10.4155331363       19.3903278843  MEMB      26              0.0000000000
      2702        26  SAPS      O11           -20.4285459483        9.9153839843       17.2914511115  MEMB      26              0.0000000000
      2703        26  SAPS      C1            -20.3012672075        8.5350119418       17.2887829434  MEMB      26              0.0000000000
      2704        26  SAPS      HA            -20.5906933737        7.9587094548       18.1934535118  MEMB      26              0.0000000000
      2705        26  SAPS      HB            -20.8912049932        8.1554330967       16.4272642142  MEMB      26              0.0000000000
      2706        26  SAPS      C2            -18.7878282989        8.2010524244       16.8486153288  MEMB      26              0.0000000000
      2707        26  SAPS      HS            -18.1646769739        8.1304339660       17.7656847922  MEMB      26              0.0000000000
      2708        26  SAPS      O21           -18.4086372019        9.3673653689       16.0928958293  MEMB      26              0.0000000000
      2709        26  SAPS      C21           -17.1356602523        9.6003831792       16.0408844288  MEMB      26              0.0000000000
      2710        26  SAPS      O22           -16.1985190942        9.0878677627       16.6453047919  MEMB      26              0.0000000000
      2711        26  SAPS      C22           -16.8888372224       10.7868148642       15.0516304487  MEMB      26              0.0000000000
      2712        26  SAPS      H2R           -16.7981606389       10.2421056791       14.0875813988  MEMB      26              0.0000000000
      2713        26  SAPS      H2S           -17.6712699457       11.5548933804       15.2310052890  MEMB      26              0.0000000000
      2714        26  SAPS      C3            -18.5718827498        6.8944181448       15.9945704548  MEMB      26              0.0000000000
      2715        26  SAPS      HX            -19.0737178693        6.0011181459       16.4241024148  MEMB      26              0.0000000000
      2716        26  SAPS      HY            -17.4777063096        6.7035680358       16.0205630004  MEMB      26              0.0000000000
      2717        26  SAPS      O31           -19.1513928646        7.0587994757       14.6904208818  MEMB      26              0.0000000000
      2718        26  SAPS      C31           -18.3309788108        6.5386344114       13.7209098354  MEMB      26              0.0000000000
      2719        26  SAPS      O32           -17.2179325557        6.1177138249       13.8783058449  MEMB      26              0.0000000000
      2720        26  SAPS      C32           -18.9178676147        6.6527193715       12.3071710461  MEMB      26              0.0000000000
      2721        26  SAPS      H2X           -20.0219910658        6.6956021674       12.4229011913  MEMB      26              0.0000000000
      2722        26  SAPS      H2Y           -18.6324632620        5.8218049290       11.6271365738  MEMB      26              0.0000000000
      2723        26  SAPS      C23           -15.5054933778       11.4385530475       15.1496403619  MEMB      26              0.0000000000
      2724        26  SAPS      H3R           -14.8003917532       10.5879546101       15.2664086956  MEMB      26              0.0000000000
      2725        26  SAPS      H3S           -15.4813335240       11.8885507968       16.1651398693  MEMB      26              0.0000000000
      2726        26  SAPS      C24           -15.1573661648       12.4699625704       14.1201182451  MEMB      26              0.0000000000
      2727        26  SAPS      H4R           -15.1644958691       11.9055145408       13.1632121438  MEMB      26              0.0000000000
      2728        26  SAPS      H4S           -14.1520370855       12.8812287667       14.3535569926  MEMB      26              0.0000000000
      2729        26  SAPS      C25           -16.1622901312       13.6197007055       13.9617776980  MEMB      26              0.0000000000
      2730        26  SAPS      H5R           -16.2617410340       14.3018061455       14.8190068319  MEMB      26              0.0000000000
      2731        26  SAPS      C26           -17.0804906137       13.8810474749       12.9726675817  MEMB      26              0.0000000000
      2732        26  SAPS      H6R           -17.8212517335       14.6584432968       13.2112659052  MEMB      26              0.0000000000
      2733        26  SAPS      C27           -17.2982729575       12.9565163343       11.7727863222  MEMB      26              0.0000000000
      2734        26  SAPS      H7R           -16.9341491118       11.9406464483       12.0368758751  MEMB      26              0.0000000000
      2735        26  SAPS      H7S           -16.6345647886       13.3616839733       10.9792805072  MEMB      26              0.0000000000
      2736        26  SAPS      C28           -18.7434661273       12.9165544236       11.4570547377  MEMB      26              0.0000000000
      2737        26  SAPS      H8R           -19.3158274975       12.9113936661       12.3964035456  MEMB      26              0.0000000000
      2738        26  SAPS      C29           -19.4201854880       12.9725911354       10.2702342721  MEMB      26              0.0000000000
      2739        26  SAPS      H9R           -20.5178285279       12.9049739477       10.2948866151  MEMB      26              0.0000000000
      2740        26  SAPS      C210          -18.6951195693       13.0810447870        8.9525276288  MEMB      26              0.0000000000
      2741        26  SAPS      H10R          -18.2914695099       12.0509919274        8.8506521191  MEMB      26              0.0000000000
      2742        26  SAPS      H10S          -17.7814746464       13.7121574204        8.9881801964  MEMB      26              0.0000000000
      2743        26  SAPS      C211          -19.4756143184       13.3463558435        7.7452093714  MEMB      26              0.0000000000
      2744        26  SAPS      H11R          -20.1210240428       14.2370908510        7.7390890814  MEMB      26              0.0000000000
      2745        26  SAPS      C212          -19.7235101665       12.5172944653        6.7004117967  MEMB      26              0.0000000000
      2746        26  SAPS      H12R          -20.4002029368       13.0536296298        6.0189189867  MEMB      26              0.0000000000
      2747        26  SAPS      C213          -19.3533704035       11.0513527188        6.4033161448  MEMB      26              0.0000000000
      2748        26  SAPS      H13R          -18.5101814706       10.6109580947        6.9772550603  MEMB      26              0.0000000000
      2749        26  SAPS      H13S          -19.0289663225       10.9541559981        5.3451879502  MEMB      26              0.0000000000
      2750        26  SAPS      C214          -20.4862661603       10.0091044530        6.5775568334  MEMB      26              0.0000000000
      2751        26  SAPS      H14R          -20.2177004959        9.2318087541        7.3080938944  MEMB      26              0.0000000000
      2752        26  SAPS      C215          -21.7606968781       10.1029286020        6.2345697680  MEMB      26              0.0000000000
      2753        26  SAPS      H15R          -22.4875828485        9.3697984943        6.6142503579  MEMB      26              0.0000000000
      2754        26  SAPS      C216          -22.3926893841       11.2797266350        5.4930498800  MEMB      26              0.0000000000
      2755        26  SAPS      H16R          -21.6457082955       11.9418149862        5.0052184255  MEMB      26              0.0000000000
      2756        26  SAPS      H16S          -22.9759215111       11.9061080623        6.2014332971  MEMB      26              0.0000000000
      2757        26  SAPS      C217          -23.4032555748       10.8300083580        4.4347732257  MEMB      26              0.0000000000
      2758        26  SAPS      H17R          -23.4951183798       11.6797856980        3.7250118179  MEMB      26              0.0000000000
      2759        26  SAPS      H17S          -24.4023284401       10.7548059291        4.9148971456  MEMB      26              0.0000000000
      2760        26  SAPS      C218          -22.9894564748        9.5786287046        3.6372073375  MEMB      26              0.0000000000
      2761        26  SAPS      H18R          -23.0612462142        8.6113963968        4.1790834154  MEMB      26              0.0000000000
      2762        26  SAPS      H18S          -21.8977629739        9.6891864503        3.4631284802  MEMB      26              0.0000000000
      2763        26  SAPS      C219          -23.5878386799        9.3051476136        2.2245687559  MEMB      26              0.0000000000
      2764        26  SAPS      H19R          -24.6850331403        9.3839871801        2.3803547743  MEMB      26              0.0000000000
      2765        26  SAPS      H19S          -23.3976888997        8.2248270679        2.0482978269  MEMB      26              0.0000000000
      2766        26  SAPS      C220          -23.1517238177       10.2330879417        1.0982149823  MEMB      26              0.0000000000
      2767        26  SAPS      H20R          -23.2565686819       11.2713039395        1.4795759698  MEMB      26              0.0000000000
      2768        26  SAPS      H20S          -23.9001877138       10.2467666547        0.2772789668  MEMB      26              0.0000000000
      2769        26  SAPS      H20T          -22.1392595105        9.9860728647        0.7132203237  MEMB      26              0.0000000000
      2770        26  SAPS      C33           -18.5293819941        7.9185281477       11.5736388370  MEMB      26              0.0000000000
      2771        26  SAPS      H3X           -18.3733307294        8.8324122539       12.1858358828  MEMB      26              0.0000000000
      2772        26  SAPS      H3Y           -19.2244573245        8.0740054142       10.7209854968  MEMB      26              0.0000000000
      2773        26  SAPS      C34           -17.1445056444        7.8132321680       10.8779930709  MEMB      26              0.0000000000
      2774        26  SAPS      H4X           -16.9975472791        6.8229820338       10.3961954155  MEMB      26              0.0000000000
      2775        26  SAPS      H4Y           -16.3329239896        7.9201510425       11.6291413908  MEMB      26              0.0000000000
      2776        26  SAPS      C35           -17.0207395270        8.9088202489        9.7175849115  MEMB      26              0.0000000000
      2777        26  SAPS      H5X           -17.1195140751        9.8742315102       10.2584600948  MEMB      26              0.0000000000
      2778        26  SAPS      H5Y           -17.9261498357        8.7999981271        9.0829899531  MEMB      26              0.0000000000
      2779        26  SAPS      C36           -15.7192961909        8.7853601200        8.9834791920  MEMB      26              0.0000000000
      2780        26  SAPS      H6X           -14.9231847739        8.9215314100        9.7463583803  MEMB      26              0.0000000000
      2781        26  SAPS      H6Y           -15.5875986609        9.6129196818        8.2540124355  MEMB      26              0.0000000000
      2782        26  SAPS      C37           -15.6062138751        7.4604302989        8.1919539487  MEMB      26              0.0000000000
      2783        26  SAPS      H7X           -15.7433555851        6.5839519262        8.8607583226  MEMB      26              0.0000000000
      2784        26  SAPS      H7Y           -14.5453093555        7.3482703526        7.8817562661  MEMB      26              0.0000000000
      2785        26  SAPS      C38           -16.5604443398        7.3384548836        6.9477304527  MEMB      26              0.0000000000
      2786        26  SAPS      H8X           -17.6456078137        7.4283969913        7.1683020668  MEMB      26              0.0000000000
      2787        26  SAPS      H8Y           -16.4070306804        6.3900416266        6.3897908653  MEMB      26              0.0000000000
      2788        26  SAPS      C39           -16.3547775392        8.4566734449        5.8422676864  MEMB      26              0.0000000000
      2789        26  SAPS      H9X           -15.3414556891        8.2300461232        5.4471222955  MEMB      26              0.0000000000
      2790        26  SAPS      H9Y           -16.4842933628        9.5340765660        6.0804883645  MEMB      26              0.0000000000
      2791        26  SAPS      C310          -17.2510506682        8.1716475497        4.6909358040  MEMB      26              0.0000000000
      2792        26  SAPS      H10X          -18.3072757737        8.2084103449        5.0335109742  MEMB      26              0.0000000000
      2793        26  SAPS      H10Y          -17.1603111193        7.1467507493        4.2718009439  MEMB      26              0.0000000000
      2794        26  SAPS      C311          -17.1750864708        9.1207250704        3.3825643820  MEMB      26              0.0000000000
      2795        26  SAPS      H11X          -16.1464322096        8.9234983515        3.0120345194  MEMB      26              0.0000000000
      2796        26  SAPS      H11Y          -17.2175315195       10.2199520798        3.5381913930  MEMB      26              0.0000000000
      2797        26  SAPS      C312          -18.2010682868        8.6433655609        2.3617330708  MEMB      26              0.0000000000
      2798        26  SAPS      H12X          -19.1984132463        8.6270341275        2.8509742871  MEMB      26              0.0000000000
      2799        26  SAPS      H12Y          -17.9575063281        7.6159231437        2.0162459969  MEMB      26              0.0000000000
      2800        26  SAPS      C313          -18.3856164149        9.7687875149        1.2646881475  MEMB      26              0.0000000000
      2801        26  SAPS      H13X          -19.0492844075        9.2855457435        0.5161274435  MEMB      26              0.0000000000
      2802        26  SAPS      H13Y          -17.3750956354        9.9869800087        0.8577960725  MEMB      26              0.0000000000
      2803        26  SAPS      C314          -18.9935226982       11.1893556387        1.5403675027  MEMB      26              0.0000000000
      2804        26  SAPS      H14X          -18.2763107095       11.7436655387        2.1827596239  MEMB      26              0.0000000000
      2805        26  SAPS      H14Y          -20.0005150379       11.0763110233        1.9958974337  MEMB      26              0.0000000000
      2806        26  SAPS      C315          -19.2411432736       11.9448492820        0.2321497302  MEMB      26              0.0000000000
      2807        26  SAPS      H15X          -19.5829392794       12.9890345208        0.3969937637  MEMB      26              0.0000000000
      2808        26  SAPS      H15Y          -19.9895272010       11.5017771748       -0.4591752740  MEMB      26              0.0000000000
      2809        26  SAPS      C316          -17.8925382611       12.2763323741       -0.5809289700  MEMB      26              0.0000000000
      2810        26  SAPS      H16X          -17.0846870344       11.5754465113       -0.2801692260  MEMB      26              0.0000000000
      2811        26  SAPS      H16Y          -17.4833087746       13.2723014100       -0.3072549351  MEMB      26              0.0000000000
      2812        26  SAPS      C317          -17.9188054877       12.2083340128       -2.0873997820  MEMB      26              0.0000000000
      2813        26  SAPS      H17X          -18.5890836649       12.9255640519       -2.6076197785  MEMB      26              0.0000000000
      2814        26  SAPS      H17Y          -18.3160150679       11.1895562132       -2.2839640144  MEMB      26              0.0000000000
      2815        26  SAPS      C318          -16.5687335609       12.4192588335       -2.7868771219  MEMB      26              0.0000000000
      2816        26  SAPS      H18X          -16.3198321087       13.4951396804       -2.6650198636  MEMB      26              0.0000000000
      2817        26  SAPS      H18Y          -16.7884772448       12.2137558857       -3.8563655195  MEMB      26              0.0000000000
      2818        26  SAPS      H18Z          -15.7718119069       11.7304579334       -2.4336204876  MEMB      26              0.0000000000
      2819        27  CHL1      C3             13.7249132239      -17.1927124056       17.2998400000  MEMB      27              0.0000000000
      2820        27  CHL1      H3             13.3903308286      -16.1435409119       17.1528200000  MEMB      27              0.0000000000
      2821        27  CHL1      O3             13.7921111761      -17.4602325944       18.7001600000  MEMB      27              0.0000000000
      2822        27  CHL1      H3'            13.8843966392      -16.6218793018       19.1587000000  MEMB      27              0.0000000000
      2823        27  CHL1      C4             12.7064318090      -18.0900080452       16.5330900000  MEMB      27              0.0000000000
      2824        27  CHL1      H4A            12.7402187173      -19.1537503819       16.8519000000  MEMB      27              0.0000000000
      2825        27  CHL1      H4B            11.7802577025      -17.6641379908       16.9748500000  MEMB      27              0.0000000000
      2826        27  CHL1      C5             12.8896245182      -18.1798660772       15.0270400000  MEMB      27              0.0000000000
      2827        27  CHL1      C6             11.7989291495      -18.1364998931       14.2668000000  MEMB      27              0.0000000000
      2828        27  CHL1      H6             10.8343159915      -18.1177178245       14.7951700000  MEMB      27              0.0000000000
      2829        27  CHL1      C7             11.7754243505      -18.2686811510       12.7315500000  MEMB      27              0.0000000000
      2830        27  CHL1      H7A            11.0424229045      -18.9783591606       12.2918000000  MEMB      27              0.0000000000
      2831        27  CHL1      H7B            11.5250243921      -17.3005397740       12.2474800000  MEMB      27              0.0000000000
      2832        27  CHL1      C8             13.1654816053      -18.7426738579       12.2304600000  MEMB      27              0.0000000000
      2833        27  CHL1      H8             13.2915979046      -19.8296541454       12.4225100000  MEMB      27              0.0000000000
      2834        27  CHL1      C14            13.2932633528      -18.4327271689       10.7182000000  MEMB      27              0.0000000000
      2835        27  CHL1      H14            13.1976640486      -17.3352970197       10.5738500000  MEMB      27              0.0000000000
      2836        27  CHL1      C15            12.2293068613      -18.9339499220        9.7419700000  MEMB      27              0.0000000000
      2837        27  CHL1      H15A           11.9229053083      -19.9937921491        9.8730200000  MEMB      27              0.0000000000
      2838        27  CHL1      H15B           11.3419908802      -18.2656646523        9.7614800000  MEMB      27              0.0000000000
      2839        27  CHL1      C16            12.9093964158      -18.8610429864        8.3289300000  MEMB      27              0.0000000000
      2840        27  CHL1      H16A           12.8085238444      -19.8642919406        7.8624100000  MEMB      27              0.0000000000
      2841        27  CHL1      H16B           12.3833824673      -18.1407805850        7.6664600000  MEMB      27              0.0000000000
      2842        27  CHL1      C17            14.3465813658      -18.4443370972        8.5961600000  MEMB      27              0.0000000000
      2843        27  CHL1      H17            14.3363923564      -17.3448098913        8.4372000000  MEMB      27              0.0000000000
      2844        27  CHL1      C13            14.6908576076      -18.7841867989       10.0537400000  MEMB      27              0.0000000000
      2845        27  CHL1      C18            14.8885215555      -20.3271367131       10.2360000000  MEMB      27              0.0000000000
      2846        27  CHL1      H18A           15.5387742582      -20.8161275043        9.4794400000  MEMB      27              0.0000000000
      2847        27  CHL1      H18B           15.2601882270      -20.5275267043       11.2636400000  MEMB      27              0.0000000000
      2848        27  CHL1      H18C           13.9109835757      -20.8371954969       10.3722400000  MEMB      27              0.0000000000
      2849        27  CHL1      C12            15.7737606042      -18.0021825983       10.7611800000  MEMB      27              0.0000000000
      2850        27  CHL1      H12A           16.7721561031      -18.3584909263       10.4286600000  MEMB      27              0.0000000000
      2851        27  CHL1      H12B           15.6064923416      -16.9125939355       10.6228400000  MEMB      27              0.0000000000
      2852        27  CHL1      C11            15.7279630418      -18.2467260558       12.2789200000  MEMB      27              0.0000000000
      2853        27  CHL1      H11A           16.0665490201      -19.2682535208       12.5549200000  MEMB      27              0.0000000000
      2854        27  CHL1      H11B           16.4381766852      -17.5800461979       12.8132100000  MEMB      27              0.0000000000
      2855        27  CHL1      C9             14.2888081013      -18.0108861814       12.9510400000  MEMB      27              0.0000000000
      2856        27  CHL1      H9             14.1903612621      -16.9089609188       12.8491400000  MEMB      27              0.0000000000
      2857        27  CHL1      C10            14.3199564924      -18.3157501200       14.5064700000  MEMB      27              0.0000000000
      2858        27  CHL1      C19            14.8614591076      -19.7675976922       14.8434500000  MEMB      27              0.0000000000
      2859        27  CHL1      H19A           15.9558379282      -19.6586164041       14.6860100000  MEMB      27              0.0000000000
      2860        27  CHL1      H19B           14.5211170312      -20.1218101137       15.8399500000  MEMB      27              0.0000000000
      2861        27  CHL1      H19C           14.4928110648      -20.5481676660       14.1440700000  MEMB      27              0.0000000000
      2862        27  CHL1      C1             15.2189680221      -17.2467199205       15.2285100000  MEMB      27              0.0000000000
      2863        27  CHL1      H1A            16.2243991173      -17.4865262242       14.8211700000  MEMB      27              0.0000000000
      2864        27  CHL1      H1B            14.8412606410      -16.2537387802       14.9034700000  MEMB      27              0.0000000000
      2865        27  CHL1      C2             15.1432073760      -17.3935505655       16.7244900000  MEMB      27              0.0000000000
      2866        27  CHL1      H2A            15.7965094876      -16.6441408434       17.2203700000  MEMB      27              0.0000000000
      2867        27  CHL1      H2B            15.4920425752      -18.3979788588       17.0466000000  MEMB      27              0.0000000000
      2868        27  CHL1      C20            15.2190261978      -18.9894056565        7.4738300000  MEMB      27              0.0000000000
      2869        27  CHL1      H20            15.0271242256      -20.0760865685        7.3449000000  MEMB      27              0.0000000000
      2870        27  CHL1      C21            16.7317338478      -18.9356231315        7.7477100000  MEMB      27              0.0000000000
      2871        27  CHL1      H21A           17.0252961794      -17.8718499763        7.8763100000  MEMB      27              0.0000000000
      2872        27  CHL1      H21B           17.2954373983      -19.4263141120        6.9256500000  MEMB      27              0.0000000000
      2873        27  CHL1      H21C           16.8999432308      -19.4377292417        8.7244000000  MEMB      27              0.0000000000
      2874        27  CHL1      C22            14.7367392943      -18.3234206641        6.1465300000  MEMB      27              0.0000000000
      2875        27  CHL1      H22A           13.7920241877      -18.6974733380        5.6971800000  MEMB      27              0.0000000000
      2876        27  CHL1      H22B           14.5830059872      -17.2452199766        6.3660100000  MEMB      27              0.0000000000
      2877        27  CHL1      C23            15.6723973896      -18.4140151274        4.8980100000  MEMB      27              0.0000000000
      2878        27  CHL1      H23A           16.5397516972      -17.7664494152        5.1483300000  MEMB      27              0.0000000000
      2879        27  CHL1      H23B           15.9732111086      -19.4834460633        4.8860000000  MEMB      27              0.0000000000
      2880        27  CHL1      C24            15.1054357257      -17.8677648344        3.6096500000  MEMB      27              0.0000000000
      2881        27  CHL1      H24A           14.6259330187      -16.8974110784        3.8602500000  MEMB      27              0.0000000000
      2882        27  CHL1      H24B           15.9402784895      -17.6604657406        2.9065200000  MEMB      27              0.0000000000
      2883        27  CHL1      C25            14.0206816947      -18.6971134885        2.8727500000  MEMB      27              0.0000000000
      2884        27  CHL1      H25            13.2910684426      -19.1318596108        3.5889800000  MEMB      27              0.0000000000
      2885        27  CHL1      C26            13.3812471750      -17.8508955431        1.7551600000  MEMB      27              0.0000000000
      2886        27  CHL1      H26A           14.0748242767      -17.6538987753        0.9099100000  MEMB      27              0.0000000000
      2887        27  CHL1      H26B           12.5929897856      -18.4017873316        1.1988400000  MEMB      27              0.0000000000
      2888        27  CHL1      H26C           13.0324967610      -16.8625593849        2.1237900000  MEMB      27              0.0000000000
      2889        27  CHL1      C27            14.7715137092      -20.0034563654        2.2966300000  MEMB      27              0.0000000000
      2890        27  CHL1      H27A           15.7464375728      -19.6451682339        1.9023400000  MEMB      27              0.0000000000
      2891        27  CHL1      H27B           14.9156597682      -20.7810134950        3.0769800000  MEMB      27              0.0000000000
      2892        27  CHL1      H27C           14.1781049081      -20.5330637778        1.5209300000  MEMB      27              0.0000000000
      2893        28  SAPE      N              20.5063158933       -1.8434539303       22.4577321624  MEMB      28              0.0000000000
      2894        28  SAPE      HN1            21.4433723931       -2.1316713375       22.8047995483  MEMB      28              0.0000000000
      2895        28  SAPE      HN2            20.4752988575       -0.8057254923       22.3964339229  MEMB      28              0.0000000000
      2896        28  SAPE      HN3            19.9294956741       -2.1352844720       23.2724182182  MEMB      28              0.0000000000
      2897        28  SAPE      C12            20.0905758170       -2.2731866126       21.1479012080  MEMB      28              0.0000000000
      2898        28  SAPE      H12A           20.1558494934       -1.4298494687       20.4275937971  MEMB      28              0.0000000000
      2899        28  SAPE      H12B           18.9932399322       -2.4430318487       21.1843339371  MEMB      28              0.0000000000
      2900        28  SAPE      C11            20.7943413437       -3.5717371758       20.7516375044  MEMB      28              0.0000000000
      2901        28  SAPE      H11A           20.2649503389       -3.9556498638       19.8534854133  MEMB      28              0.0000000000
      2902        28  SAPE      H11B           20.5724022676       -4.3019051550       21.5590524164  MEMB      28              0.0000000000
      2903        28  SAPE      P              22.7334667884       -3.3792864810       19.0990122557  MEMB      28              0.0000000000
      2904        28  SAPE      O13            24.1881609320       -3.2082701458       19.0400062148  MEMB      28              0.0000000000
      2905        28  SAPE      O14            22.2273791299       -4.5710881729       18.4400666453  MEMB      28              0.0000000000
      2906        28  SAPE      O12            22.1917932172       -3.3733354807       20.5958785299  MEMB      28              0.0000000000
      2907        28  SAPE      O11            22.0693660134       -2.1344705962       18.4677654610  MEMB      28              0.0000000000
      2908        28  SAPE      C1             22.5087362549       -0.8096665781       18.6932609027  MEMB      28              0.0000000000
      2909        28  SAPE      HA             21.9455260282       -0.5587493803       19.6174663754  MEMB      28              0.0000000000
      2910        28  SAPE      HB             23.6067850201       -0.7355965210       18.8453255721  MEMB      28              0.0000000000
      2911        28  SAPE      C2             22.1120194512        0.2000542757       17.4664283835  MEMB      28              0.0000000000
      2912        28  SAPE      HS             21.9104064772        1.2022273282       17.9015400648  MEMB      28              0.0000000000
      2913        28  SAPE      O21            21.0015352729       -0.2547192788       16.6162181069  MEMB      28              0.0000000000
      2914        28  SAPE      C21            19.8516308556       -0.5483009821       17.2101609430  MEMB      28              0.0000000000
      2915        28  SAPE      O22            19.5923978061       -0.4251334369       18.4007010925  MEMB      28              0.0000000000
      2916        28  SAPE      C22            18.9332028300       -1.1462822037       16.1157625504  MEMB      28              0.0000000000
      2917        28  SAPE      H2R            18.9074688667       -2.2462236016       16.2699956078  MEMB      28              0.0000000000
      2918        28  SAPE      H2S            17.8982787785       -0.7456619840       16.1682664676  MEMB      28              0.0000000000
      2919        28  SAPE      C3             23.3073936374        0.3574201843       16.5584505574  MEMB      28              0.0000000000
      2920        28  SAPE      HX             24.0954036129        0.7775611910       17.2193913856  MEMB      28              0.0000000000
      2921        28  SAPE      HY             23.2240123273        1.1410146209       15.7752852692  MEMB      28              0.0000000000
      2922        28  SAPE      O31            23.7232571773       -0.9724664900       16.1143218470  MEMB      28              0.0000000000
      2923        28  SAPE      C31            23.1485342660       -1.5139200635       15.0009560965  MEMB      28              0.0000000000
      2924        28  SAPE      O32            22.3746548115       -0.9163923693       14.2395070839  MEMB      28              0.0000000000
      2925        28  SAPE      C32            23.7910618541       -2.9575152532       14.9019743083  MEMB      28              0.0000000000
      2926        28  SAPE      H2X            23.9506985164       -3.4429626383       15.8884718562  MEMB      28              0.0000000000
      2927        28  SAPE      H2Y            24.8117132072       -2.7697910146       14.5052981376  MEMB      28              0.0000000000
      2928        28  SAPE      C23            19.4129374962       -0.9496896711       14.6522338630  MEMB      28              0.0000000000
      2929        28  SAPE      H3R            20.0587333742       -1.8429417539       14.5130590788  MEMB      28              0.0000000000
      2930        28  SAPE      H3S            20.0104137879       -0.0132169579       14.6332144826  MEMB      28              0.0000000000
      2931        28  SAPE      C24            18.2105160868       -0.7488999479       13.6989402721  MEMB      28              0.0000000000
      2932        28  SAPE      H4R            17.8620852553        0.2696244979       13.9737580684  MEMB      28              0.0000000000
      2933        28  SAPE      H4S            17.3128623119       -1.3925589201       13.8182799838  MEMB      28              0.0000000000
      2934        28  SAPE      C25            18.7038898789       -0.7435592661       12.3305932064  MEMB      28              0.0000000000
      2935        28  SAPE      H5R            19.1806850635        0.1969006200       12.0172220256  MEMB      28              0.0000000000
      2936        28  SAPE      C26            18.8436268414       -1.7647067384       11.4758412227  MEMB      28              0.0000000000
      2937        28  SAPE      H6R            19.1992674361       -1.4941036670       10.4707071584  MEMB      28              0.0000000000
      2938        28  SAPE      C27            18.5112390101       -3.2142189157       11.7517786325  MEMB      28              0.0000000000
      2939        28  SAPE      H7R            17.9968607758       -3.6136847236       10.8516875109  MEMB      28              0.0000000000
      2940        28  SAPE      H7S            17.8341208720       -3.2591606245       12.6314441849  MEMB      28              0.0000000000
      2941        28  SAPE      C28            19.7680275247       -4.0622356262       11.9659640865  MEMB      28              0.0000000000
      2942        28  SAPE      H8R            20.3431282983       -4.0610903842       12.9036517204  MEMB      28              0.0000000000
      2943        28  SAPE      C29            20.2030907463       -5.0618350064       11.1288832121  MEMB      28              0.0000000000
      2944        28  SAPE      H9R            21.1409853923       -5.5357228116       11.4541269700  MEMB      28              0.0000000000
      2945        28  SAPE      C210           19.5675848353       -5.4303126320        9.8272053950  MEMB      28              0.0000000000
      2946        28  SAPE      H10R           19.9660113784       -4.6703110530        9.1215324726  MEMB      28              0.0000000000
      2947        28  SAPE      H10S           18.4571565703       -5.4659471496        9.8274791562  MEMB      28              0.0000000000
      2948        28  SAPE      C211           20.0576582727       -6.7923695304        9.3828289491  MEMB      28              0.0000000000
      2949        28  SAPE      H11R           19.8366491541       -7.6960877154        9.9697264059  MEMB      28              0.0000000000
      2950        28  SAPE      C212           20.8423264782       -7.0630909653        8.3191209479  MEMB      28              0.0000000000
      2951        28  SAPE      H12R           20.9574668583       -8.1309398638        8.0815468342  MEMB      28              0.0000000000
      2952        28  SAPE      C213           21.4230687078       -6.0551026989        7.2630520746  MEMB      28              0.0000000000
      2953        28  SAPE      H13R           22.3757328492       -6.5671094629        7.0088842644  MEMB      28              0.0000000000
      2954        28  SAPE      H13S           21.6991853728       -5.1262947028        7.8065551767  MEMB      28              0.0000000000
      2955        28  SAPE      C214           20.5267374679       -5.8128409985        6.0741772375  MEMB      28              0.0000000000
      2956        28  SAPE      H14R           19.4894675271       -5.6256900141        6.3888929153  MEMB      28              0.0000000000
      2957        28  SAPE      C215           20.7327133056       -5.9533970214        4.7575118989  MEMB      28              0.0000000000
      2958        28  SAPE      H15R           19.7532380184       -5.9186745270        4.2580896206  MEMB      28              0.0000000000
      2959        28  SAPE      C216           21.9597600468       -6.3857377343        4.0406413409  MEMB      28              0.0000000000
      2960        28  SAPE      H16R           21.6469001419       -6.9900370510        3.1624255004  MEMB      28              0.0000000000
      2961        28  SAPE      H16S           22.6017336461       -6.9928598207        4.7141344704  MEMB      28              0.0000000000
      2962        28  SAPE      C217           22.9260504867       -5.2806650788        3.6523953583  MEMB      28              0.0000000000
      2963        28  SAPE      H17R           23.8223965664       -5.7162230711        3.1613000215  MEMB      28              0.0000000000
      2964        28  SAPE      H17S           23.2513401236       -4.6929926363        4.5373524099  MEMB      28              0.0000000000
      2965        28  SAPE      C218           22.3942121660       -4.2761380845        2.6309356589  MEMB      28              0.0000000000
      2966        28  SAPE      H18R           21.6646963601       -3.6370616581        3.1728855273  MEMB      28              0.0000000000
      2967        28  SAPE      H18S           21.8181369330       -4.6982132295        1.7798713154  MEMB      28              0.0000000000
      2968        28  SAPE      C219           23.4290902045       -3.3434666652        2.0283443185  MEMB      28              0.0000000000
      2969        28  SAPE      H19R           24.2311508771       -4.0028372308        1.6330591314  MEMB      28              0.0000000000
      2970        28  SAPE      H19S           23.7909840583       -2.7609803170        2.9024512701  MEMB      28              0.0000000000
      2971        28  SAPE      C220           22.8265174530       -2.4640314062        0.9283264273  MEMB      28              0.0000000000
      2972        28  SAPE      H20R           22.3143232321       -3.0247407142        0.1174121764  MEMB      28              0.0000000000
      2973        28  SAPE      H20S           23.6572781448       -1.8360548516        0.5412831558  MEMB      28              0.0000000000
      2974        28  SAPE      H20T           22.0895011212       -1.7843199444        1.4069918729  MEMB      28              0.0000000000
      2975        28  SAPE      C33            22.9878053499       -3.9132472671       14.0785500083  MEMB      28              0.0000000000
      2976        28  SAPE      H3X            22.8807264041       -3.4668058543       13.0668457930  MEMB      28              0.0000000000
      2977        28  SAPE      H3Y            21.9697299702       -4.2143253039       14.4059573127  MEMB      28              0.0000000000
      2978        28  SAPE      C34            23.6920489439       -5.3514992854       13.8129476093  MEMB      28              0.0000000000
      2979        28  SAPE      H4X            22.9889897187       -5.9214580309       13.1686061692  MEMB      28              0.0000000000
      2980        28  SAPE      H4Y            23.7666191220       -5.8881546420       14.7828761513  MEMB      28              0.0000000000
      2981        28  SAPE      C35            25.1117700795       -5.3028686825       13.2064302422  MEMB      28              0.0000000000
      2982        28  SAPE      H5X            25.2909973000       -6.3829437780       13.0176528828  MEMB      28              0.0000000000
      2983        28  SAPE      H5Y            25.7684831510       -4.8776544715       13.9952531768  MEMB      28              0.0000000000
      2984        28  SAPE      C36            25.1307049265       -4.3864347172       11.8799066752  MEMB      28              0.0000000000
      2985        28  SAPE      H6X            26.1427429033       -4.3624148160       11.4221695249  MEMB      28              0.0000000000
      2986        28  SAPE      H6Y            24.7975840058       -3.4384298910       12.3538668142  MEMB      28              0.0000000000
      2987        28  SAPE      C37            24.2778422035       -4.9966765729       10.6941237961  MEMB      28              0.0000000000
      2988        28  SAPE      H7X            23.2945005300       -5.4190795860       10.9923455165  MEMB      28              0.0000000000
      2989        28  SAPE      H7Y            24.8823413242       -5.8621296598       10.3478686780  MEMB      28              0.0000000000
      2990        28  SAPE      C38            24.0004359381       -4.0107899970        9.5171807650  MEMB      28              0.0000000000
      2991        28  SAPE      H8X            23.3924431218       -4.5053295256        8.7297189896  MEMB      28              0.0000000000
      2992        28  SAPE      H8Y            24.9339714604       -3.7071091804        8.9969788689  MEMB      28              0.0000000000
      2993        28  SAPE      C39            23.1747369165       -2.8038521820        9.9296434577  MEMB      28              0.0000000000
      2994        28  SAPE      H9X            23.6211357911       -2.3905338387       10.8592761138  MEMB      28              0.0000000000
      2995        28  SAPE      H9Y            22.1964931539       -3.2475958415       10.2132829845  MEMB      28              0.0000000000
      2996        28  SAPE      C310           23.1232469427       -1.7002089132        8.9178859273  MEMB      28              0.0000000000
      2997        28  SAPE      H10X           22.8480056989       -2.0854506522        7.9128221650  MEMB      28              0.0000000000
      2998        28  SAPE      H10Y           24.1297393498       -1.2426580694        9.0271610391  MEMB      28              0.0000000000
      2999        28  SAPE      C311           22.0623505028       -0.6813953189        9.3262430695  MEMB      28              0.0000000000
      3000        28  SAPE      H11X           22.0374692416       -0.4334691259       10.4089410045  MEMB      28              0.0000000000
      3001        28  SAPE      H11Y           21.0205606280       -1.0436743537        9.1930199030  MEMB      28              0.0000000000
      3002        28  SAPE      C312           22.2749705849        0.7020848499        8.6352350785  MEMB      28              0.0000000000
      3003        28  SAPE      H12X           23.0128154699        1.2125449656        9.2904731832  MEMB      28              0.0000000000
      3004        28  SAPE      H12Y           21.3859514214        1.3683008701        8.6462916991  MEMB      28              0.0000000000
      3005        28  SAPE      C313           22.7874670042        0.5935140133        7.1320449038  MEMB      28              0.0000000000
      3006        28  SAPE      H13X           23.7180001288        0.0020580377        6.9956303310  MEMB      28              0.0000000000
      3007        28  SAPE      H13Y           23.0514897938        1.6198968963        6.7986526786  MEMB      28              0.0000000000
      3008        28  SAPE      C314           21.6208629517       -0.0440276319        6.3166966944  MEMB      28              0.0000000000
      3009        28  SAPE      H14X           20.7236456633        0.5932388861        6.4690570781  MEMB      28              0.0000000000
      3010        28  SAPE      H14Y           21.5540388028       -1.0656476956        6.7481460795  MEMB      28              0.0000000000
      3011        28  SAPE      C315           22.0149268732       -0.1445415089        4.8616640843  MEMB      28              0.0000000000
      3012        28  SAPE      H15X           22.0232771196       -1.1913033858        4.4894531166  MEMB      28              0.0000000000
      3013        28  SAPE      H15Y           23.0403770369        0.2482252544        4.6928226727  MEMB      28              0.0000000000
      3014        28  SAPE      C316           21.1400399609        0.6544966688        3.8946551123  MEMB      28              0.0000000000
      3015        28  SAPE      H16X           21.6637517928        0.7516204764        2.9196598767  MEMB      28              0.0000000000
      3016        28  SAPE      H16Y           21.1472880591        1.6999869710        4.2704457198  MEMB      28              0.0000000000
      3017        28  SAPE      C317           19.7042449056        0.1753540726        3.6781191606  MEMB      28              0.0000000000
      3018        28  SAPE      H17X           19.1339790522        0.3624132411        4.6130664236  MEMB      28              0.0000000000
      3019        28  SAPE      H17Y           19.8308912404       -0.9081427547        3.4676041787  MEMB      28              0.0000000000
      3020        28  SAPE      C318           18.9804168599        1.0529593377        2.6992750116  MEMB      28              0.0000000000
      3021        28  SAPE      H18X           18.6693302411        1.9737880969        3.2374386019  MEMB      28              0.0000000000
      3022        28  SAPE      H18Y           18.0241483872        0.5715536631        2.4024238414  MEMB      28              0.0000000000
      3023        28  SAPE      H18Z           19.5737918460        1.2815980393        1.7882581943  MEMB      28              0.0000000000
      3024        29  SAPC      N             -20.8255140462        4.8885149993       22.0110641644  MEMB      29              0.0000000000
      3025        29  SAPC      C12           -22.3250187443        4.8431416863       21.7563773827  MEMB      29              0.0000000000
      3026        29  SAPC      H12A          -22.6774979512        5.4153109947       22.6018244781  MEMB      29              0.0000000000
      3027        29  SAPC      H12B          -22.6922416704        3.8276776897       21.7368798334  MEMB      29              0.0000000000
      3028        29  SAPC      C13           -20.0089234542        4.1803259116       20.9809851702  MEMB      29              0.0000000000
      3029        29  SAPC      H13A          -18.9384123586        4.2675694178       21.0940988554  MEMB      29              0.0000000000
      3030        29  SAPC      H13B          -20.2098733553        3.1208650515       20.9213040316  MEMB      29              0.0000000000
      3031        29  SAPC      H13C          -20.2112841660        4.5447108562       19.9846550669  MEMB      29              0.0000000000
      3032        29  SAPC      C14           -20.4357488148        6.3644889323       22.0265008637  MEMB      29              0.0000000000
      3033        29  SAPC      H14A          -20.8656388583        6.9299767564       22.8400227868  MEMB      29              0.0000000000
      3034        29  SAPC      H14B          -19.3594192812        6.3235666167       22.1054942176  MEMB      29              0.0000000000
      3035        29  SAPC      H14C          -20.6640232086        6.7816872677       21.0568429711  MEMB      29              0.0000000000
      3036        29  SAPC      C15           -20.4898779201        4.2604548706       23.3608202705  MEMB      29              0.0000000000
      3037        29  SAPC      H15A          -20.8182223495        3.2403673710       23.4950272334  MEMB      29              0.0000000000
      3038        29  SAPC      H15B          -19.4311498285        4.3180513799       23.5661919792  MEMB      29              0.0000000000
      3039        29  SAPC      H15C          -20.8635507351        4.8438337523       24.1893356575  MEMB      29              0.0000000000
      3040        29  SAPC      C11           -22.8828306430        5.5267327070       20.4336199765  MEMB      29              0.0000000000
      3041        29  SAPC      H11A          -22.5821998052        6.5914823611       20.3323769040  MEMB      29              0.0000000000
      3042        29  SAPC      H11B          -23.9698025313        5.5503413703       20.6622152250  MEMB      29              0.0000000000
      3043        29  SAPC      P             -22.6952301703        5.0782532123       17.8317274838  MEMB      29              0.0000000000
      3044        29  SAPC      O13           -21.6358861431        6.1282004979       17.6350584435  MEMB      29              0.0000000000
      3045        29  SAPC      O14           -22.4151250246        3.8957025703       17.0253912306  MEMB      29              0.0000000000
      3046        29  SAPC      O12           -22.7382706870        4.6128634929       19.3086003062  MEMB      29              0.0000000000
      3047        29  SAPC      O11           -24.1193075144        5.7712442276       17.6298547191  MEMB      29              0.0000000000
      3048        29  SAPC      C1            -25.2314902800        5.0660166389       18.0625380696  MEMB      29              0.0000000000
      3049        29  SAPC      HA            -25.1159020464        3.9611306439       18.0762249654  MEMB      29              0.0000000000
      3050        29  SAPC      HB            -25.4934714866        5.3174735121       19.1125171359  MEMB      29              0.0000000000
      3051        29  SAPC      C2            -26.4250457962        5.3420774624       17.1368944281  MEMB      29              0.0000000000
      3052        29  SAPC      HS            -27.2373641163        4.6151550629       17.3514737227  MEMB      29              0.0000000000
      3053        29  SAPC      O21           -26.0055411636        5.0685231276       15.7725316014  MEMB      29              0.0000000000
      3054        29  SAPC      C21           -26.1935918737        3.9294705216       15.2827665867  MEMB      29              0.0000000000
      3055        29  SAPC      O22           -26.5381383430        2.8774735493       15.8249399918  MEMB      29              0.0000000000
      3056        29  SAPC      C22           -26.2136937321        4.0321989035       13.6988735433  MEMB      29              0.0000000000
      3057        29  SAPC      H2R           -27.2631492315        4.1377124524       13.3498299860  MEMB      29              0.0000000000
      3058        29  SAPC      H2S           -25.6215170127        4.9032641645       13.3454716071  MEMB      29              0.0000000000
      3059        29  SAPC      C3            -26.9473371151        6.8100684045       17.2594987425  MEMB      29              0.0000000000
      3060        29  SAPC      HX            -27.1050179155        7.1468412650       18.3064189198  MEMB      29              0.0000000000
      3061        29  SAPC      HY            -27.9302197463        6.9283817474       16.7552522073  MEMB      29              0.0000000000
      3062        29  SAPC      O31           -25.9511132668        7.6944910893       16.6917432696  MEMB      29              0.0000000000
      3063        29  SAPC      C31           -26.1051435941        8.1836984956       15.4488863739  MEMB      29              0.0000000000
      3064        29  SAPC      O32           -26.8673653063        7.6698070160       14.6323749958  MEMB      29              0.0000000000
      3065        29  SAPC      C32           -25.1004876174        9.3423018984       15.0798805399  MEMB      29              0.0000000000
      3066        29  SAPC      H2X           -24.5334155850        9.6234256703       15.9929630194  MEMB      29              0.0000000000
      3067        29  SAPC      H2Y           -25.7361927808       10.1801092777       14.7217209560  MEMB      29              0.0000000000
      3068        29  SAPC      C23           -25.7127982175        2.7041511072       13.0678808455  MEMB      29              0.0000000000
      3069        29  SAPC      H3R           -26.4703355062        1.8995452883       13.1821964047  MEMB      29              0.0000000000
      3070        29  SAPC      H3S           -24.8290076553        2.3760979896       13.6557723469  MEMB      29              0.0000000000
      3071        29  SAPC      C24           -25.2116125054        2.7888516964       11.6255519852  MEMB      29              0.0000000000
      3072        29  SAPC      H4R           -24.7542408429        1.8619970468       11.2180320437  MEMB      29              0.0000000000
      3073        29  SAPC      H4S           -24.4326125096        3.5806158279       11.6012683871  MEMB      29              0.0000000000
      3074        29  SAPC      C25           -26.2236636390        3.3422346652       10.6497715070  MEMB      29              0.0000000000
      3075        29  SAPC      H5R           -26.0290110596        4.4229559957       10.5853368576  MEMB      29              0.0000000000
      3076        29  SAPC      C26           -26.9782835038        2.6904675537        9.8057682103  MEMB      29              0.0000000000
      3077        29  SAPC      H6R           -27.5925324695        3.3522150446        9.1774461855  MEMB      29              0.0000000000
      3078        29  SAPC      C27           -27.0689892749        1.1974452048        9.4866988120  MEMB      29              0.0000000000
      3079        29  SAPC      H7R           -28.0795868051        0.8387989781        9.1962052254  MEMB      29              0.0000000000
      3080        29  SAPC      H7S           -26.8173000193        0.6763647080       10.4350912923  MEMB      29              0.0000000000
      3081        29  SAPC      C28           -26.0774256317        0.7637269121        8.4427016716  MEMB      29              0.0000000000
      3082        29  SAPC      H8R           -25.3055567760        0.1029754849        8.8641583734  MEMB      29              0.0000000000
      3083        29  SAPC      C29           -26.0706967194        1.0012806120        7.1084660108  MEMB      29              0.0000000000
      3084        29  SAPC      H9R           -25.2349676529        0.5534337177        6.5508013710  MEMB      29              0.0000000000
      3085        29  SAPC      C210          -27.0418554439        1.7868912784        6.3189281208  MEMB      29              0.0000000000
      3086        29  SAPC      H10R          -27.6055301986        2.5461161885        6.9021686693  MEMB      29              0.0000000000
      3087        29  SAPC      H10S          -27.7938030739        1.0619021370        5.9403971298  MEMB      29              0.0000000000
      3088        29  SAPC      C211          -26.4187450399        2.5714417207        5.1586864454  MEMB      29              0.0000000000
      3089        29  SAPC      H11R          -25.5513422493        2.0587838186        4.7173315678  MEMB      29              0.0000000000
      3090        29  SAPC      C212          -26.8014964856        3.7608234586        4.6560186452  MEMB      29              0.0000000000
      3091        29  SAPC      H12R          -26.3724304547        4.0901450094        3.6981825390  MEMB      29              0.0000000000
      3092        29  SAPC      C213          -28.0173864061        4.5699116849        5.2014125494  MEMB      29              0.0000000000
      3093        29  SAPC      H13R          -28.3582630395        4.3234776119        6.2297100185  MEMB      29              0.0000000000
      3094        29  SAPC      H13S          -28.7914462851        4.3103935037        4.4478856369  MEMB      29              0.0000000000
      3095        29  SAPC      C214          -27.6512462785        6.0641660511        5.2155742551  MEMB      29              0.0000000000
      3096        29  SAPC      H14R          -26.9900548418        6.2708884412        6.0700284125  MEMB      29              0.0000000000
      3097        29  SAPC      C215          -27.8664593561        6.9301928936        4.1416252287  MEMB      29              0.0000000000
      3098        29  SAPC      H15R          -27.4601969307        7.9437736518        4.2743074604  MEMB      29              0.0000000000
      3099        29  SAPC      C216          -28.5110720232        6.5373419640        2.8571844513  MEMB      29              0.0000000000
      3100        29  SAPC      H16R          -28.5444489457        5.4278176938        2.8106745299  MEMB      29              0.0000000000
      3101        29  SAPC      H16S          -27.8731816280        6.8763571876        2.0130969560  MEMB      29              0.0000000000
      3102        29  SAPC      C217          -29.9216595164        7.1023862217        2.5794512014  MEMB      29              0.0000000000
      3103        29  SAPC      H17R          -29.8553253498        8.1997658920        2.4192056317  MEMB      29              0.0000000000
      3104        29  SAPC      H17S          -30.6041583457        6.8790821779        3.4271843480  MEMB      29              0.0000000000
      3105        29  SAPC      C218          -30.5968935932        6.5138012786        1.3462618046  MEMB      29              0.0000000000
      3106        29  SAPC      H18R          -31.6518392634        6.2648602723        1.5900637882  MEMB      29              0.0000000000
      3107        29  SAPC      H18S          -30.1745930241        5.5183672076        1.0911266681  MEMB      29              0.0000000000
      3108        29  SAPC      C219          -30.7129723138        7.4860392220        0.0938249192  MEMB      29              0.0000000000
      3109        29  SAPC      H19R          -29.6525340994        7.7628184568       -0.0883430595  MEMB      29              0.0000000000
      3110        29  SAPC      H19S          -31.3739667603        8.3540547360        0.3034829891  MEMB      29              0.0000000000
      3111        29  SAPC      C220          -31.2407520058        6.7561302477       -1.0872268218  MEMB      29              0.0000000000
      3112        29  SAPC      H20R          -31.7494768217        7.3157631519       -1.9010636009  MEMB      29              0.0000000000
      3113        29  SAPC      H20S          -32.0320488462        6.0179572767       -0.8356892055  MEMB      29              0.0000000000
      3114        29  SAPC      H20T          -30.3775674900        6.1293215132       -1.3976213484  MEMB      29              0.0000000000
      3115        29  SAPC      C33           -24.1636973698        8.8784659416       14.0139509271  MEMB      29              0.0000000000
      3116        29  SAPC      H3X           -23.6354580619        9.8028437048       13.6964453905  MEMB      29              0.0000000000
      3117        29  SAPC      H3Y           -24.7017350193        8.4018919580       13.1667707383  MEMB      29              0.0000000000
      3118        29  SAPC      C34           -23.0467460159        7.9535251615       14.4831523483  MEMB      29              0.0000000000
      3119        29  SAPC      H4X           -23.2846001266        6.8844078915       14.6695250747  MEMB      29              0.0000000000
      3120        29  SAPC      H4Y           -22.6790223063        8.4346431417       15.4146165547  MEMB      29              0.0000000000
      3121        29  SAPC      C35           -21.8053125806        7.9005777006       13.5860277825  MEMB      29              0.0000000000
      3122        29  SAPC      H5X           -21.5981163520        8.9212457227       13.1992110927  MEMB      29              0.0000000000
      3123        29  SAPC      H5Y           -22.0285826307        7.1996407573       12.7534663871  MEMB      29              0.0000000000
      3124        29  SAPC      C36           -20.4768631083        7.4613968172       14.2115037220  MEMB      29              0.0000000000
      3125        29  SAPC      H6X           -20.2493588606        8.1311493620       15.0682384891  MEMB      29              0.0000000000
      3126        29  SAPC      H6Y           -19.8500537195        7.7163114438       13.3303397935  MEMB      29              0.0000000000
      3127        29  SAPC      C37           -20.1602184891        5.9826057264       14.4964363285  MEMB      29              0.0000000000
      3128        29  SAPC      H7X           -20.8862444111        5.5569137270       15.2216905295  MEMB      29              0.0000000000
      3129        29  SAPC      H7Y           -19.1478681650        6.0317521727       14.9514667292  MEMB      29              0.0000000000
      3130        29  SAPC      C38           -20.0426776776        5.1846005032       13.2090248738  MEMB      29              0.0000000000
      3131        29  SAPC      H8X           -19.2584189979        4.4122395978       13.3597499112  MEMB      29              0.0000000000
      3132        29  SAPC      H8Y           -19.6901620777        5.8418321269       12.3855565150  MEMB      29              0.0000000000
      3133        29  SAPC      C39           -21.3481894279        4.4504432440       12.7333069168  MEMB      29              0.0000000000
      3134        29  SAPC      H9X           -22.1682456894        5.0473730930       12.2799819697  MEMB      29              0.0000000000
      3135        29  SAPC      H9Y           -21.7501998428        3.9125282873       13.6183808243  MEMB      29              0.0000000000
      3136        29  SAPC      C310          -21.0884395559        3.4908335874       11.5412871301  MEMB      29              0.0000000000
      3137        29  SAPC      H10X          -21.9503455454        2.8950832629       11.1717998852  MEMB      29              0.0000000000
      3138        29  SAPC      H10Y          -20.3035545055        2.7875884530       11.8930290254  MEMB      29              0.0000000000
      3139        29  SAPC      C311          -20.8701864810        4.2620044215       10.2500914895  MEMB      29              0.0000000000
      3140        29  SAPC      H11X          -20.3681019113        3.5877054204        9.5237628079  MEMB      29              0.0000000000
      3141        29  SAPC      H11Y          -20.1482880009        5.0748777408       10.4790470637  MEMB      29              0.0000000000
      3142        29  SAPC      C312          -21.9822585918        4.9792926062        9.5433847833  MEMB      29              0.0000000000
      3143        29  SAPC      H12X          -21.5498885974        5.6512565132        8.7714769326  MEMB      29              0.0000000000
      3144        29  SAPC      H12Y          -22.5536719542        5.6462690894       10.2237896770  MEMB      29              0.0000000000
      3145        29  SAPC      C313          -23.0077172136        4.1136763774        8.7237855602  MEMB      29              0.0000000000
      3146        29  SAPC      H13X          -23.9839219092        4.6368372415        8.6363311398  MEMB      29              0.0000000000
      3147        29  SAPC      H13Y          -23.2916946815        3.2025248595        9.2925392425  MEMB      29              0.0000000000
      3148        29  SAPC      C314          -22.5746351112        3.7643153038        7.2699843712  MEMB      29              0.0000000000
      3149        29  SAPC      H14X          -22.8632238816        2.7240261418        7.0076168071  MEMB      29              0.0000000000
      3150        29  SAPC      H14Y          -21.4726094024        3.7501460883        7.1297710340  MEMB      29              0.0000000000
      3151        29  SAPC      C315          -23.2433799845        4.7235358483        6.2913597346  MEMB      29              0.0000000000
      3152        29  SAPC      H15X          -22.6040453250        5.6298210659        6.3563168558  MEMB      29              0.0000000000
      3153        29  SAPC      H15Y          -24.2532729043        5.0353474763        6.6337204618  MEMB      29              0.0000000000
      3154        29  SAPC      C316          -23.2205014784        4.3481268169        4.8586711971  MEMB      29              0.0000000000
      3155        29  SAPC      H16X          -24.0188039728        4.8878769328        4.3057665971  MEMB      29              0.0000000000
      3156        29  SAPC      H16Y          -23.3222912314        3.2428504312        4.8104686162  MEMB      29              0.0000000000
      3157        29  SAPC      C317          -21.8807763886        4.7206240254        4.2045845975  MEMB      29              0.0000000000
      3158        29  SAPC      H17X          -21.1593522414        3.9626159187        4.5778027014  MEMB      29              0.0000000000
      3159        29  SAPC      H17Y          -21.4902276139        5.6956150489        4.5667793041  MEMB      29              0.0000000000
      3160        29  SAPC      C318          -21.8915204927        4.7095548550        2.6280283236  MEMB      29              0.0000000000
      3161        29  SAPC      H18X          -22.4664148892        5.5872438462        2.2626787126  MEMB      29              0.0000000000
      3162        29  SAPC      H18Y          -22.4599102693        3.8179112054        2.2871098148  MEMB      29              0.0000000000
      3163        29  SAPC      H18Z          -20.8699112529        4.5972832051        2.2060913295  MEMB      29              0.0000000000
      3164        30  SLPC      N              19.3476554541       10.2185288687       18.3847841245  MEMB      30              0.0000000000
      3165        30  SLPC      C13            20.5090611380       10.4572759351       19.2597269171  MEMB      30              0.0000000000
      3166        30  SLPC      H13A           20.3182222554       11.2427681661       19.9759549029  MEMB      30              0.0000000000
      3167        30  SLPC      H13B           20.7396525071        9.5329285190       19.7684602832  MEMB      30              0.0000000000
      3168        30  SLPC      H13C           21.3898387420       10.6932854339       18.6809953342  MEMB      30              0.0000000000
      3169        30  SLPC      C14            19.0353805094       11.4147526296       17.5262975722  MEMB      30              0.0000000000
      3170        30  SLPC      H14A           18.0842616223       11.3277253087       17.0221159499  MEMB      30              0.0000000000
      3171        30  SLPC      H14B           19.0266982333       12.2943499016       18.1529022183  MEMB      30              0.0000000000
      3172        30  SLPC      H14C           19.8711310604       11.5255634080       16.8512850048  MEMB      30              0.0000000000
      3173        30  SLPC      C15            18.2199027267        9.7558890954       19.2887689155  MEMB      30              0.0000000000
      3174        30  SLPC      H15A           18.0714144678       10.5375353924       20.0190981026  MEMB      30              0.0000000000
      3175        30  SLPC      H15B           17.3148323461        9.8645846712       18.7096033830  MEMB      30              0.0000000000
      3176        30  SLPC      H15C           18.5043100487        8.8562758301       19.8143242757  MEMB      30              0.0000000000
      3177        30  SLPC      C12            19.6873151711        9.0797761459       17.4033102799  MEMB      30              0.0000000000
      3178        30  SLPC      H12A           18.8512088605        8.8721704313       16.7519839046  MEMB      30              0.0000000000
      3179        30  SLPC      H12B           19.9083720017        8.2061710774       17.9985815944  MEMB      30              0.0000000000
      3180        30  SLPC      C11            20.7448356667        9.1358311842       16.3178094519  MEMB      30              0.0000000000
      3181        30  SLPC      H11A           20.4166769762        9.8479092265       15.5306768655  MEMB      30              0.0000000000
      3182        30  SLPC      H11B           20.5954533469        8.1614604415       15.8053569802  MEMB      30              0.0000000000
      3183        30  SLPC      P              23.1798126285        9.4506589656       15.7836681886  MEMB      30              0.0000000000
      3184        30  SLPC      O13            24.1305832895       10.5051803404       16.2392893617  MEMB      30              0.0000000000
      3185        30  SLPC      O14            23.7391980794        8.1448386914       15.3852035931  MEMB      30              0.0000000000
      3186        30  SLPC      O12            22.0507577977        9.3258895257       16.8860622929  MEMB      30              0.0000000000
      3187        30  SLPC      O11            22.4053827353        9.9391479711       14.5250793024  MEMB      30              0.0000000000
      3188        30  SLPC      C1             22.8487577143       10.9846852897       13.6764408510  MEMB      30              0.0000000000
      3189        30  SLPC      HA             22.8257447828       11.9679103154       14.1932194759  MEMB      30              0.0000000000
      3190        30  SLPC      HB             23.8897631072       10.8932711404       13.2992513673  MEMB      30              0.0000000000
      3191        30  SLPC      C2             21.8792397218       11.1929169320       12.4033036312  MEMB      30              0.0000000000
      3192        30  SLPC      HS             21.9831989310       12.2556390612       12.0964892952  MEMB      30              0.0000000000
      3193        30  SLPC      O21            20.5097377139       10.8704079242       12.7898650868  MEMB      30              0.0000000000
      3194        30  SLPC      C21            19.6132394227       11.5051262319       12.0270639274  MEMB      30              0.0000000000
      3195        30  SLPC      O22            19.9633877224       12.3092626131       11.1752428117  MEMB      30              0.0000000000
      3196        30  SLPC      C22            18.2055593161       10.9299537387       12.2161001745  MEMB      30              0.0000000000
      3197        30  SLPC      H2R            17.7264269783       11.3894899464       13.1069308657  MEMB      30              0.0000000000
      3198        30  SLPC      H2S            17.5907770028       11.2144167871       11.3355072730  MEMB      30              0.0000000000
      3199        30  SLPC      C3             22.2516542351       10.1940346024       11.2348953947  MEMB      30              0.0000000000
      3200        30  SLPC      HX             23.2667228946       10.5441097568       10.9495815935  MEMB      30              0.0000000000
      3201        30  SLPC      HY             21.4954663427       10.3576990129       10.4375780232  MEMB      30              0.0000000000
      3202        30  SLPC      O31            22.1238346600        8.8646143306       11.7086863992  MEMB      30              0.0000000000
      3203        30  SLPC      C31            23.2391424148        8.1682529751       12.0278566898  MEMB      30              0.0000000000
      3204        30  SLPC      O32            24.3882465949        8.5988399613       11.9366205168  MEMB      30              0.0000000000
      3205        30  SLPC      C32            22.9213854033        6.8107065681       12.7097690219  MEMB      30              0.0000000000
      3206        30  SLPC      H2X            22.2118673766        7.0260429696       13.5371356030  MEMB      30              0.0000000000
      3207        30  SLPC      H2Y            23.8398514302        6.4015431396       13.1823434625  MEMB      30              0.0000000000
      3208        30  SLPC      C23            18.0522374777        9.3919757657       12.4286785724  MEMB      30              0.0000000000
      3209        30  SLPC      H3R            16.9622777005        9.1936257294       12.5121391703  MEMB      30              0.0000000000
      3210        30  SLPC      H3S            18.6479625705        9.2393040611       13.3539479487  MEMB      30              0.0000000000
      3211        30  SLPC      C24            18.7019268398        8.6282008172       11.2711373451  MEMB      30              0.0000000000
      3212        30  SLPC      H4R            18.5316773906        7.5426047614       11.4348970957  MEMB      30              0.0000000000
      3213        30  SLPC      H4S            19.7804821157        8.8705913531       11.1602927259  MEMB      30              0.0000000000
      3214        30  SLPC      C25            18.0574239703        8.9459024987        9.9413828927  MEMB      30              0.0000000000
      3215        30  SLPC      H5R            18.3230733210        9.9872559136        9.6597195410  MEMB      30              0.0000000000
      3216        30  SLPC      H5S            16.9639645902        8.8538807545       10.1151634147  MEMB      30              0.0000000000
      3217        30  SLPC      C26            18.1966813699        8.0149496154        8.7570752560  MEMB      30              0.0000000000
      3218        30  SLPC      H6R            17.4117194667        8.2243187843        7.9992359764  MEMB      30              0.0000000000
      3219        30  SLPC      H6S            18.0523748094        6.9983539140        9.1813744263  MEMB      30              0.0000000000
      3220        30  SLPC      C27            19.6146017902        8.0539126826        8.1876845174  MEMB      30              0.0000000000
      3221        30  SLPC      H7R            19.7365410147        7.1282034529        7.5855937714  MEMB      30              0.0000000000
      3222        30  SLPC      H7S            20.3580247698        7.9047457845        8.9997147245  MEMB      30              0.0000000000
      3223        30  SLPC      C28            19.9550389712        9.2120823868        7.2143466281  MEMB      30              0.0000000000
      3224        30  SLPC      H8R            19.2401873508        9.2890207536        6.3673587435  MEMB      30              0.0000000000
      3225        30  SLPC      H8S            20.9362058066        8.8539174280        6.8357298919  MEMB      30              0.0000000000
      3226        30  SLPC      C29            20.1781679750       10.5657891012        7.8529455273  MEMB      30              0.0000000000
      3227        30  SLPC      H9R            19.2438299420       11.0533307209        8.1680893522  MEMB      30              0.0000000000
      3228        30  SLPC      C210           21.3259204082       11.2101941184        7.9485800432  MEMB      30              0.0000000000
      3229        30  SLPC      H10R           21.2061138157       12.1737917439        8.4654226178  MEMB      30              0.0000000000
      3230        30  SLPC      C211           22.7397218378       10.7992391764        7.4876564325  MEMB      30              0.0000000000
      3231        30  SLPC      H11R           22.6282355654       10.2412095288        6.5334576297  MEMB      30              0.0000000000
      3232        30  SLPC      H11S           23.2412882801       10.2037737446        8.2802304491  MEMB      30              0.0000000000
      3233        30  SLPC      C212           23.5728559903       12.0710456358        7.2541089285  MEMB      30              0.0000000000
      3234        30  SLPC      H12R           24.4498408250       12.1005518365        7.9174538149  MEMB      30              0.0000000000
      3235        30  SLPC      C213           23.2966041262       13.1133464432        6.4549284345  MEMB      30              0.0000000000
      3236        30  SLPC      H13R           23.8007653145       14.0893156568        6.5124200587  MEMB      30              0.0000000000
      3237        30  SLPC      C214           22.1153874203       13.3561360028        5.6003490190  MEMB      30              0.0000000000
      3238        30  SLPC      H14R           21.7316303232       14.3943144421        5.6964573392  MEMB      30              0.0000000000
      3239        30  SLPC      H14S           21.2053391353       12.7649009685        5.8382025200  MEMB      30              0.0000000000
      3240        30  SLPC      C215           22.3960278451       13.1284444324        4.1422395002  MEMB      30              0.0000000000
      3241        30  SLPC      H15R           23.2431442016       13.7275768028        3.7450556237  MEMB      30              0.0000000000
      3242        30  SLPC      H15S           21.4680613582       13.5534967791        3.7034579089  MEMB      30              0.0000000000
      3243        30  SLPC      C216           22.6477609322       11.7153118124        3.7453644376  MEMB      30              0.0000000000
      3244        30  SLPC      H16R           21.8664741103       11.0372395789        4.1504948608  MEMB      30              0.0000000000
      3245        30  SLPC      H16S           23.6092059047       11.4926011781        4.2556042822  MEMB      30              0.0000000000
      3246        30  SLPC      C217           22.8991509741       11.5310827139        2.2210476593  MEMB      30              0.0000000000
      3247        30  SLPC      H17R           23.4481815444       10.5927842292        1.9919581906  MEMB      30              0.0000000000
      3248        30  SLPC      H17S           23.5573231693       12.4002179854        2.0071916080  MEMB      30              0.0000000000
      3249        30  SLPC      C218           21.5970906957       11.5653427084        1.3508069051  MEMB      30              0.0000000000
      3250        30  SLPC      H18R           21.8953313190       11.4896578883        0.2832646242  MEMB      30              0.0000000000
      3251        30  SLPC      H18S           21.0172344101       12.4703337607        1.6320166057  MEMB      30              0.0000000000
      3252        30  SLPC      H18T           21.1091563375       10.6448728399        1.7367808642  MEMB      30              0.0000000000
      3253        30  SLPC      C33            22.3338044163        5.7284398565       11.8083466021  MEMB      30              0.0000000000
      3254        30  SLPC      H3X            21.3523308435        6.0539339997       11.4020408180  MEMB      30              0.0000000000
      3255        30  SLPC      H3Y            22.2707434703        4.8584997534       12.4964951166  MEMB      30              0.0000000000
      3256        30  SLPC      C34            23.2395198798        5.1440838163       10.6289722355  MEMB      30              0.0000000000
      3257        30  SLPC      H4X            22.8906044794        4.1263085659       10.3520023110  MEMB      30              0.0000000000
      3258        30  SLPC      H4Y            24.2529364016        4.9499143664       11.0408053727  MEMB      30              0.0000000000
      3259        30  SLPC      C35            23.3453090239        6.0063497037        9.4176386189  MEMB      30              0.0000000000
      3260        30  SLPC      H5X            23.5256087730        7.0801996956        9.6382264450  MEMB      30              0.0000000000
      3261        30  SLPC      H5Y            22.3169822576        6.1195738086        9.0126133498  MEMB      30              0.0000000000
      3262        30  SLPC      C36            24.3569786730        5.6016654447        8.3692056413  MEMB      30              0.0000000000
      3263        30  SLPC      H6X            24.3745191758        4.5000995174        8.2257979710  MEMB      30              0.0000000000
      3264        30  SLPC      H6Y            25.3418961696        5.8839001229        8.7988594363  MEMB      30              0.0000000000
      3265        30  SLPC      C37            24.1795556325        6.1388711773        6.9741828297  MEMB      30              0.0000000000
      3266        30  SLPC      H7X            25.0132241299        5.8041848067        6.3204984771  MEMB      30              0.0000000000
      3267        30  SLPC      H7Y            24.3310270320        7.2337517442        7.0864939734  MEMB      30              0.0000000000
      3268        30  SLPC      C38            22.8390272581        5.9319011169        6.2315318553  MEMB      30              0.0000000000
      3269        30  SLPC      H8X            21.9038488326        5.9411021974        6.8312630016  MEMB      30              0.0000000000
      3270        30  SLPC      H8Y            22.8961106615        4.9542042109        5.7069641132  MEMB      30              0.0000000000
      3271        30  SLPC      C39            22.6724345208        6.8582406408        4.9857448258  MEMB      30              0.0000000000
      3272        30  SLPC      H9X            23.6884244998        7.1689170439        4.6608355384  MEMB      30              0.0000000000
      3273        30  SLPC      H9Y            22.1702908677        7.8209397200        5.2210801883  MEMB      30              0.0000000000
      3274        30  SLPC      C310           21.9649972377        6.2008708274        3.7399761900  MEMB      30              0.0000000000
      3275        30  SLPC      H10X           20.9335486186        5.9887319992        4.0941395986  MEMB      30              0.0000000000
      3276        30  SLPC      H10Y           22.4756633333        5.2459800829        3.4915311707  MEMB      30              0.0000000000
      3277        30  SLPC      C311           21.7898035088        7.1697502649        2.6141316049  MEMB      30              0.0000000000
      3278        30  SLPC      H11X           22.7521680690        7.3308600013        2.0828884256  MEMB      30              0.0000000000
      3279        30  SLPC      H11Y           21.3972834923        8.1448714725        2.9738370069  MEMB      30              0.0000000000
      3280        30  SLPC      C312           20.9760219530        6.5622961061        1.4518170230  MEMB      30              0.0000000000
      3281        30  SLPC      H12X           20.1908574880        6.0723327803        2.0664505304  MEMB      30              0.0000000000
      3282        30  SLPC      H12Y           21.4776263729        5.8177576123        0.7973128562  MEMB      30              0.0000000000
      3283        30  SLPC      C313           20.4285899220        7.7140696277        0.6310459023  MEMB      30              0.0000000000
      3284        30  SLPC      H13X           21.3006364166        8.1410039465        0.0910604168  MEMB      30              0.0000000000
      3285        30  SLPC      H13Y           19.9436487335        8.4312631544        1.3273111493  MEMB      30              0.0000000000
      3286        30  SLPC      C314           19.3906261441        7.2865949789       -0.3258763136  MEMB      30              0.0000000000
      3287        30  SLPC      H14X           18.5791304498        6.6658908953        0.1106118134  MEMB      30              0.0000000000
      3288        30  SLPC      H14Y           19.9018305246        6.6204472123       -1.0533636548  MEMB      30              0.0000000000
      3289        30  SLPC      C315           18.7599042382        8.4957706087       -1.0948974142  MEMB      30              0.0000000000
      3290        30  SLPC      H15X           18.3157295234        9.1121746422       -0.2842944860  MEMB      30              0.0000000000
      3291        30  SLPC      H15Y           17.9715729507        8.1812770523       -1.8117983517  MEMB      30              0.0000000000
      3292        30  SLPC      C316           19.6477186510        9.4443670818       -1.8757103919  MEMB      30              0.0000000000
      3293        30  SLPC      H16X           20.0873193902        8.9444262575       -2.7651674659  MEMB      30              0.0000000000
      3294        30  SLPC      H16Y           20.4454791995        9.9662847100       -1.3051830936  MEMB      30              0.0000000000
      3295        30  SLPC      C317           18.7892988796       10.6039172063       -2.5090335380  MEMB      30              0.0000000000
      3296        30  SLPC      H17X           17.9742822433       10.1916641064       -3.1415819532  MEMB      30              0.0000000000
      3297        30  SLPC      H17Y           19.6099816234       11.0725180918       -3.0931686580  MEMB      30              0.0000000000
      3298        30  SLPC      C318           17.9860032753       11.4958386167       -1.5246829796  MEMB      30              0.0000000000
      3299        30  SLPC      H18X           18.6435937908       11.9058984572       -0.7285998095  MEMB      30              0.0000000000
      3300        30  SLPC      H18Y           17.2163362710       10.9529977099       -0.9353964271  MEMB      30              0.0000000000
      3301        30  SLPC      H18Z           17.3860993918       12.2930516398       -2.0134440431  MEMB      30              0.0000000000
      3302        31  OSM       N              16.5092796199       15.0490440913       22.5858663585  MEMB      31              0.0000000000
      3303        31  OSM       C15            15.8732524327       15.7060824487       23.8403606578  MEMB      31              0.0000000000
      3304        31  OSM       H15A           14.8339233143       15.4256284008       23.9271969778  MEMB      31              0.0000000000
      3305        31  OSM       H15B           16.0048727491       16.7780181315       23.8458397484  MEMB      31              0.0000000000
      3306        31  OSM       H15C           16.3195052827       15.3207630008       24.7452291097  MEMB      31              0.0000000000
      3307        31  OSM       C14            17.9660258181       15.4402039458       22.6584401508  MEMB      31              0.0000000000
      3308        31  OSM       H14A           18.5047742761       15.0374214161       21.8135044691  MEMB      31              0.0000000000
      3309        31  OSM       H14B           18.4495593357       15.1903395188       23.5912655751  MEMB      31              0.0000000000
      3310        31  OSM       H14C           17.9823580581       16.5193057716       22.6175433685  MEMB      31              0.0000000000
      3311        31  OSM       C13            16.4517653951       13.5326005396       22.6895168026  MEMB      31              0.0000000000
      3312        31  OSM       H13A           16.6194213134       13.2418463454       23.7160417311  MEMB      31              0.0000000000
      3313        31  OSM       H13B           17.3405569253       13.1277066340       22.2285282865  MEMB      31              0.0000000000
      3314        31  OSM       H13C           15.5424530375       13.2004379548       22.2107485089  MEMB      31              0.0000000000
      3315        31  OSM       C12            15.8178117585       15.6457351789       21.3218568270  MEMB      31              0.0000000000
      3316        31  OSM       H12A           14.8074629383       15.2641971085       21.3169448824  MEMB      31              0.0000000000
      3317        31  OSM       H12B           16.2685255398       15.2540576363       20.4219425157  MEMB      31              0.0000000000
      3318        31  OSM       C11            15.8280067048       17.2259283833       21.2578839024  MEMB      31              0.0000000000
      3319        31  OSM       H11A           15.4775460325       17.6829808750       22.2079372239  MEMB      31              0.0000000000
      3320        31  OSM       H11B           15.1260819042       17.5037074501       20.4427389084  MEMB      31              0.0000000000
      3321        31  OSM       P              17.5038917979       17.8618633747       19.3297063986  MEMB      31              0.0000000000
      3322        31  OSM       O13            18.7747907533       18.6628073609       19.1510715669  MEMB      31              0.0000000000
      3323        31  OSM       O14            17.4823983606       16.5677027588       18.6958138367  MEMB      31              0.0000000000
      3324        31  OSM       O11            16.3316058063       18.7175610099       18.6582089256  MEMB      31              0.0000000000
      3325        31  OSM       O12            17.0619264546       17.7040575062       20.8112745754  MEMB      31              0.0000000000
      3326        31  OSM       C1S            16.3978978622       19.3753603058       17.4181902148  MEMB      31              0.0000000000
      3327        31  OSM       H1S            17.3598304201       19.9227759932       17.3215323033  MEMB      31              0.0000000000
      3328        31  OSM       H1T            15.5760328824       20.1224742762       17.3921239948  MEMB      31              0.0000000000
      3329        31  OSM       NF             16.0812668579       19.0592854886       14.9626363354  MEMB      31              0.0000000000
      3330        31  OSM       HNF            15.1989635382       19.0738766801       14.4985923461  MEMB      31              0.0000000000
      3331        31  OSM       C2S            16.0323913175       18.3959255869       16.2257727140  MEMB      31              0.0000000000
      3332        31  OSM       H2S            16.8111209165       17.6053090539       16.1726063800  MEMB      31              0.0000000000
      3333        31  OSM       C3S            14.6249180635       17.7428401544       16.4318513554  MEMB      31              0.0000000000
      3334        31  OSM       H3S            13.8669959822       18.5539070795       16.4770786866  MEMB      31              0.0000000000
      3335        31  OSM       O3             14.5124574268       17.1140013226       17.7082584755  MEMB      31              0.0000000000
      3336        31  OSM       HO3            15.3829316332       17.2375860528       18.0937468916  MEMB      31              0.0000000000
      3337        31  OSM       C4S            14.3702237678       16.7265958293       15.3172597996  MEMB      31              0.0000000000
      3338        31  OSM       H4S            15.1888495807       16.0824355432       14.9638348331  MEMB      31              0.0000000000
      3339        31  OSM       C5S            13.1933387878       16.5446443413       14.7509555994  MEMB      31              0.0000000000
      3340        31  OSM       H5S            12.3247448750       17.1096476407       15.1201650669  MEMB      31              0.0000000000
      3341        31  OSM       C6S            12.7454380995       15.5748181892       13.6767033637  MEMB      31              0.0000000000
      3342        31  OSM       H6S            11.6404003162       15.6785186879       13.6271177979  MEMB      31              0.0000000000
      3343        31  OSM       H6T            12.9303829266       14.5372215981       14.0281427171  MEMB      31              0.0000000000
      3344        31  OSM       C7S            13.3252121852       15.9144696572       12.3052259889  MEMB      31              0.0000000000
      3345        31  OSM       H7S            12.9443693660       15.3121643027       11.4528711889  MEMB      31              0.0000000000
      3346        31  OSM       H7T            14.3957002744       15.6172510867       12.3113289842  MEMB      31              0.0000000000
      3347        31  OSM       C8S            13.3491348157       17.4719810776       11.9218509767  MEMB      31              0.0000000000
      3348        31  OSM       H8S            13.9318782058       18.0854190283       12.6418679886  MEMB      31              0.0000000000
      3349        31  OSM       H8T            12.3305552497       17.8594160045       12.1379779304  MEMB      31              0.0000000000
      3350        31  OSM       C9S            13.7029214333       17.8182030297       10.5340911899  MEMB      31              0.0000000000
      3351        31  OSM       H9S            13.7029785281       18.9292023443       10.5328252837  MEMB      31              0.0000000000
      3352        31  OSM       H9T            12.9188612448       17.3959377890        9.8698148628  MEMB      31              0.0000000000
      3353        31  OSM       C10S           15.1148532651       17.4520677536       10.0553103745  MEMB      31              0.0000000000
      3354        31  OSM       H10S           15.3606127407       16.4695880318       10.5121002909  MEMB      31              0.0000000000
      3355        31  OSM       H10T           15.8737759468       18.0938856817       10.5517247661  MEMB      31              0.0000000000
      3356        31  OSM       C11S           15.3652118400       17.4195949690        8.5254794501  MEMB      31              0.0000000000
      3357        31  OSM       H11S           15.0061786691       18.3757690403        8.0882751058  MEMB      31              0.0000000000
      3358        31  OSM       H11T           14.8452336247       16.5427698870        8.0837536963  MEMB      31              0.0000000000
      3359        31  OSM       C12S           16.8884831080       17.3800654247        8.0883496041  MEMB      31              0.0000000000
      3360        31  OSM       H12S           17.4376603653       16.6503837381        8.7210337563  MEMB      31              0.0000000000
      3361        31  OSM       H12T           17.4163473107       18.3519856910        8.1934753978  MEMB      31              0.0000000000
      3362        31  OSM       C13S           17.0661761978       17.0628221670        6.5729201149  MEMB      31              0.0000000000
      3363        31  OSM       H13S           18.1351518825       17.1795846655        6.2936736505  MEMB      31              0.0000000000
      3364        31  OSM       H13T           16.4113266110       17.8186015190        6.0888845687  MEMB      31              0.0000000000
      3365        31  OSM       C14S           16.3999713842       15.7717900906        6.0628337909  MEMB      31              0.0000000000
      3366        31  OSM       H14S           15.2910460775       15.8392854092        6.0698976152  MEMB      31              0.0000000000
      3367        31  OSM       H14T           16.5666512694       14.9408696180        6.7812418615  MEMB      31              0.0000000000
      3368        31  OSM       C15S           16.7615128776       15.3826398006        4.5897149033  MEMB      31              0.0000000000
      3369        31  OSM       H15S           16.1867740846       14.5076742763        4.2176508152  MEMB      31              0.0000000000
      3370        31  OSM       H15T           17.8630118185       15.2381917197        4.5772240346  MEMB      31              0.0000000000
      3371        31  OSM       C16S           16.4827292215       16.4520902084        3.5142341941  MEMB      31              0.0000000000
      3372        31  OSM       H16S           17.2420721697       17.2621514248        3.5532260033  MEMB      31              0.0000000000
      3373        31  OSM       H16T           15.4523245568       16.8351143644        3.6751057903  MEMB      31              0.0000000000
      3374        31  OSM       C17S           16.4465029256       15.7629654609        2.1176699940  MEMB      31              0.0000000000
      3375        31  OSM       H17S           15.5167420291       15.1645833485        2.0090232415  MEMB      31              0.0000000000
      3376        31  OSM       H17T           17.3240511199       15.0947767342        1.9844271955  MEMB      31              0.0000000000
      3377        31  OSM       C18S           16.6437307010       16.6817363801        0.8310054309  MEMB      31              0.0000000000
      3378        31  OSM       H18S           17.6440332554       17.1641713718        0.8621856329  MEMB      31              0.0000000000
      3379        31  OSM       H18T           15.9610070181       17.5574101566        0.7935276960  MEMB      31              0.0000000000
      3380        31  OSM       H18U           16.5694445178       16.0288772586       -0.0648623616  MEMB      31              0.0000000000
      3381        31  OSM       C1F            17.1701354715       19.6576631141       14.4467150806  MEMB      31              0.0000000000
      3382        31  OSM       OF             18.2719165747       19.2512507972       14.8195091592  MEMB      31              0.0000000000
      3383        31  OSM       C2F            16.9726078480       20.7902122515       13.3983698104  MEMB      31              0.0000000000
      3384        31  OSM       H2F            16.8257029504       21.7722938292       13.8966225121  MEMB      31              0.0000000000
      3385        31  OSM       H2G            16.0380016739       20.5777728529       12.8364962417  MEMB      31              0.0000000000
      3386        31  OSM       C3F            18.2269832943       20.6816510369       12.4146538721  MEMB      31              0.0000000000
      3387        31  OSM       H3F            18.3934049363       19.6630018079       12.0035837361  MEMB      31              0.0000000000
      3388        31  OSM       H3G            19.1317267113       20.8848055761       13.0266085291  MEMB      31              0.0000000000
      3389        31  OSM       C4F            17.9154819791       21.6819534597       11.2378719546  MEMB      31              0.0000000000
      3390        31  OSM       H4F            18.8544513685       21.7642002455       10.6497454672  MEMB      31              0.0000000000
      3391        31  OSM       H4G            17.5458916216       22.6524728180       11.6326076700  MEMB      31              0.0000000000
      3392        31  OSM       C5F            16.8109406684       21.0661620378       10.3157399264  MEMB      31              0.0000000000
      3393        31  OSM       H5F            15.7886853023       20.8843898737       10.7110545099  MEMB      31              0.0000000000
      3394        31  OSM       H5G            17.1771760929       20.2219217371        9.6932846520  MEMB      31              0.0000000000
      3395        31  OSM       C6F            16.4099326116       22.1518429871        9.3075798531  MEMB      31              0.0000000000
      3396        31  OSM       H6F            17.3558373254       22.5973721905        8.9319618070  MEMB      31              0.0000000000
      3397        31  OSM       H6G            15.9889280319       23.0344615013        9.8348941911  MEMB      31              0.0000000000
      3398        31  OSM       C7F            15.2902618236       21.8080168752        8.3145976108  MEMB      31              0.0000000000
      3399        31  OSM       H7F            14.6384737209       22.6397897007        7.9716005419  MEMB      31              0.0000000000
      3400        31  OSM       H7G            14.6074106583       21.0555390718        8.7638326064  MEMB      31              0.0000000000
      3401        31  OSM       C8F            15.9310625471       21.1908663468        7.0212393830  MEMB      31              0.0000000000
      3402        31  OSM       H8F            15.2542279511       20.5127649026        6.4587495114  MEMB      31              0.0000000000
      3403        31  OSM       H8G            16.6657286260       20.4373491498        7.3773274938  MEMB      31              0.0000000000
      3404        31  OSM       C9F            16.7666169389       22.1223526804        6.1269084585  MEMB      31              0.0000000000
      3405        31  OSM       H9F            17.4815443326       22.7597541884        6.6678312092  MEMB      31              0.0000000000
      3406        31  OSM       C10F           16.6784285930       22.1738812605        4.8091683628  MEMB      31              0.0000000000
      3407        31  OSM       H10F           17.3289117210       22.8417748331        4.2253973258  MEMB      31              0.0000000000
      3408        31  OSM       C11F           15.7438393138       21.2935448218        3.9040569531  MEMB      31              0.0000000000
      3409        31  OSM       H11F           14.7305622718       21.7354270789        4.0151010199  MEMB      31              0.0000000000
      3410        31  OSM       H11G           15.6062883294       20.2490280826        4.2567390645  MEMB      31              0.0000000000
      3411        31  OSM       C12F           16.1740688744       21.4779360003        2.4025958029  MEMB      31              0.0000000000
      3412        31  OSM       H12F           16.5641159298       22.5015268513        2.2169982950  MEMB      31              0.0000000000
      3413        31  OSM       H12G           15.2506638255       21.4152111151        1.7880136071  MEMB      31              0.0000000000
      3414        31  OSM       C13F           17.2916454394       20.5627278738        1.8837788474  MEMB      31              0.0000000000
      3415        31  OSM       H13F           16.8309917602       19.5595888413        2.0096015777  MEMB      31              0.0000000000
      3416        31  OSM       H13G           18.2485125421       20.6452281516        2.4422768115  MEMB      31              0.0000000000
      3417        31  OSM       C14F           17.6803990158       21.0507472726        0.4615891931  MEMB      31              0.0000000000
      3418        31  OSM       H14F           18.1038375157       22.0764194206        0.5165223970  MEMB      31              0.0000000000
      3419        31  OSM       H14G           16.6790904988       21.1530520761       -0.0087681061  MEMB      31              0.0000000000
      3420        31  OSM       C15F           18.6444173669       20.1224925854       -0.3171047233  MEMB      31              0.0000000000
      3421        31  OSM       H15F           18.1259065121       19.1610252991       -0.5197085456  MEMB      31              0.0000000000
      3422        31  OSM       H15G           19.4888350453       20.0319018886        0.3991845567  MEMB      31              0.0000000000
      3423        31  OSM       C16F           19.2129231998       20.7858590625       -1.5507498221  MEMB      31              0.0000000000
      3424        31  OSM       H16F           19.8393887540       21.6074249724       -1.1422257374  MEMB      31              0.0000000000
      3425        31  OSM       H16G           18.4095110031       21.1916157907       -2.2020643754  MEMB      31              0.0000000000
      3426        31  OSM       C17F           20.1079665065       19.8955688083       -2.4214350469  MEMB      31              0.0000000000
      3427        31  OSM       H17F           20.8371557599       19.3031379166       -1.8284501307  MEMB      31              0.0000000000
      3428        31  OSM       H17G           20.6597684545       20.5991573808       -3.0808278819  MEMB      31              0.0000000000
      3429        31  OSM       C18F           19.3119647722       18.9243730929       -3.2956330602  MEMB      31              0.0000000000
      3430        31  OSM       H18F           18.3403378274       19.3140969867       -3.6676239642  MEMB      31              0.0000000000
      3431        31  OSM       H18G           19.0978874262       18.0507224828       -2.6435401136  MEMB      31              0.0000000000
      3432        31  OSM       H18H           19.8769238973       18.5776742629       -4.1872296234  MEMB      31              0.0000000000
      3433        32  SAPE      N               4.6101380488       20.3620248073       18.3565071711  MEMB      32              0.0000000000
      3434        32  SAPE      HN1             3.9958724596       20.0560304160       17.5750692061  MEMB      32              0.0000000000
      3435        32  SAPE      HN2             5.4737703509       20.5973287457       17.8270061736  MEMB      32              0.0000000000
      3436        32  SAPE      HN3             4.8413808242       19.6014863057       19.0271096223  MEMB      32              0.0000000000
      3437        32  SAPE      C12             4.0429128976       21.4985210169       19.1224493803  MEMB      32              0.0000000000
      3438        32  SAPE      H12A            3.2180615083       21.1726043144       19.7915679315  MEMB      32              0.0000000000
      3439        32  SAPE      H12B            3.7512188662       22.2569782320       18.3648359138  MEMB      32              0.0000000000
      3440        32  SAPE      C11             5.1855528379       22.1399005644       19.9544210232  MEMB      32              0.0000000000
      3441        32  SAPE      H11A            6.0191796015       22.4857695704       19.3065304643  MEMB      32              0.0000000000
      3442        32  SAPE      H11B            5.6969111546       21.3935948180       20.5992941276  MEMB      32              0.0000000000
      3443        32  SAPE      P               4.4753946597       24.5358003885       20.5447975183  MEMB      32              0.0000000000
      3444        32  SAPE      O13             3.2137105510       24.6679484549       19.7764407549  MEMB      32              0.0000000000
      3445        32  SAPE      O14             4.5648723046       25.3731551586       21.7641648600  MEMB      32              0.0000000000
      3446        32  SAPE      O12             4.6874185436       23.0438048940       20.9106250531  MEMB      32              0.0000000000
      3447        32  SAPE      O11             5.6591604585       24.8925799095       19.5705942097  MEMB      32              0.0000000000
      3448        32  SAPE      C1              5.7183329955       26.0411243874       18.7532561763  MEMB      32              0.0000000000
      3449        32  SAPE      HA              4.8671201015       26.7434104440       18.8819104981  MEMB      32              0.0000000000
      3450        32  SAPE      HB              6.7246853725       26.4764729420       18.9322746485  MEMB      32              0.0000000000
      3451        32  SAPE      C2              5.6540190535       25.5550176584       17.2834019950  MEMB      32              0.0000000000
      3452        32  SAPE      HS              5.7958242498       26.3515659855       16.5220065790  MEMB      32              0.0000000000
      3453        32  SAPE      O21             4.4598797588       24.7914836089       17.0812461747  MEMB      32              0.0000000000
      3454        32  SAPE      C21             3.6303301047       25.1989763377       16.0351145393  MEMB      32              0.0000000000
      3455        32  SAPE      O22             3.8418155084       26.2389291538       15.4868247527  MEMB      32              0.0000000000
      3456        32  SAPE      C22             2.4692044169       24.2410728227       15.8883629202  MEMB      32              0.0000000000
      3457        32  SAPE      H2R             2.3762781248       23.5553473162       16.7575386201  MEMB      32              0.0000000000
      3458        32  SAPE      H2S             1.5409517197       24.8497437147       15.8415910331  MEMB      32              0.0000000000
      3459        32  SAPE      C3              6.8711864342       24.5788346184       17.0589878105  MEMB      32              0.0000000000
      3460        32  SAPE      HX              6.7790231541       23.6208661337       17.6140762550  MEMB      32              0.0000000000
      3461        32  SAPE      HY              7.7404597527       25.0574979408       17.5585539490  MEMB      32              0.0000000000
      3462        32  SAPE      O31             7.1556288160       24.2507902008       15.7045535401  MEMB      32              0.0000000000
      3463        32  SAPE      C31             7.7234548285       25.2144848404       14.9563333557  MEMB      32              0.0000000000
      3464        32  SAPE      O32             8.1511507686       26.2700521190       15.3548645555  MEMB      32              0.0000000000
      3465        32  SAPE      C32             7.7414035671       24.6719635597       13.5227972040  MEMB      32              0.0000000000
      3466        32  SAPE      H2X             6.9508010060       25.2430228484       12.9906694004  MEMB      32              0.0000000000
      3467        32  SAPE      H2Y             7.4417749890       23.6022614446       13.5395668311  MEMB      32              0.0000000000
      3468        32  SAPE      C23             2.6173517822       23.4059739687       14.5651853076  MEMB      32              0.0000000000
      3469        32  SAPE      H3R             3.1228038115       23.9450035170       13.7355547222  MEMB      32              0.0000000000
      3470        32  SAPE      H3S             1.6079261980       23.1934086365       14.1526357235  MEMB      32              0.0000000000
      3471        32  SAPE      C24             3.3429223226       22.0687395752       14.7943352917  MEMB      32              0.0000000000
      3472        32  SAPE      H4R             2.9761485878       21.4188480800       13.9712686685  MEMB      32              0.0000000000
      3473        32  SAPE      H4S             2.8401733792       21.5036190502       15.6080943488  MEMB      32              0.0000000000
      3474        32  SAPE      C25             4.8453141385       22.0334079277       14.9094187874  MEMB      32              0.0000000000
      3475        32  SAPE      H5R             5.3082074173       22.1450549698       15.9010156203  MEMB      32              0.0000000000
      3476        32  SAPE      C26             5.6461514354       21.7371252191       13.8612676934  MEMB      32              0.0000000000
      3477        32  SAPE      H6R             6.7273822462       21.7370139548       14.0636041917  MEMB      32              0.0000000000
      3478        32  SAPE      C27             5.1289929597       21.4475100820       12.4655553365  MEMB      32              0.0000000000
      3479        32  SAPE      H7R             4.5177844451       22.3143100509       12.1347941392  MEMB      32              0.0000000000
      3480        32  SAPE      H7S             4.3322444787       20.6736476154       12.4910483391  MEMB      32              0.0000000000
      3481        32  SAPE      C28             6.2498198523       21.2501058116       11.5236449368  MEMB      32              0.0000000000
      3482        32  SAPE      H8R             7.2483907157       21.0648169890       11.9461668953  MEMB      32              0.0000000000
      3483        32  SAPE      C29             6.1766350158       21.5123081411       10.1974196272  MEMB      32              0.0000000000
      3484        32  SAPE      H9R             7.1143495243       21.3610903302        9.6426007067  MEMB      32              0.0000000000
      3485        32  SAPE      C210            4.9886472916       21.9927909187        9.4467838403  MEMB      32              0.0000000000
      3486        32  SAPE      H10R            4.2268489363       22.4986337747       10.0777410681  MEMB      32              0.0000000000
      3487        32  SAPE      H10S            4.4477379186       21.1641855069        8.9416597603  MEMB      32              0.0000000000
      3488        32  SAPE      C211            5.4244492088       22.9875932594        8.3340015739  MEMB      32              0.0000000000
      3489        32  SAPE      H11R            5.5306544764       24.0641712971        8.5332508478  MEMB      32              0.0000000000
      3490        32  SAPE      C212            5.6008311857       22.5915111610        7.0226611846  MEMB      32              0.0000000000
      3491        32  SAPE      H12R            5.8258216863       23.4093521320        6.3222929338  MEMB      32              0.0000000000
      3492        32  SAPE      C213            5.4405479442       21.2479236069        6.3108514131  MEMB      32              0.0000000000
      3493        32  SAPE      H13R            4.7100051391       20.5742867400        6.8076829837  MEMB      32              0.0000000000
      3494        32  SAPE      H13S            6.4368530962       20.7585785550        6.3581621965  MEMB      32              0.0000000000
      3495        32  SAPE      C214            5.0571558824       21.1905709079        4.8635754324  MEMB      32              0.0000000000
      3496        32  SAPE      H14R            4.0225860553       20.9067466135        4.6204524356  MEMB      32              0.0000000000
      3497        32  SAPE      C215            5.8045843079       21.6154346759        3.7918923363  MEMB      32              0.0000000000
      3498        32  SAPE      H15R            5.3315066439       21.4386775961        2.8146751523  MEMB      32              0.0000000000
      3499        32  SAPE      C216            7.2202919603       22.2555955262        3.7020452349  MEMB      32              0.0000000000
      3500        32  SAPE      H16R            7.8784998031       21.5001099622        3.2221247124  MEMB      32              0.0000000000
      3501        32  SAPE      H16S            7.4681703458       22.5194915865        4.7523960736  MEMB      32              0.0000000000
      3502        32  SAPE      C217            7.3959720543       23.3726424533        2.6189804495  MEMB      32              0.0000000000
      3503        32  SAPE      H17R            8.3813478563       23.8705303519        2.7433346108  MEMB      32              0.0000000000
      3504        32  SAPE      H17S            6.6630423912       24.1918490516        2.7803377657  MEMB      32              0.0000000000
      3505        32  SAPE      C218            7.2433464763       22.8833339313        1.1783056827  MEMB      32              0.0000000000
      3506        32  SAPE      H18R            6.1938129426       22.6055097934        0.9424788389  MEMB      32              0.0000000000
      3507        32  SAPE      H18S            7.8211182159       21.9354692574        1.1329908482  MEMB      32              0.0000000000
      3508        32  SAPE      C219            7.5909089370       23.8576094951        0.0647470544  MEMB      32              0.0000000000
      3509        32  SAPE      H19R            7.3593858901       23.4363360034       -0.9368737864  MEMB      32              0.0000000000
      3510        32  SAPE      H19S            8.6903379200       23.9820984886       -0.0356493086  MEMB      32              0.0000000000
      3511        32  SAPE      C220            6.9455619883       25.2073619191        0.0536589142  MEMB      32              0.0000000000
      3512        32  SAPE      H20R            5.9056375493       25.0752394101       -0.3143378089  MEMB      32              0.0000000000
      3513        32  SAPE      H20S            7.4293341017       25.9427674688       -0.6241795248  MEMB      32              0.0000000000
      3514        32  SAPE      H20T            6.8455387053       25.6141277835        1.0826669206  MEMB      32              0.0000000000
      3515        32  SAPE      C33             9.1048428792       24.9539915393       12.8379090926  MEMB      32              0.0000000000
      3516        32  SAPE      H3X             9.8748550829       24.3247127654       13.3332983943  MEMB      32              0.0000000000
      3517        32  SAPE      H3Y             9.3937865322       26.0223547381       12.9350305808  MEMB      32              0.0000000000
      3518        32  SAPE      C34             9.1170520214       24.5748145823       11.3416814981  MEMB      32              0.0000000000
      3519        32  SAPE      H4X             8.6270347248       23.5806517683       11.2652335839  MEMB      32              0.0000000000
      3520        32  SAPE      H4Y            10.1572018304       24.6503803060       10.9586673766  MEMB      32              0.0000000000
      3521        32  SAPE      C35             8.3096380811       25.5994013546       10.5214045278  MEMB      32              0.0000000000
      3522        32  SAPE      H5X             8.6672475026       26.6451434351       10.6348071856  MEMB      32              0.0000000000
      3523        32  SAPE      H5Y             7.2417340056       25.4687524193       10.7985921844  MEMB      32              0.0000000000
      3524        32  SAPE      C36             8.4448090915       25.2955070369        8.9891304291  MEMB      32              0.0000000000
      3525        32  SAPE      H6X             7.9048293293       24.3452556983        8.7897183396  MEMB      32              0.0000000000
      3526        32  SAPE      H6Y             9.4810343325       25.1333243518        8.6227234213  MEMB      32              0.0000000000
      3527        32  SAPE      C37             7.8870287570       26.2502132258        7.9568373795  MEMB      32              0.0000000000
      3528        32  SAPE      H7X             8.0751214542       27.3077626169        8.2406183017  MEMB      32              0.0000000000
      3529        32  SAPE      H7Y             6.7825156933       26.1819281927        8.0553713236  MEMB      32              0.0000000000
      3530        32  SAPE      C38             8.1162969632       25.7271730448        6.5084696866  MEMB      32              0.0000000000
      3531        32  SAPE      H8X             7.6388082005       24.7277709352        6.4217450171  MEMB      32              0.0000000000
      3532        32  SAPE      H8Y             9.1903306529       25.7817146009        6.2295467892  MEMB      32              0.0000000000
      3533        32  SAPE      C39             7.3479276524       26.5721364596        5.4437896892  MEMB      32              0.0000000000
      3534        32  SAPE      H9X             7.6291313602       26.1071944949        4.4747312431  MEMB      32              0.0000000000
      3535        32  SAPE      H9Y             7.7879837944       27.5884247143        5.5322754068  MEMB      32              0.0000000000
      3536        32  SAPE      C310            5.8120378062       26.6973288443        5.6113068660  MEMB      32              0.0000000000
      3537        32  SAPE      H10X            5.6436733815       27.2952468872        6.5324308501  MEMB      32              0.0000000000
      3538        32  SAPE      H10Y            5.3611419938       25.7022533467        5.8133943017  MEMB      32              0.0000000000
      3539        32  SAPE      C311            5.1633050324       27.2823543733        4.3419961049  MEMB      32              0.0000000000
      3540        32  SAPE      H11X            5.4586399602       26.7711916682        3.4008203984  MEMB      32              0.0000000000
      3541        32  SAPE      H11Y            5.5124284645       28.3190988031        4.1481030531  MEMB      32              0.0000000000
      3542        32  SAPE      C312            3.5290522490       27.1428819875        4.3524054895  MEMB      32              0.0000000000
      3543        32  SAPE      H12X            3.0952945084       28.0704474610        4.7834473247  MEMB      32              0.0000000000
      3544        32  SAPE      H12Y            3.2912075405       26.2748917744        5.0038224308  MEMB      32              0.0000000000
      3545        32  SAPE      C313            2.9777230251       26.9746056248        2.8912887808  MEMB      32              0.0000000000
      3546        32  SAPE      H13X            3.1279668211       27.8762112147        2.2597388249  MEMB      32              0.0000000000
      3547        32  SAPE      H13Y            1.8933436852       26.8657672667        3.1071510130  MEMB      32              0.0000000000
      3548        32  SAPE      C314            3.4789957335       25.7685296092        2.1149430212  MEMB      32              0.0000000000
      3549        32  SAPE      H14X            3.2159491395       24.8554066920        2.6905587534  MEMB      32              0.0000000000
      3550        32  SAPE      H14Y            4.5832523649       25.8531905281        2.0267906317  MEMB      32              0.0000000000
      3551        32  SAPE      C315            2.8453168150       25.5339368309        0.7432792998  MEMB      32              0.0000000000
      3552        32  SAPE      H15X            1.7736780734       25.2897614851        0.9054214007  MEMB      32              0.0000000000
      3553        32  SAPE      H15Y            3.2737911870       24.6099521178        0.2994525227  MEMB      32              0.0000000000
      3554        32  SAPE      C316            2.8736366392       26.6839158813       -0.3055446799  MEMB      32              0.0000000000
      3555        32  SAPE      H16X            3.9050930441       26.9277290723       -0.6386708175  MEMB      32              0.0000000000
      3556        32  SAPE      H16Y            2.3115369121       27.5335237731        0.1377736475  MEMB      32              0.0000000000
      3557        32  SAPE      C317            2.0205408561       26.3746877760       -1.6300335761  MEMB      32              0.0000000000
      3558        32  SAPE      H17X            2.0191266418       27.3542780974       -2.1541724835  MEMB      32              0.0000000000
      3559        32  SAPE      H17Y            1.0310961323       25.9388994188       -1.3742815693  MEMB      32              0.0000000000
      3560        32  SAPE      C318            2.7653543270       25.3067889803       -2.5065629089  MEMB      32              0.0000000000
      3561        32  SAPE      H18X            2.4105653543       25.3942134086       -3.5557541629  MEMB      32              0.0000000000
      3562        32  SAPE      H18Y            2.7310130486       24.2789641660       -2.0861844169  MEMB      32              0.0000000000
      3563        32  SAPE      H18Z            3.8250829172       25.6403453954       -2.5125964485  MEMB      32              0.0000000000
      3564        33  OSM       N             -13.7582472890       21.0448548412       21.8949336014  MEMB      33              0.0000000000
      3565        33  OSM       C15           -15.2188514480       21.3245219618       21.9156268578  MEMB      33              0.0000000000
      3566        33  OSM       H15A          -15.5672979822       21.4396780729       22.9313651199  MEMB      33              0.0000000000
      3567        33  OSM       H15B          -15.6626574592       20.4796945803       21.4099559958  MEMB      33              0.0000000000
      3568        33  OSM       H15C          -15.4222048477       22.1110752640       21.2040224102  MEMB      33              0.0000000000
      3569        33  OSM       C14           -13.0304020834       22.3624044992       21.9692412053  MEMB      33              0.0000000000
      3570        33  OSM       H14A          -13.2720116193       22.8717645888       22.8904235147  MEMB      33              0.0000000000
      3571        33  OSM       H14B          -13.1255569750       22.9064505095       21.0411466834  MEMB      33              0.0000000000
      3572        33  OSM       H14C          -11.9826444820       22.1181584529       22.0638340418  MEMB      33              0.0000000000
      3573        33  OSM       C13           -13.5047254506       20.2067510774       23.1739063692  MEMB      33              0.0000000000
      3574        33  OSM       H13A          -12.4865742039       19.8713345299       23.0425147679  MEMB      33              0.0000000000
      3575        33  OSM       H13B          -14.2004839610       19.3819526839       23.2189354156  MEMB      33              0.0000000000
      3576        33  OSM       H13C          -13.7346363636       20.6582298253       24.1276926267  MEMB      33              0.0000000000
      3577        33  OSM       C12           -13.2833095277       20.4016855028       20.6153315404  MEMB      33              0.0000000000
      3578        33  OSM       H12A          -12.2243584422       20.5857575656       20.5097861768  MEMB      33              0.0000000000
      3579        33  OSM       H12B          -13.7990219589       20.8485725521       19.7782337923  MEMB      33              0.0000000000
      3580        33  OSM       C11           -13.5633030133       18.8416690515       20.5384065265  MEMB      33              0.0000000000
      3581        33  OSM       H11A          -12.9513794653       18.2988809933       21.2902387324  MEMB      33              0.0000000000
      3582        33  OSM       H11B          -13.1574657741       18.5349480828       19.5507125931  MEMB      33              0.0000000000
      3583        33  OSM       P             -15.3278341873       17.0277733863       20.1998743618  MEMB      33              0.0000000000
      3584        33  OSM       O13           -14.1619445916       16.1637811644       20.5492728937  MEMB      33              0.0000000000
      3585        33  OSM       O14           -16.6061083001       16.7134580386       20.8611781421  MEMB      33              0.0000000000
      3586        33  OSM       O11           -15.5267901929       17.2255382229       18.5933562604  MEMB      33              0.0000000000
      3587        33  OSM       O12           -14.9012079164       18.4872875499       20.6888722466  MEMB      33              0.0000000000
      3588        33  OSM       C1S           -14.5956102665       16.5809194894       17.7466911494  MEMB      33              0.0000000000
      3589        33  OSM       H1S           -14.8622432404       15.5065096562       17.8408794735  MEMB      33              0.0000000000
      3590        33  OSM       H1T           -13.5525499371       16.7185715197       18.1036196804  MEMB      33              0.0000000000
      3591        33  OSM       NF            -14.3640124586       16.2188952032       15.3326094749  MEMB      33              0.0000000000
      3592        33  OSM       HNF           -13.5958252245       16.5228944742       14.7745041445  MEMB      33              0.0000000000
      3593        33  OSM       C2S           -14.7909786209       17.1392728524       16.3212566383  MEMB      33              0.0000000000
      3594        33  OSM       H2S           -15.8796848786       17.2825504388       16.1524037303  MEMB      33              0.0000000000
      3595        33  OSM       C3S           -14.0731873392       18.5139829816       16.1468884674  MEMB      33              0.0000000000
      3596        33  OSM       H3S           -12.9793499248       18.3194774253       16.1440224767  MEMB      33              0.0000000000
      3597        33  OSM       O3            -14.2914069912       19.5152494898       17.1213974490  MEMB      33              0.0000000000
      3598        33  OSM       HO3           -14.8976924690       19.0964219948       17.7367032751  MEMB      33              0.0000000000
      3599        33  OSM       C4S           -14.4908046878       19.0659285048       14.7718052693  MEMB      33              0.0000000000
      3600        33  OSM       H4S           -15.5080783067       19.4828225615       14.7350134613  MEMB      33              0.0000000000
      3601        33  OSM       C5S           -13.7391338454       19.3781277585       13.7221852683  MEMB      33              0.0000000000
      3602        33  OSM       H5S           -12.6812029688       19.0775294854       13.7427589460  MEMB      33              0.0000000000
      3603        33  OSM       C6S           -14.1931184076       19.9699362767       12.3160608197  MEMB      33              0.0000000000
      3604        33  OSM       H6S           -13.9143058411       19.1593162396       11.6093222348  MEMB      33              0.0000000000
      3605        33  OSM       H6T           -13.5824426082       20.8422876242       11.9992026295  MEMB      33              0.0000000000
      3606        33  OSM       C7S           -15.6898896701       20.3246923548       12.2883676082  MEMB      33              0.0000000000
      3607        33  OSM       H7S           -15.9942806761       21.2067216289       12.8914354709  MEMB      33              0.0000000000
      3608        33  OSM       H7T           -16.3542753381       19.5325471610       12.6950840387  MEMB      33              0.0000000000
      3609        33  OSM       C8S           -16.2706192324       20.5461553191       10.8208356311  MEMB      33              0.0000000000
      3610        33  OSM       H8S           -15.7928146594       21.4397472031       10.3652950945  MEMB      33              0.0000000000
      3611        33  OSM       H8T           -17.3301107471       20.8361297135       10.9873092599  MEMB      33              0.0000000000
      3612        33  OSM       C9S           -16.1717547513       19.4930299557        9.7282172768  MEMB      33              0.0000000000
      3613        33  OSM       H9S           -16.6387992174       18.5740293030       10.1424973961  MEMB      33              0.0000000000
      3614        33  OSM       H9T           -15.1461547449       19.2796228639        9.3581860568  MEMB      33              0.0000000000
      3615        33  OSM       C10S          -16.9246015147       19.8839328495        8.4250376910  MEMB      33              0.0000000000
      3616        33  OSM       H10S          -16.4448627509       20.8257613678        8.0827939190  MEMB      33              0.0000000000
      3617        33  OSM       H10T          -18.0028244463       20.0876874245        8.5989358420  MEMB      33              0.0000000000
      3618        33  OSM       C11S          -16.7103582631       18.9630356023        7.2608180154  MEMB      33              0.0000000000
      3619        33  OSM       H11S          -17.3401681663       18.0969026788        7.5565782485  MEMB      33              0.0000000000
      3620        33  OSM       H11T          -15.6628078273       18.6317746645        7.0958170485  MEMB      33              0.0000000000
      3621        33  OSM       C12S          -17.2315881477       19.5717842560        6.0061518774  MEMB      33              0.0000000000
      3622        33  OSM       H12S          -16.4752305562       20.2448053792        5.5486730928  MEMB      33              0.0000000000
      3623        33  OSM       H12T          -18.1547976394       20.1652337370        6.1788442236  MEMB      33              0.0000000000
      3624        33  OSM       C13S          -17.5912808576       18.5044326023        4.8443337976  MEMB      33              0.0000000000
      3625        33  OSM       H13S          -18.1146563636       17.6451702384        5.3155749773  MEMB      33              0.0000000000
      3626        33  OSM       H13T          -16.5678638173       18.2060621551        4.5314225212  MEMB      33              0.0000000000
      3627        33  OSM       C14S          -18.4210856157       19.1409454989        3.7274924591  MEMB      33              0.0000000000
      3628        33  OSM       H14S          -18.2768487655       20.2323715971        3.8768445214  MEMB      33              0.0000000000
      3629        33  OSM       H14T          -19.4732445653       18.8703559820        3.9600085977  MEMB      33              0.0000000000
      3630        33  OSM       C15S          -18.0417658351       18.6863203185        2.3599410894  MEMB      33              0.0000000000
      3631        33  OSM       H15S          -18.4256319283       17.6788630467        2.0916171305  MEMB      33              0.0000000000
      3632        33  OSM       H15T          -16.9688510196       18.8593669167        2.1292244377  MEMB      33              0.0000000000
      3633        33  OSM       C16S          -18.7358668982       19.6395662224        1.1817276460  MEMB      33              0.0000000000
      3634        33  OSM       H16S          -18.2375940800       20.6269408265        1.0761993818  MEMB      33              0.0000000000
      3635        33  OSM       H16T          -19.7972750159       19.7687332823        1.4834731344  MEMB      33              0.0000000000
      3636        33  OSM       C17S          -18.6948027677       19.1241848655       -0.2689539599  MEMB      33              0.0000000000
      3637        33  OSM       H17S          -19.1005773942       18.0982500858       -0.3998198414  MEMB      33              0.0000000000
      3638        33  OSM       H17T          -17.5847451125       19.1020221638       -0.3089814208  MEMB      33              0.0000000000
      3639        33  OSM       C18S          -19.1862301109       20.0727774366       -1.3031181587  MEMB      33              0.0000000000
      3640        33  OSM       H18S          -20.1925974560       20.5307600443       -1.1944992493  MEMB      33              0.0000000000
      3641        33  OSM       H18T          -19.2650668277       19.4749773397       -2.2362521795  MEMB      33              0.0000000000
      3642        33  OSM       H18U          -18.3387809167       20.7597279858       -1.5134738637  MEMB      33              0.0000000000
      3643        33  OSM       C1F           -14.9259472998       15.0584188698       15.0096079254  MEMB      33              0.0000000000
      3644        33  OSM       OF            -15.7578465683       14.4524458552       15.6713068444  MEMB      33              0.0000000000
      3645        33  OSM       C2F           -14.3319191458       14.2344305615       13.9462761847  MEMB      33              0.0000000000
      3646        33  OSM       H2F           -13.9403829647       13.2370908006       14.2401012303  MEMB      33              0.0000000000
      3647        33  OSM       H2G           -13.6068918156       14.9699519478       13.5368070226  MEMB      33              0.0000000000
      3648        33  OSM       C3F           -15.4988466873       13.9061976254       12.9262729361  MEMB      33              0.0000000000
      3649        33  OSM       H3F           -16.2725451058       13.2651323903       13.4003482760  MEMB      33              0.0000000000
      3650        33  OSM       H3G           -15.0790519098       13.3380186798       12.0687970478  MEMB      33              0.0000000000
      3651        33  OSM       C4F           -16.1662256651       15.1649611593       12.3842478357  MEMB      33              0.0000000000
      3652        33  OSM       H4F           -16.6368241432       15.7701400727       13.1883722385  MEMB      33              0.0000000000
      3653        33  OSM       H4G           -16.9602017999       14.8476016481       11.6748778538  MEMB      33              0.0000000000
      3654        33  OSM       C5F           -15.2847471525       16.1253063684       11.4814899740  MEMB      33              0.0000000000
      3655        33  OSM       H5F           -14.2976894624       16.2518939531       11.9754676312  MEMB      33              0.0000000000
      3656        33  OSM       H5G           -15.8500461848       17.0790128945       11.5536148610  MEMB      33              0.0000000000
      3657        33  OSM       C6F           -15.0334998151       15.6331081598       10.0260204530  MEMB      33              0.0000000000
      3658        33  OSM       H6F           -16.0263327976       15.8001963173        9.5562488737  MEMB      33              0.0000000000
      3659        33  OSM       H6G           -14.9244806987       14.5281423871       10.0645674857  MEMB      33              0.0000000000
      3660        33  OSM       C7F           -14.0265982120       16.3898109442        9.1774745877  MEMB      33              0.0000000000
      3661        33  OSM       H7F           -14.2959879885       17.4427391912        8.9470576470  MEMB      33              0.0000000000
      3662        33  OSM       H7G           -14.2750319136       16.1197513244        8.1288230288  MEMB      33              0.0000000000
      3663        33  OSM       C8F           -12.5702035869       16.2561217724        9.5043488107  MEMB      33              0.0000000000
      3664        33  OSM       H8F           -12.0203072633       16.3974394671        8.5493806232  MEMB      33              0.0000000000
      3665        33  OSM       H8G           -12.3733842188       15.2053062966        9.8066231819  MEMB      33              0.0000000000
      3666        33  OSM       C9F           -12.0789079693       17.1049704313       10.7190449665  MEMB      33              0.0000000000
      3667        33  OSM       H9F           -12.1453506128       16.5746640358       11.6804821703  MEMB      33              0.0000000000
      3668        33  OSM       C10F          -11.4877709750       18.3658832281       10.6674944481  MEMB      33              0.0000000000
      3669        33  OSM       H10F          -11.2039657363       18.8291945566       11.6239455321  MEMB      33              0.0000000000
      3670        33  OSM       C11F          -11.2268909152       19.1112583762        9.3797464974  MEMB      33              0.0000000000
      3671        33  OSM       H11F          -10.9651543919       20.1825630837        9.5143630123  MEMB      33              0.0000000000
      3672        33  OSM       H11G          -12.1344389968       18.9627388756        8.7563529645  MEMB      33              0.0000000000
      3673        33  OSM       C12F           -9.9272937821       18.5574216710        8.6793285323  MEMB      33              0.0000000000
      3674        33  OSM       H12F           -9.9720320306       17.4480341317        8.6395928578  MEMB      33              0.0000000000
      3675        33  OSM       H12G           -9.0222389377       18.9052570066        9.2217365278  MEMB      33              0.0000000000
      3676        33  OSM       C13F           -9.8590705674       19.0284468222        7.1811335412  MEMB      33              0.0000000000
      3677        33  OSM       H13F           -8.8356251663       19.1321103754        6.7614498442  MEMB      33              0.0000000000
      3678        33  OSM       H13G          -10.2928658019       20.0505003860        7.1417744266  MEMB      33              0.0000000000
      3679        33  OSM       C14F          -10.6827066390       18.1330651071        6.2192907116  MEMB      33              0.0000000000
      3680        33  OSM       H14F          -11.7531686016       18.1237785515        6.5165217155  MEMB      33              0.0000000000
      3681        33  OSM       H14G          -10.2545005792       17.1079104719        6.2150008847  MEMB      33              0.0000000000
      3682        33  OSM       C15F          -10.5559808823       18.4813857342        4.7397342381  MEMB      33              0.0000000000
      3683        33  OSM       H15F          -10.9625787212       17.6191616268        4.1691470117  MEMB      33              0.0000000000
      3684        33  OSM       H15G           -9.5584697766       18.8695052786        4.4419832557  MEMB      33              0.0000000000
      3685        33  OSM       C16F          -11.4796047713       19.6701928689        4.3262839424  MEMB      33              0.0000000000
      3686        33  OSM       H16F          -10.9911011268       20.4191596950        3.6669413313  MEMB      33              0.0000000000
      3687        33  OSM       H16G          -11.7696148264       20.1895393620        5.2646315157  MEMB      33              0.0000000000
      3688        33  OSM       C17F          -12.7653868931       19.3035850526        3.5490597192  MEMB      33              0.0000000000
      3689        33  OSM       H17F          -13.5783801778       19.9767855943        3.8957072828  MEMB      33              0.0000000000
      3690        33  OSM       H17G          -13.0857749140       18.2797720451        3.8379882536  MEMB      33              0.0000000000
      3691        33  OSM       C18F          -12.5597006311       19.4199226874        2.0097381244  MEMB      33              0.0000000000
      3692        33  OSM       H18F          -11.6891828887       18.8589399523        1.6074718683  MEMB      33              0.0000000000
      3693        33  OSM       H18G          -12.3067695873       20.4876187004        1.8354625002  MEMB      33              0.0000000000
      3694        33  OSM       H18H          -13.5187255188       19.1206875613        1.5353434189  MEMB      33              0.0000000000
      3695        34  OSM       N             -22.5834176521      -11.4038417270       20.9339213611  MEMB      34              0.0000000000
      3696        34  OSM       C15           -22.2312150980      -12.4656326387       19.9292240713  MEMB      34              0.0000000000
      3697        34  OSM       H15A          -21.4745100867      -13.1289290422       20.3214428735  MEMB      34              0.0000000000
      3698        34  OSM       H15B          -22.0138017099      -12.0089594367       18.9749804507  MEMB      34              0.0000000000
      3699        34  OSM       H15C          -23.0098876468      -13.1923645179       19.7505349265  MEMB      34              0.0000000000
      3700        34  OSM       C14           -23.8677834821      -10.8010849994       20.5375376896  MEMB      34              0.0000000000
      3701        34  OSM       H14A          -23.7110483535       -9.8497598623       20.0509017489  MEMB      34              0.0000000000
      3702        34  OSM       H14B          -24.4228915482      -10.5988226536       21.4416091128  MEMB      34              0.0000000000
      3703        34  OSM       H14C          -24.3208754336      -11.4226488951       19.7794044006  MEMB      34              0.0000000000
      3704        34  OSM       C13           -22.6702387797      -11.9198231825       22.3376907080  MEMB      34              0.0000000000
      3705        34  OSM       H13A          -21.7315337438      -12.3039919585       22.7086988361  MEMB      34              0.0000000000
      3706        34  OSM       H13B          -23.4294440594      -12.6870474009       22.3747621491  MEMB      34              0.0000000000
      3707        34  OSM       H13C          -22.9806206276      -11.0712210913       22.9292459473  MEMB      34              0.0000000000
      3708        34  OSM       C12           -21.3324315543      -10.4310745764       20.8534231184  MEMB      34              0.0000000000
      3709        34  OSM       H12A          -21.1595138527      -10.0763410648       19.8481054753  MEMB      34              0.0000000000
      3710        34  OSM       H12B          -20.5425187867      -11.1065521426       21.1469669263  MEMB      34              0.0000000000
      3711        34  OSM       C11           -21.4141952878       -9.2419578663       21.8166230885  MEMB      34              0.0000000000
      3712        34  OSM       H11A          -20.4971865291       -8.6219480933       21.7217344916  MEMB      34              0.0000000000
      3713        34  OSM       H11B          -21.4676434642       -9.7131034615       22.8213548645  MEMB      34              0.0000000000
      3714        34  OSM       P             -22.3826116393       -6.9375943522       20.9293483302  MEMB      34              0.0000000000
      3715        34  OSM       O13           -23.7125894606       -6.2529300647       21.2444350001  MEMB      34              0.0000000000
      3716        34  OSM       O14           -21.1471817579       -6.2632290744       21.5302839640  MEMB      34              0.0000000000
      3717        34  OSM       O11           -22.2086188559       -6.9923404354       19.3796907993  MEMB      34              0.0000000000
      3718        34  OSM       O12           -22.4978154309       -8.4455429986       21.5078218716  MEMB      34              0.0000000000
      3719        34  OSM       C1S           -22.7171931216       -8.0548509979       18.6653633463  MEMB      34              0.0000000000
      3720        34  OSM       H1S           -23.7913869201       -8.1679516980       18.9254341489  MEMB      34              0.0000000000
      3721        34  OSM       H1T           -22.2612729047       -9.0484532017       18.8633845130  MEMB      34              0.0000000000
      3722        34  OSM       NF            -23.5274984561       -8.5667791825       16.3503861248  MEMB      34              0.0000000000
      3723        34  OSM       HNF           -22.9650044867       -9.1751517621       15.7958661295  MEMB      34              0.0000000000
      3724        34  OSM       C2S           -22.7494461626       -7.6591775693       17.1094814555  MEMB      34              0.0000000000
      3725        34  OSM       H2S           -23.2443329809       -6.6903467966       16.8841487138  MEMB      34              0.0000000000
      3726        34  OSM       C3S           -21.3578821366       -7.5452436513       16.4449934546  MEMB      34              0.0000000000
      3727        34  OSM       H3S           -20.9195752460       -8.5512572123       16.6186155530  MEMB      34              0.0000000000
      3728        34  OSM       O3            -20.5985606723       -6.5732904876       17.0440199663  MEMB      34              0.0000000000
      3729        34  OSM       HO3           -21.0103840197       -6.3787112195       17.8890881571  MEMB      34              0.0000000000
      3730        34  OSM       C4S           -21.6040494798       -7.1725739187       15.0043897297  MEMB      34              0.0000000000
      3731        34  OSM       H4S           -21.8290962632       -6.1413741369       14.6945819215  MEMB      34              0.0000000000
      3732        34  OSM       C5S           -21.3468840670       -8.0550047575       14.0373027101  MEMB      34              0.0000000000
      3733        34  OSM       H5S           -20.6918924858       -8.8924339155       14.3196116104  MEMB      34              0.0000000000
      3734        34  OSM       C6S           -21.5843037476       -7.8634008030       12.5401841643  MEMB      34              0.0000000000
      3735        34  OSM       H6S           -21.7903282824       -6.8308765967       12.1855454472  MEMB      34              0.0000000000
      3736        34  OSM       H6T           -22.5339348370       -8.4003705272       12.3299803605  MEMB      34              0.0000000000
      3737        34  OSM       C7S           -20.4830092953       -8.4572369130       11.5813226395  MEMB      34              0.0000000000
      3738        34  OSM       H7S           -19.5060739619       -7.9491144256       11.7287332313  MEMB      34              0.0000000000
      3739        34  OSM       H7T           -20.6204321588       -8.2232084120       10.5039810166  MEMB      34              0.0000000000
      3740        34  OSM       C8S           -20.3915520341       -9.9702930403       11.7012222963  MEMB      34              0.0000000000
      3741        34  OSM       H8S           -20.1683438901      -10.1811200871       12.7689545203  MEMB      34              0.0000000000
      3742        34  OSM       H8T           -19.5645320548      -10.3772637575       11.0809535191  MEMB      34              0.0000000000
      3743        34  OSM       C9S           -21.5623381293      -10.7477672613       11.1043459645  MEMB      34              0.0000000000
      3744        34  OSM       H9S           -22.5482321286      -10.3442290904       11.4197683892  MEMB      34              0.0000000000
      3745        34  OSM       H9T           -21.5013235524      -11.8066285904       11.4351187867  MEMB      34              0.0000000000
      3746        34  OSM       C10S          -21.4574949287      -11.0067527237        9.5721388509  MEMB      34              0.0000000000
      3747        34  OSM       H10S          -20.5816084088      -11.6699494622        9.4068694937  MEMB      34              0.0000000000
      3748        34  OSM       H10T          -21.2155700908      -10.0312638050        9.0986256026  MEMB      34              0.0000000000
      3749        34  OSM       C11S          -22.7490401921      -11.6063303586        9.0134548787  MEMB      34              0.0000000000
      3750        34  OSM       H11S          -23.6418510917      -11.0250590384        9.3286264471  MEMB      34              0.0000000000
      3751        34  OSM       H11T          -23.0448196146      -12.5161573551        9.5783004978  MEMB      34              0.0000000000
      3752        34  OSM       C12S          -22.8212819831      -11.9846617547        7.4506964020  MEMB      34              0.0000000000
      3753        34  OSM       H12S          -23.8651968891      -12.3108505356        7.2553424514  MEMB      34              0.0000000000
      3754        34  OSM       H12T          -22.0779690663      -12.7753158657        7.2126344402  MEMB      34              0.0000000000
      3755        34  OSM       C13S          -22.5061219851      -10.8134745657        6.5421425075  MEMB      34              0.0000000000
      3756        34  OSM       H13S          -21.4178207926      -10.6134599002        6.6417188058  MEMB      34              0.0000000000
      3757        34  OSM       H13T          -23.0954236750       -9.9254396928        6.8558914849  MEMB      34              0.0000000000
      3758        34  OSM       C14S          -22.7569331680      -11.0967122431        5.0553811766  MEMB      34              0.0000000000
      3759        34  OSM       H14S          -22.2330590039      -11.9848948195        4.6418498959  MEMB      34              0.0000000000
      3760        34  OSM       H14T          -22.4048513842      -10.1830559718        4.5304128992  MEMB      34              0.0000000000
      3761        34  OSM       C15S          -24.2347038222      -11.4014566131        4.8635702515  MEMB      34              0.0000000000
      3762        34  OSM       H15S          -24.9467947022      -10.6577246557        5.2808360570  MEMB      34              0.0000000000
      3763        34  OSM       H15T          -24.4396488303      -12.3469213353        5.4098446677  MEMB      34              0.0000000000
      3764        34  OSM       C16S          -24.7299895622      -11.4192008752        3.4233093408  MEMB      34              0.0000000000
      3765        34  OSM       H16S          -24.7305501669      -10.3416480128        3.1527519935  MEMB      34              0.0000000000
      3766        34  OSM       H16T          -25.7667014287      -11.7933080508        3.5632852170  MEMB      34              0.0000000000
      3767        34  OSM       C17S          -24.0491696823      -12.2778387707        2.4482043118  MEMB      34              0.0000000000
      3768        34  OSM       H17S          -23.9547578795      -13.2940678340        2.8871629101  MEMB      34              0.0000000000
      3769        34  OSM       H17T          -23.0214627883      -11.9061415449        2.2482535353  MEMB      34              0.0000000000
      3770        34  OSM       C18S          -24.7419684153      -12.3735149186        1.0924673536  MEMB      34              0.0000000000
      3771        34  OSM       H18S          -25.5362144352      -13.1447595581        1.1856116856  MEMB      34              0.0000000000
      3772        34  OSM       H18T          -24.0629299317      -12.5761670235        0.2368037807  MEMB      34              0.0000000000
      3773        34  OSM       H18U          -25.1990940131      -11.3879850110        0.8598984945  MEMB      34              0.0000000000
      3774        34  OSM       C1F           -24.8101111273       -8.8315088667       16.5066632949  MEMB      34              0.0000000000
      3775        34  OSM       OF            -25.4957093551       -8.3218867707       17.3714589082  MEMB      34              0.0000000000
      3776        34  OSM       C2F           -25.3773773773       -9.8185199543       15.5083165446  MEMB      34              0.0000000000
      3777        34  OSM       H2F           -25.7593419215      -10.6951748246       16.0739138104  MEMB      34              0.0000000000
      3778        34  OSM       H2G           -24.5024536720      -10.0897189087       14.8796032131  MEMB      34              0.0000000000
      3779        34  OSM       C3F           -26.5814731529       -9.3359261768       14.7579743902  MEMB      34              0.0000000000
      3780        34  OSM       H3F           -27.2987544716       -9.0108803711       15.5416669883  MEMB      34              0.0000000000
      3781        34  OSM       H3G           -27.0932314038      -10.1057209331       14.1416625969  MEMB      34              0.0000000000
      3782        34  OSM       C4F           -26.2205048815       -8.2134980857       13.8527706499  MEMB      34              0.0000000000
      3783        34  OSM       H4F           -25.3273087677       -7.6602075293       14.2138676642  MEMB      34              0.0000000000
      3784        34  OSM       H4G           -27.1085649439       -7.5469799276       13.8150314268  MEMB      34              0.0000000000
      3785        34  OSM       C5F           -25.8525321189       -8.6813023521       12.4327789862  MEMB      34              0.0000000000
      3786        34  OSM       H5F           -26.6064359250       -9.2794834625       11.8776850861  MEMB      34              0.0000000000
      3787        34  OSM       H5G           -25.0271710325       -9.4046753460       12.6054969678  MEMB      34              0.0000000000
      3788        34  OSM       C6F           -25.2131472789       -7.5954527965       11.5489413295  MEMB      34              0.0000000000
      3789        34  OSM       H6F           -24.5290423074       -7.9590031891       10.7526039286  MEMB      34              0.0000000000
      3790        34  OSM       H6G           -24.5147887046       -7.1247727708       12.2735628232  MEMB      34              0.0000000000
      3791        34  OSM       C7F           -26.0894358093       -6.4817634721       10.8528790238  MEMB      34              0.0000000000
      3792        34  OSM       H7F           -26.4313494636       -5.7981184826       11.6591328768  MEMB      34              0.0000000000
      3793        34  OSM       H7G           -27.0514112310       -6.9373578787       10.5345116246  MEMB      34              0.0000000000
      3794        34  OSM       C8F           -25.4217887597       -5.7511510426        9.6904150503  MEMB      34              0.0000000000
      3795        34  OSM       H8F           -26.1064036384       -4.8960675044        9.5047910923  MEMB      34              0.0000000000
      3796        34  OSM       H8G           -25.3488896443       -6.4526198194        8.8319580739  MEMB      34              0.0000000000
      3797        34  OSM       C9F           -23.9885560043       -5.2126013720        9.9066821160  MEMB      34              0.0000000000
      3798        34  OSM       H9F           -23.8696890121       -4.5243982041       10.7565329571  MEMB      34              0.0000000000
      3799        34  OSM       C10F          -22.8352246957       -5.5181451456        9.2365958959  MEMB      34              0.0000000000
      3800        34  OSM       H10F          -21.9075442645       -5.0717545529        9.6240806875  MEMB      34              0.0000000000
      3801        34  OSM       C11F          -22.7725317930       -6.4351622094        8.0208291862  MEMB      34              0.0000000000
      3802        34  OSM       H11F          -23.2101301146       -7.4402164088        8.2016462058  MEMB      34              0.0000000000
      3803        34  OSM       H11G          -21.6904503053       -6.6320574342        7.8638153076  MEMB      34              0.0000000000
      3804        34  OSM       C12F          -23.4392093021       -5.8069610066        6.7195982220  MEMB      34              0.0000000000
      3805        34  OSM       H12F          -23.0337039034       -4.7943164572        6.5087961123  MEMB      34              0.0000000000
      3806        34  OSM       H12G          -24.5093114405       -5.6315216188        6.9613075187  MEMB      34              0.0000000000
      3807        34  OSM       C13F          -23.1651153890       -6.7820371428        5.4787560290  MEMB      34              0.0000000000
      3808        34  OSM       H13F          -23.6328265634       -7.7758678767        5.6456925324  MEMB      34              0.0000000000
      3809        34  OSM       H13G          -22.0604643930       -6.8432972882        5.3771951851  MEMB      34              0.0000000000
      3810        34  OSM       C14F          -23.8637169352       -6.3216274056        4.1638977766  MEMB      34              0.0000000000
      3811        34  OSM       H14F          -23.5729091162       -5.3107006974        3.8064365544  MEMB      34              0.0000000000
      3812        34  OSM       H14G          -24.9485883843       -6.3633647746        4.3997642535  MEMB      34              0.0000000000
      3813        34  OSM       C15F          -23.6934030294       -7.3818110989        3.0239692027  MEMB      34              0.0000000000
      3814        34  OSM       H15F          -24.2172754428       -8.2965216931        3.3749436461  MEMB      34              0.0000000000
      3815        34  OSM       H15G          -22.6091028179       -7.6236493229        3.0126674283  MEMB      34              0.0000000000
      3816        34  OSM       C16F          -24.2065431803       -6.8967865539        1.6704042510  MEMB      34              0.0000000000
      3817        34  OSM       H16F          -23.7805021919       -5.8865836694        1.4906816534  MEMB      34              0.0000000000
      3818        34  OSM       H16G          -25.3107661565       -6.7868952005        1.7245953561  MEMB      34              0.0000000000
      3819        34  OSM       C17F          -23.8860477227       -7.7351012447        0.4931774675  MEMB      34              0.0000000000
      3820        34  OSM       H17F          -24.1256074717       -8.7992450598        0.7041982608  MEMB      34              0.0000000000
      3821        34  OSM       H17G          -22.7914076176       -7.6492617120        0.3237203233  MEMB      34              0.0000000000
      3822        34  OSM       C18F          -24.7178746914       -7.4652449322       -0.7178430637  MEMB      34              0.0000000000
      3823        34  OSM       H18F          -25.7838712861       -7.2997948530       -0.4521389682  MEMB      34              0.0000000000
      3824        34  OSM       H18G          -24.5638679180       -8.2111175700       -1.5267185396  MEMB      34              0.0000000000
      3825        34  OSM       H18H          -24.4865595011       -6.4538916171       -1.1153091389  MEMB      34              0.0000000000
      3826        35  OSM       N             -18.9835105688      -16.5760676104       22.6768156852  MEMB      35              0.0000000000
      3827        35  OSM       C15           -17.6311482474      -16.0000130723       23.0095953003  MEMB      35              0.0000000000
      3828        35  OSM       H15A          -16.9283602333      -15.9887456154       22.1896185309  MEMB      35              0.0000000000
      3829        35  OSM       H15B          -17.2976667727      -16.5615758560       23.8697334248  MEMB      35              0.0000000000
      3830        35  OSM       H15C          -17.7121916525      -14.9499736039       23.2488632350  MEMB      35              0.0000000000
      3831        35  OSM       C14           -18.9719782086      -17.9699044929       22.3081364340  MEMB      35              0.0000000000
      3832        35  OSM       H14A          -18.5305724083      -18.5927432444       23.0720951296  MEMB      35              0.0000000000
      3833        35  OSM       H14B          -18.3688800247      -18.1531240751       21.4311511325  MEMB      35              0.0000000000
      3834        35  OSM       H14C          -19.9508963590      -18.3656677634       22.0812202974  MEMB      35              0.0000000000
      3835        35  OSM       C13           -19.8254936659      -16.4336322448       24.0029530267  MEMB      35              0.0000000000
      3836        35  OSM       H13A          -20.7147254581      -17.0442396762       23.9498010011  MEMB      35              0.0000000000
      3837        35  OSM       H13B          -20.0659137032      -15.3814357836       24.0414368309  MEMB      35              0.0000000000
      3838        35  OSM       H13C          -19.1745542667      -16.6448176170       24.8384639996  MEMB      35              0.0000000000
      3839        35  OSM       C12           -19.7420001523      -15.7231048342       21.6421455944  MEMB      35              0.0000000000
      3840        35  OSM       H12A          -19.9183422189      -14.7231103705       22.0099965285  MEMB      35              0.0000000000
      3841        35  OSM       H12B          -20.7216200820      -16.1593295479       21.5138770418  MEMB      35              0.0000000000
      3842        35  OSM       C11           -19.1865617635      -15.6876553545       20.1546386567  MEMB      35              0.0000000000
      3843        35  OSM       H11A          -19.6487165805      -14.8486609097       19.5917689496  MEMB      35              0.0000000000
      3844        35  OSM       H11B          -19.5453225202      -16.5413747419       19.5408187579  MEMB      35              0.0000000000
      3845        35  OSM       P             -16.8018202851      -16.5744971542       19.4900830056  MEMB      35              0.0000000000
      3846        35  OSM       O13           -15.4255626697      -16.3847807796       20.0138381273  MEMB      35              0.0000000000
      3847        35  OSM       O14           -17.3806937476      -17.8894618317       19.6341346599  MEMB      35              0.0000000000
      3848        35  OSM       O11           -16.8511483810      -16.2544574826       17.9397659982  MEMB      35              0.0000000000
      3849        35  OSM       O12           -17.7937281081      -15.5050550469       20.1278935171  MEMB      35              0.0000000000
      3850        35  OSM       C1S           -16.7036039007      -14.9862165064       17.4143488282  MEMB      35              0.0000000000
      3851        35  OSM       H1S           -15.7403822677      -14.4855664008       17.6507268935  MEMB      35              0.0000000000
      3852        35  OSM       H1T           -17.5093222442      -14.3326967234       17.8119050172  MEMB      35              0.0000000000
      3853        35  OSM       NF            -15.7646590799      -15.7337930208       15.3788954637  MEMB      35              0.0000000000
      3854        35  OSM       HNF           -15.1059232446      -15.1354519863       14.9293804183  MEMB      35              0.0000000000
      3855        35  OSM       C2S           -16.8353739916      -14.9805830969       15.9078932076  MEMB      35              0.0000000000
      3856        35  OSM       H2S           -17.7651040929      -15.4471113042       15.5176697438  MEMB      35              0.0000000000
      3857        35  OSM       C3S           -16.8013833137      -13.5232165729       15.5227419075  MEMB      35              0.0000000000
      3858        35  OSM       H3S           -15.8634728835      -13.0411009359       15.8723265054  MEMB      35              0.0000000000
      3859        35  OSM       O3            -17.8273082726      -12.7794911171       16.1903360422  MEMB      35              0.0000000000
      3860        35  OSM       HO3           -18.0683947819      -13.2308784052       17.0025715253  MEMB      35              0.0000000000
      3861        35  OSM       C4S           -16.9365679594      -13.3740772586       14.0601924082  MEMB      35              0.0000000000
      3862        35  OSM       H4S           -15.9133526501      -13.2435601013       13.6780980818  MEMB      35              0.0000000000
      3863        35  OSM       C5S           -17.9694678588      -13.4318010616       13.2394454684  MEMB      35              0.0000000000
      3864        35  OSM       H5S           -18.9513012757      -13.6111954497       13.7018529250  MEMB      35              0.0000000000
      3865        35  OSM       C6S           -17.9192377189      -13.2176863365       11.7817596356  MEMB      35              0.0000000000
      3866        35  OSM       H6S           -18.4935354785      -12.2960322766       11.5471182441  MEMB      35              0.0000000000
      3867        35  OSM       H6T           -18.4060242105      -14.1731610065       11.4911950592  MEMB      35              0.0000000000
      3868        35  OSM       C7S           -16.5307873741      -13.0416900035       11.0947408635  MEMB      35              0.0000000000
      3869        35  OSM       H7S           -15.8564554560      -13.8369184954       11.4784194216  MEMB      35              0.0000000000
      3870        35  OSM       H7T           -16.0175690288      -12.0878375930       11.3419116308  MEMB      35              0.0000000000
      3871        35  OSM       C8S           -16.6639442294      -13.1076830074        9.4845497186  MEMB      35              0.0000000000
      3872        35  OSM       H8S           -15.8270983210      -12.5114060634        9.0620991872  MEMB      35              0.0000000000
      3873        35  OSM       H8T           -17.5981863315      -12.5581562028        9.2405551493  MEMB      35              0.0000000000
      3874        35  OSM       C9S           -16.6907580439      -14.5516722417        8.9278013328  MEMB      35              0.0000000000
      3875        35  OSM       H9S           -17.3637356524      -15.2518333174        9.4674273960  MEMB      35              0.0000000000
      3876        35  OSM       H9T           -15.7162115468      -15.0358458524        9.1517564337  MEMB      35              0.0000000000
      3877        35  OSM       C10S          -16.9750568945      -14.6589735409        7.4034451784  MEMB      35              0.0000000000
      3878        35  OSM       H10S          -17.2465640340      -15.6923068451        7.0987697999  MEMB      35              0.0000000000
      3879        35  OSM       H10T          -16.0005683801      -14.5484729376        6.8814463047  MEMB      35              0.0000000000
      3880        35  OSM       C11S          -18.0624864476      -13.7794137486        6.8679079774  MEMB      35              0.0000000000
      3881        35  OSM       H11S          -17.6732594040      -12.7508178515        7.0254324512  MEMB      35              0.0000000000
      3882        35  OSM       H11T          -18.9103267361      -14.0374053959        7.5379293646  MEMB      35              0.0000000000
      3883        35  OSM       C12S          -18.3618794773      -14.1043799945        5.3533862253  MEMB      35              0.0000000000
      3884        35  OSM       H12S          -19.4563690872      -13.9847355034        5.2047296410  MEMB      35              0.0000000000
      3885        35  OSM       H12T          -18.1518956914      -15.1767411757        5.1527143720  MEMB      35              0.0000000000
      3886        35  OSM       C13S          -17.6437295869      -13.2211577947        4.3197075384  MEMB      35              0.0000000000
      3887        35  OSM       H13S          -16.6567362836      -12.8299908783        4.6470506363  MEMB      35              0.0000000000
      3888        35  OSM       H13T          -18.3005393282      -12.3354128780        4.1841449894  MEMB      35              0.0000000000
      3889        35  OSM       C14S          -17.3178978190      -13.8982980708        3.0279546349  MEMB      35              0.0000000000
      3890        35  OSM       H14S          -16.8795820659      -14.8963161869        3.2428038790  MEMB      35              0.0000000000
      3891        35  OSM       H14T          -16.4774263291      -13.3391388697        2.5639826579  MEMB      35              0.0000000000
      3892        35  OSM       C15S          -18.3334780667      -14.0089134566        1.8933537265  MEMB      35              0.0000000000
      3893        35  OSM       H15S          -18.8783800161      -13.0596746382        1.7027013611  MEMB      35              0.0000000000
      3894        35  OSM       H15T          -18.9593625175      -14.8754041705        2.1963109194  MEMB      35              0.0000000000
      3895        35  OSM       C16S          -17.6811971762      -14.4753385662        0.6210289497  MEMB      35              0.0000000000
      3896        35  OSM       H16S          -16.9718128030      -15.2301495657        1.0227203509  MEMB      35              0.0000000000
      3897        35  OSM       H16T          -17.1611212665      -13.6316629335        0.1189793853  MEMB      35              0.0000000000
      3898        35  OSM       C17S          -18.7974019999      -15.0442454089       -0.3466056010  MEMB      35              0.0000000000
      3899        35  OSM       H17S          -19.4374282924      -14.1626184262       -0.5643703164  MEMB      35              0.0000000000
      3900        35  OSM       H17T          -19.3410646913      -15.9219655971        0.0637104733  MEMB      35              0.0000000000
      3901        35  OSM       C18S          -18.2425970174      -15.4366362098       -1.7306802029  MEMB      35              0.0000000000
      3902        35  OSM       H18S          -17.8232712945      -14.5050075454       -2.1672071008  MEMB      35              0.0000000000
      3903        35  OSM       H18T          -19.1238866316      -15.8030595911       -2.2993490925  MEMB      35              0.0000000000
      3904        35  OSM       H18U          -17.5327440315      -16.2912869305       -1.7320171093  MEMB      35              0.0000000000
      3905        35  OSM       C1F           -15.7600560276      -17.0661614811       15.2142361869  MEMB      35              0.0000000000
      3906        35  OSM       OF            -16.6337685932      -17.8646944591       15.6317533531  MEMB      35              0.0000000000
      3907        35  OSM       C2F           -14.4774696933      -17.5652908892       14.5272823809  MEMB      35              0.0000000000
      3908        35  OSM       H2F           -13.8892136393      -18.2042030558       15.2201514313  MEMB      35              0.0000000000
      3909        35  OSM       H2G           -13.7349426641      -16.8578024527       14.1001583244  MEMB      35              0.0000000000
      3910        35  OSM       C3F           -14.8675583075      -18.4328873414       13.3131243990  MEMB      35              0.0000000000
      3911        35  OSM       H3F           -15.6043329004      -19.1270478029       13.7709732053  MEMB      35              0.0000000000
      3912        35  OSM       H3G           -14.0646788325      -19.0574341183       12.8663054652  MEMB      35              0.0000000000
      3913        35  OSM       C4F           -15.5726846963      -17.7074871004       12.0350233824  MEMB      35              0.0000000000
      3914        35  OSM       H4F           -14.7779956670      -17.4307854117       11.3096084843  MEMB      35              0.0000000000
      3915        35  OSM       H4G           -16.0940876931      -16.7552956840       12.2712253564  MEMB      35              0.0000000000
      3916        35  OSM       C5F           -16.6400442494      -18.6477939567       11.3920135942  MEMB      35              0.0000000000
      3917        35  OSM       H5F           -17.4877858400      -18.0272301145       11.0306894510  MEMB      35              0.0000000000
      3918        35  OSM       H5G           -17.1622465215      -19.2625186506       12.1560421444  MEMB      35              0.0000000000
      3919        35  OSM       C6F           -16.0187352695      -19.7130025711       10.4760840946  MEMB      35              0.0000000000
      3920        35  OSM       H6F           -16.7404197458      -20.5056950243       10.1843109480  MEMB      35              0.0000000000
      3921        35  OSM       H6G           -15.0742844754      -20.0309661920       10.9672373021  MEMB      35              0.0000000000
      3922        35  OSM       C7F           -15.5146172627      -19.0636722732        9.1880310405  MEMB      35              0.0000000000
      3923        35  OSM       H7F           -14.4430339736      -19.2981318183        9.0117958244  MEMB      35              0.0000000000
      3924        35  OSM       H7G           -15.3691890805      -17.9675887880        9.2965337205  MEMB      35              0.0000000000
      3925        35  OSM       C8F           -16.3281185288      -19.2499008055        7.8836756667  MEMB      35              0.0000000000
      3926        35  OSM       H8F           -16.0279704766      -20.2208293502        7.4347557720  MEMB      35              0.0000000000
      3927        35  OSM       H8G           -16.0364236809      -18.3906470820        7.2426464800  MEMB      35              0.0000000000
      3928        35  OSM       C9F           -17.8847115713      -19.3028055670        7.9673635100  MEMB      35              0.0000000000
      3929        35  OSM       H9F           -18.2841996844      -18.5806612835        8.6946302625  MEMB      35              0.0000000000
      3930        35  OSM       C10F          -18.7473432113      -19.9587787983        7.1121843074  MEMB      35              0.0000000000
      3931        35  OSM       H10F          -19.8101811520      -19.6793873793        7.0640625185  MEMB      35              0.0000000000
      3932        35  OSM       C11F          -18.3696817019      -20.7118482707        5.9467023026  MEMB      35              0.0000000000
      3933        35  OSM       H11F          -18.8501728200      -21.7125923248        5.9909782828  MEMB      35              0.0000000000
      3934        35  OSM       H11G          -17.2594104366      -20.7331796226        5.9125897433  MEMB      35              0.0000000000
      3935        35  OSM       C12F          -18.9399661409      -20.1010128463        4.6142274084  MEMB      35              0.0000000000
      3936        35  OSM       H12F          -20.0390947553      -19.9396483667        4.6001208048  MEMB      35              0.0000000000
      3937        35  OSM       H12G          -18.7008319108      -20.6603405957        3.6845566601  MEMB      35              0.0000000000
      3938        35  OSM       C13F          -18.3132896255      -18.7030976962        4.2527170599  MEMB      35              0.0000000000
      3939        35  OSM       H13F          -18.4199409981      -17.9677769577        5.0787008907  MEMB      35              0.0000000000
      3940        35  OSM       H13G          -18.8776250303      -18.2297682365        3.4209674303  MEMB      35              0.0000000000
      3941        35  OSM       C14F          -16.8346939585      -18.8463157041        3.6843728656  MEMB      35              0.0000000000
      3942        35  OSM       H14F          -16.7996086940      -19.8572952077        3.2250156142  MEMB      35              0.0000000000
      3943        35  OSM       H14G          -16.0459250872      -18.7110128423        4.4549943414  MEMB      35              0.0000000000
      3944        35  OSM       C15F          -16.4436238014      -17.7791845855        2.6112909634  MEMB      35              0.0000000000
      3945        35  OSM       H15F          -16.5872801106      -16.7637223980        3.0385154021  MEMB      35              0.0000000000
      3946        35  OSM       H15G          -17.0573471922      -17.9176788531        1.6956025223  MEMB      35              0.0000000000
      3947        35  OSM       C16F          -14.9279932035      -17.9407008598        2.1994455325  MEMB      35              0.0000000000
      3948        35  OSM       H16F          -14.9049225448      -18.9604772161        1.7591683429  MEMB      35              0.0000000000
      3949        35  OSM       H16G          -14.2445706731      -17.8026096001        3.0644230335  MEMB      35              0.0000000000
      3950        35  OSM       C17F          -14.4034769799      -17.0100344696        1.0624813806  MEMB      35              0.0000000000
      3951        35  OSM       H17F          -15.1850519489      -16.9975983734        0.2729834767  MEMB      35              0.0000000000
      3952        35  OSM       H17G          -13.4381106404      -17.3622493771        0.6401858444  MEMB      35              0.0000000000
      3953        35  OSM       C18F          -14.0175846403      -15.6412855473        1.5498867010  MEMB      35              0.0000000000
      3954        35  OSM       H18F          -13.4869205347      -14.9689883452        0.8422612333  MEMB      35              0.0000000000
      3955        35  OSM       H18G          -13.3745335637      -15.8283789424        2.4363417948  MEMB      35              0.0000000000
      3956        35  OSM       H18H          -14.9374587963      -15.0542991994        1.7586925763  MEMB      35              0.0000000000
      3957        36  CHL1      C3              1.6430389783      -24.9017060952       17.3184700000  MEMB      36              0.0000000000
      3958        36  CHL1      H3              0.8646015448      -24.2435440240       16.8766800000  MEMB      36              0.0000000000
      3959        36  CHL1      O3              2.0169671817      -24.5312265048       18.6815300000  MEMB      36              0.0000000000
      3960        36  CHL1      H3'             2.5681557823      -23.7469730690       18.6293500000  MEMB      36              0.0000000000
      3961        36  CHL1      C4              1.1229748369      -26.3210110352       17.4414400000  MEMB      36              0.0000000000
      3962        36  CHL1      H4A             1.7544529020      -27.0492757722       17.9938800000  MEMB      36              0.0000000000
      3963        36  CHL1      H4B             0.2373542169      -26.1642993182       18.0936900000  MEMB      36              0.0000000000
      3964        36  CHL1      C5              0.7433607754      -26.8209950873       16.0387600000  MEMB      36              0.0000000000
      3965        36  CHL1      C6             -0.4728208759      -27.2200123300       15.6231200000  MEMB      36              0.0000000000
      3966        36  CHL1      H6             -1.3375540094      -27.2383182801       16.3027600000  MEMB      36              0.0000000000
      3967        36  CHL1      C7             -0.6949145885      -27.7909612763       14.2463200000  MEMB      36              0.0000000000
      3968        36  CHL1      H7A            -1.1677431093      -28.7933544087       14.3235200000  MEMB      36              0.0000000000
      3969        36  CHL1      H7B            -1.3358740861      -27.1083437259       13.6483900000  MEMB      36              0.0000000000
      3970        36  CHL1      C8              0.6003103330      -28.1937364907       13.4650900000  MEMB      36              0.0000000000
      3971        36  CHL1      H8              1.0317864154      -29.0596198625       14.0113400000  MEMB      36              0.0000000000
      3972        36  CHL1      C14             0.2736108875      -28.4777915537       12.0226900000  MEMB      36              0.0000000000
      3973        36  CHL1      H14            -0.0576730709      -27.5009895663       11.6098400000  MEMB      36              0.0000000000
      3974        36  CHL1      C15            -0.7501917029      -29.5260153687       11.5763800000  MEMB      36              0.0000000000
      3975        36  CHL1      H15A           -0.8473922384      -30.3698501506       12.2924900000  MEMB      36              0.0000000000
      3976        36  CHL1      H15B           -1.7542129311      -29.0532858622       11.5236000000  MEMB      36              0.0000000000
      3977        36  CHL1      C16            -0.2367923416      -30.0670609512       10.1847800000  MEMB      36              0.0000000000
      3978        36  CHL1      H16A            0.1044099697      -31.1218672159       10.2575200000  MEMB      36              0.0000000000
      3979        36  CHL1      H16B           -1.1281773302      -30.0352248369        9.5224000000  MEMB      36              0.0000000000
      3980        36  CHL1      C17             0.9374384742      -29.1822871984        9.8097000000  MEMB      36              0.0000000000
      3981        36  CHL1      H17             0.3944455236      -28.2801620121        9.4552200000  MEMB      36              0.0000000000
      3982        36  CHL1      C13             1.5228369752      -28.7037545994       11.1812500000  MEMB      36              0.0000000000
      3983        36  CHL1      C18             2.2593003420      -29.9141860051       11.7976700000  MEMB      36              0.0000000000
      3984        36  CHL1      H18A            3.1332457970      -30.1573167769       11.1562400000  MEMB      36              0.0000000000
      3985        36  CHL1      H18B            2.6988348834      -29.7633901858       12.8068200000  MEMB      36              0.0000000000
      3986        36  CHL1      H18C            1.6065604384      -30.8129951753       11.8179400000  MEMB      36              0.0000000000
      3987        36  CHL1      C12             2.3495701792      -27.3846255866       11.2288100000  MEMB      36              0.0000000000
      3988        36  CHL1      H12A            3.2855710648      -27.6334796898       10.6844800000  MEMB      36              0.0000000000
      3989        36  CHL1      H12B            1.8551354790      -26.5186203521       10.7390300000  MEMB      36              0.0000000000
      3990        36  CHL1      C11             2.7966022078      -27.0094753160       12.6209300000  MEMB      36              0.0000000000
      3991        36  CHL1      H11A            3.6009068804      -27.6542417858       13.0352800000  MEMB      36              0.0000000000
      3992        36  CHL1      H11B            3.3764407848      -26.0617877991       12.6226700000  MEMB      36              0.0000000000
      3993        36  CHL1      C9              1.5916945736      -27.0052834505       13.6175700000  MEMB      36              0.0000000000
      3994        36  CHL1      H9              1.0440630180      -26.0713861107       13.3680300000  MEMB      36              0.0000000000
      3995        36  CHL1      C10             1.9413793801      -26.9168899744       15.0815500000  MEMB      36              0.0000000000
      3996        36  CHL1      C19             2.8323340165      -28.0663462695       15.5772400000  MEMB      36              0.0000000000
      3997        36  CHL1      H19A            2.2375933455      -28.9973711428       15.6946100000  MEMB      36              0.0000000000
      3998        36  CHL1      H19B            3.6668797752      -28.2754224919       14.8742800000  MEMB      36              0.0000000000
      3999        36  CHL1      H19C            3.2502879536      -27.7442922228       16.5549600000  MEMB      36              0.0000000000
      4000        36  CHL1      C1              2.7833543022      -25.5615144192       15.1863800000  MEMB      36              0.0000000000
      4001        36  CHL1      H1A             3.8408474597      -25.6505122996       14.8575800000  MEMB      36              0.0000000000
      4002        36  CHL1      H1B             2.2053569647      -24.8093516116       14.6080200000  MEMB      36              0.0000000000
      4003        36  CHL1      C2              2.8944422491      -24.8988702251       16.5553900000  MEMB      36              0.0000000000
      4004        36  CHL1      H2A             3.3231951325      -23.8937970375       16.3545700000  MEMB      36              0.0000000000
      4005        36  CHL1      H2B             3.6400378504      -25.5544503274       17.0540100000  MEMB      36              0.0000000000
      4006        36  CHL1      C20             1.8819934859      -29.6645092654        8.6759700000  MEMB      36              0.0000000000
      4007        36  CHL1      H20             2.4120965369      -30.5747030691        9.0293200000  MEMB      36              0.0000000000
      4008        36  CHL1      C21             2.9530806935      -28.6160348831        8.2393700000  MEMB      36              0.0000000000
      4009        36  CHL1      H21A            3.6543287686      -28.5376441049        9.0975200000  MEMB      36              0.0000000000
      4010        36  CHL1      H21B            2.4147785866      -27.6572899602        8.0801200000  MEMB      36              0.0000000000
      4011        36  CHL1      H21C            3.5787311980      -28.8767450992        7.3590800000  MEMB      36              0.0000000000
      4012        36  CHL1      C22             1.1818422960      -30.1154147097        7.3799900000  MEMB      36              0.0000000000
      4013        36  CHL1      H22A            1.9538483110      -30.3458363712        6.6149900000  MEMB      36              0.0000000000
      4014        36  CHL1      H22B            0.7069821419      -31.0994135694        7.5814100000  MEMB      36              0.0000000000
      4015        36  CHL1      C23             0.1174250608      -29.1388534268        6.7732100000  MEMB      36              0.0000000000
      4016        36  CHL1      H23A           -0.6634391495      -29.0215651435        7.5547600000  MEMB      36              0.0000000000
      4017        36  CHL1      H23B            0.5115595734      -28.1051527542        6.6710500000  MEMB      36              0.0000000000
      4018        36  CHL1      C24            -0.3806527031      -29.5426748292        5.3851200000  MEMB      36              0.0000000000
      4019        36  CHL1      H24A            0.4488888945      -29.7365294561        4.6719500000  MEMB      36              0.0000000000
      4020        36  CHL1      H24B           -0.9250617953      -30.4955666334        5.5581900000  MEMB      36              0.0000000000
      4021        36  CHL1      C25            -1.4483647565      -28.5731985921        4.7436800000  MEMB      36              0.0000000000
      4022        36  CHL1      H25            -1.0226736320      -27.5712084278        4.5220800000  MEMB      36              0.0000000000
      4023        36  CHL1      C26            -2.1554136268      -29.1705953279        3.5381500000  MEMB      36              0.0000000000
      4024        36  CHL1      H26A           -2.9288793439      -28.5565403824        3.0292100000  MEMB      36              0.0000000000
      4025        36  CHL1      H26B           -1.3300545383      -29.2872597389        2.8036400000  MEMB      36              0.0000000000
      4026        36  CHL1      H26C           -2.5669219510      -30.1889423309        3.7053300000  MEMB      36              0.0000000000
      4027        36  CHL1      C27            -2.6350472117      -28.1992701780        5.7365900000  MEMB      36              0.0000000000
      4028        36  CHL1      H27A           -3.3662463285      -29.0355254613        5.7181200000  MEMB      36              0.0000000000
      4029        36  CHL1      H27B           -2.2628337743      -27.9091376286        6.7423700000  MEMB      36              0.0000000000
      4030        36  CHL1      H27C           -3.2080174130      -27.3370954478        5.3332400000  MEMB      36              0.0000000000
      4031        37  POPC      N              -7.4561322807      -22.4181985919       19.6008445790  MEMB      37              0.0000000000
      4032        37  POPC      C12            -5.9600685391      -22.6615182316       19.4060627541  MEMB      37              0.0000000000
      4033        37  POPC      H12A           -5.4710752168      -21.9456347414       20.0501095364  MEMB      37              0.0000000000
      4034        37  POPC      H12B           -5.8714442434      -22.4714460510       18.3466203182  MEMB      37              0.0000000000
      4035        37  POPC      C13            -8.1930983977      -23.4193350250       18.7451785512  MEMB      37              0.0000000000
      4036        37  POPC      H13A           -7.7469578578      -23.4574238851       17.7623723499  MEMB      37              0.0000000000
      4037        37  POPC      H13B           -8.2205976652      -24.3791698605       19.2395073598  MEMB      37              0.0000000000
      4038        37  POPC      H13C           -9.2140641905      -23.0799765762       18.6510271457  MEMB      37              0.0000000000
      4039        37  POPC      C14            -7.7954053340      -22.5444174987       20.9890811404  MEMB      37              0.0000000000
      4040        37  POPC      H14A           -7.3454613526      -23.4249041728       21.4234698049  MEMB      37              0.0000000000
      4041        37  POPC      H14B           -7.3969590687      -21.6423508827       21.4294409016  MEMB      37              0.0000000000
      4042        37  POPC      H14C           -8.8469815056      -22.4612302040       21.2207440158  MEMB      37              0.0000000000
      4043        37  POPC      C15            -7.8184265029      -21.0236824628       19.1813674536  MEMB      37              0.0000000000
      4044        37  POPC      H15A           -7.1759061740      -20.2511295618       19.5772586281  MEMB      37              0.0000000000
      4045        37  POPC      H15B           -8.8328645761      -20.7868256481       19.4663477339  MEMB      37              0.0000000000
      4046        37  POPC      H15C           -7.8703069474      -21.0647736200       18.1033971552  MEMB      37              0.0000000000
      4047        37  POPC      C11            -5.4339854590      -24.0977896166       19.5454498946  MEMB      37              0.0000000000
      4048        37  POPC      H11A           -5.6080398385      -24.5265734132       20.5554847635  MEMB      37              0.0000000000
      4049        37  POPC      H11B           -4.3387974120      -23.9200672037       19.4880142576  MEMB      37              0.0000000000
      4050        37  POPC      P              -5.4108777767      -26.4077894749       18.3661291685  MEMB      37              0.0000000000
      4051        37  POPC      O13            -6.5983479769      -27.2526163461       18.1222565932  MEMB      37              0.0000000000
      4052        37  POPC      O14            -4.5827486454      -26.6546962499       19.5781434430  MEMB      37              0.0000000000
      4053        37  POPC      O12            -5.7943398422      -24.8799630060       18.3984724603  MEMB      37              0.0000000000
      4054        37  POPC      O11            -4.5357424917      -26.4283670025       17.0670139671  MEMB      37              0.0000000000
      4055        37  POPC      C1             -3.1672370307      -26.3807326808       17.3351013706  MEMB      37              0.0000000000
      4056        37  POPC      HA             -2.8350173066      -27.4045686867       17.6102575729  MEMB      37              0.0000000000
      4057        37  POPC      HB             -2.8115566038      -25.6788439189       18.1194257823  MEMB      37              0.0000000000
      4058        37  POPC      C2             -2.3733433917      -26.0732518085       16.0372580805  MEMB      37              0.0000000000
      4059        37  POPC      HS             -1.3425931320      -25.9885246259       16.4430860406  MEMB      37              0.0000000000
      4060        37  POPC      O21            -2.7478965106      -24.8202913036       15.4673052004  MEMB      37              0.0000000000
      4061        37  POPC      C21            -1.9370022387      -24.4134826549       14.4117082451  MEMB      37              0.0000000000
      4062        37  POPC      O22            -0.9794350283      -24.9979821451       14.1249191256  MEMB      37              0.0000000000
      4063        37  POPC      C22            -2.5239488726      -23.1235323276       13.8731349458  MEMB      37              0.0000000000
      4064        37  POPC      H2R            -2.8183540085      -22.4448296720       14.7019951057  MEMB      37              0.0000000000
      4065        37  POPC      H2S            -3.4900923797      -23.4344317377       13.4212175284  MEMB      37              0.0000000000
      4066        37  POPC      C3             -2.6600535012      -27.2813738033       15.1066650406  MEMB      37              0.0000000000
      4067        37  POPC      HX             -2.6696364596      -28.2118998318       15.7135838517  MEMB      37              0.0000000000
      4068        37  POPC      HY             -1.8002338663      -27.3454505988       14.4060040636  MEMB      37              0.0000000000
      4069        37  POPC      O31            -3.9424983887      -27.2275274738       14.4815529905  MEMB      37              0.0000000000
      4070        37  POPC      C31            -3.9099892483      -27.5985709387       13.1815386295  MEMB      37              0.0000000000
      4071        37  POPC      O32            -2.9101422971      -27.6341733084       12.4776430194  MEMB      37              0.0000000000
      4072        37  POPC      C32            -5.4236137763      -27.8773351072       12.7168724889  MEMB      37              0.0000000000
      4073        37  POPC      H2X            -6.1468816777      -27.1273160169       13.1024574836  MEMB      37              0.0000000000
      4074        37  POPC      H2Y            -5.7247130354      -28.8876071894       13.0676011874  MEMB      37              0.0000000000
      4075        37  POPC      C23            -1.5362713273      -22.3990503889       12.9514541281  MEMB      37              0.0000000000
      4076        37  POPC      H3R            -0.4973245944      -22.3739901635       13.3442425445  MEMB      37              0.0000000000
      4077        37  POPC      H3S            -2.0361539161      -21.4091212047       12.8845300692  MEMB      37              0.0000000000
      4078        37  POPC      C24            -1.3308965585      -22.8809657396       11.4798282926  MEMB      37              0.0000000000
      4079        37  POPC      H4R            -0.5950765416      -23.7127820602       11.4486603475  MEMB      37              0.0000000000
      4080        37  POPC      H4S            -0.9210959947      -22.0434213255       10.8757550692  MEMB      37              0.0000000000
      4081        37  POPC      C25            -2.6313448496      -23.3742363688       10.8009896270  MEMB      37              0.0000000000
      4082        37  POPC      H5R            -3.4902724304      -22.7398191345       11.1077123954  MEMB      37              0.0000000000
      4083        37  POPC      H5S            -2.8923505136      -24.3910960910       11.1645731918  MEMB      37              0.0000000000
      4084        37  POPC      C26            -2.3946195972      -23.4966533117        9.2288287847  MEMB      37              0.0000000000
      4085        37  POPC      H6R            -1.4083901917      -23.9350586400        8.9652505829  MEMB      37              0.0000000000
      4086        37  POPC      H6S            -2.3777050589      -22.4709131533        8.8023409457  MEMB      37              0.0000000000
      4087        37  POPC      C27            -3.5419437041      -24.2672349919        8.5699264680  MEMB      37              0.0000000000
      4088        37  POPC      H7R            -3.8177125532      -25.0886703531        9.2652796529  MEMB      37              0.0000000000
      4089        37  POPC      H7S            -3.1512827868      -24.7756971238        7.6626388321  MEMB      37              0.0000000000
      4090        37  POPC      C28            -4.7293973326      -23.3700873086        8.2343227329  MEMB      37              0.0000000000
      4091        37  POPC      H8R            -5.0742380901      -22.6913243623        9.0434492291  MEMB      37              0.0000000000
      4092        37  POPC      H8S            -5.5360925199      -24.0960970568        7.9966801929  MEMB      37              0.0000000000
      4093        37  POPC      C29            -4.4919006041      -22.5715236082        6.9171700553  MEMB      37              0.0000000000
      4094        37  POPC      H91            -3.4468565634      -22.5892820702        6.5742884126  MEMB      37              0.0000000000
      4095        37  POPC      C210           -5.3969871532      -21.9391184979        6.1824730738  MEMB      37              0.0000000000
      4096        37  POPC      H101           -5.0230415812      -21.4066947393        5.2955175215  MEMB      37              0.0000000000
      4097        37  POPC      C211           -6.9039955646      -21.7943334503        6.4281098381  MEMB      37              0.0000000000
      4098        37  POPC      H11R           -7.3393355620      -20.7886105664        6.2455670673  MEMB      37              0.0000000000
      4099        37  POPC      H11S           -7.2918880451      -22.0500007260        7.4373142140  MEMB      37              0.0000000000
      4100        37  POPC      C212           -7.6030378671      -22.7555149787        5.4453291818  MEMB      37              0.0000000000
      4101        37  POPC      H12R           -8.7046682856      -22.7590705771        5.5892699706  MEMB      37              0.0000000000
      4102        37  POPC      H12S           -7.1923434192      -23.7871794712        5.4816533586  MEMB      37              0.0000000000
      4103        37  POPC      C213           -7.4212869243      -22.3538530373        3.9966524916  MEMB      37              0.0000000000
      4104        37  POPC      H13R           -6.4305027970      -22.6654339432        3.6022092691  MEMB      37              0.0000000000
      4105        37  POPC      H13S           -7.4759290821      -21.2468624161        3.9197960374  MEMB      37              0.0000000000
      4106        37  POPC      C214           -8.3909591056      -22.9868537825        2.9409684698  MEMB      37              0.0000000000
      4107        37  POPC      H14R           -8.2420902791      -22.6075731411        1.9073811401  MEMB      37              0.0000000000
      4108        37  POPC      H14S           -9.4423620470      -22.7285041510        3.1902256202  MEMB      37              0.0000000000
      4109        37  POPC      C215           -8.2786739664      -24.4691876278        2.9015576182  MEMB      37              0.0000000000
      4110        37  POPC      H15R           -8.6492187931      -24.8585923939        3.8738662507  MEMB      37              0.0000000000
      4111        37  POPC      H15S           -7.2169549029      -24.7733976152        2.7810176441  MEMB      37              0.0000000000
      4112        37  POPC      C216           -9.0088856391      -25.0133163340        1.6174908420  MEMB      37              0.0000000000
      4113        37  POPC      H16R           -8.4407777797      -24.7886824894        0.6895295988  MEMB      37              0.0000000000
      4114        37  POPC      H16S          -10.0097600620      -24.5328690785        1.6592270501  MEMB      37              0.0000000000
      4115        37  POPC      C217           -9.0238119783      -26.6017999235        1.5543314257  MEMB      37              0.0000000000
      4116        37  POPC      H17R           -9.2549671838      -27.0146220940        2.5595513349  MEMB      37              0.0000000000
      4117        37  POPC      H17S           -7.9952466545      -26.9425498386        1.3088434468  MEMB      37              0.0000000000
      4118        37  POPC      C218          -10.1242370855      -27.3105421094        0.6327859312  MEMB      37              0.0000000000
      4119        37  POPC      H18R           -9.9781979830      -28.4111917748        0.6723299323  MEMB      37              0.0000000000
      4120        37  POPC      H18S          -10.2104738117      -26.9190838969       -0.4033815270  MEMB      37              0.0000000000
      4121        37  POPC      H18T          -11.0763391814      -26.9658853077        1.0899887132  MEMB      37              0.0000000000
      4122        37  POPC      C33            -5.5497292654      -27.9023291066       11.1796715588  MEMB      37              0.0000000000
      4123        37  POPC      H3X            -4.6087785730      -28.2667416430       10.7147662180  MEMB      37              0.0000000000
      4124        37  POPC      H3Y            -5.6874910893      -26.8756012284       10.7782080279  MEMB      37              0.0000000000
      4125        37  POPC      C34            -6.5993323182      -28.8713528246       10.6029021244  MEMB      37              0.0000000000
      4126        37  POPC      H4X            -7.5534672438      -28.6603291428       11.1315000534  MEMB      37              0.0000000000
      4127        37  POPC      H4Y            -6.3330908153      -29.9111872905       10.8895739195  MEMB      37              0.0000000000
      4128        37  POPC      C35            -6.7603933229      -28.7919683967        9.0955039122  MEMB      37              0.0000000000
      4129        37  POPC      H5X            -7.6072326738      -29.4740046317        8.8674472726  MEMB      37              0.0000000000
      4130        37  POPC      H5Y            -5.8321030906      -29.2470737356        8.6887152348  MEMB      37              0.0000000000
      4131        37  POPC      C36            -7.0942983807      -27.4313450349        8.5065911613  MEMB      37              0.0000000000
      4132        37  POPC      H6X            -6.3536577286      -26.6252674872        8.6963574081  MEMB      37              0.0000000000
      4133        37  POPC      H6Y            -8.0890991826      -27.1492509105        8.9129348528  MEMB      37              0.0000000000
      4134        37  POPC      C37            -7.3467536288      -27.4944946133        7.0163885345  MEMB      37              0.0000000000
      4135        37  POPC      H7X            -7.8138633043      -26.5320275304        6.7167441812  MEMB      37              0.0000000000
      4136        37  POPC      H7Y            -8.0616178588      -28.3366392158        6.8977175541  MEMB      37              0.0000000000
      4137        37  POPC      C38            -6.0016688850      -27.6017336979        6.2232928920  MEMB      37              0.0000000000
      4138        37  POPC      H8X            -5.5921014837      -28.6344042048        6.2103381658  MEMB      37              0.0000000000
      4139        37  POPC      H8Y            -5.2383254941      -27.0326531167        6.7958091090  MEMB      37              0.0000000000
      4140        37  POPC      C39            -6.1208606691      -27.1040655152        4.7871001104  MEMB      37              0.0000000000
      4141        37  POPC      H9X            -6.8401330622      -26.2573258275        4.7875643801  MEMB      37              0.0000000000
      4142        37  POPC      H9Y            -6.7130079455      -27.8594015971        4.2275027324  MEMB      37              0.0000000000
      4143        37  POPC      C310           -4.7844549477      -27.0132215085        3.9953982974  MEMB      37              0.0000000000
      4144        37  POPC      H10X           -5.0569043570      -26.8771929443        2.9269476737  MEMB      37              0.0000000000
      4145        37  POPC      H10Y           -4.3515762747      -28.0149762550        4.2037845941  MEMB      37              0.0000000000
      4146        37  POPC      C311           -3.9213908044      -25.8535574367        4.2925306197  MEMB      37              0.0000000000
      4147        37  POPC      H11X           -3.3243016459      -25.9868907448        5.2199071416  MEMB      37              0.0000000000
      4148        37  POPC      H11Y           -4.5770481630      -24.9789765250        4.4913846322  MEMB      37              0.0000000000
      4149        37  POPC      C312           -3.0689855514      -25.4148409049        3.1307905988  MEMB      37              0.0000000000
      4150        37  POPC      H12X           -3.5961578806      -25.2445409974        2.1677701598  MEMB      37              0.0000000000
      4151        37  POPC      H12Y           -2.2369478394      -26.1311259939        2.9605851357  MEMB      37              0.0000000000
      4152        37  POPC      C313           -2.1836497127      -24.1425113503        3.4164385956  MEMB      37              0.0000000000
      4153        37  POPC      H13X           -1.4228546417      -24.0430486620        2.6129342990  MEMB      37              0.0000000000
      4154        37  POPC      H13Y           -1.4875459749      -24.3504858464        4.2569782659  MEMB      37              0.0000000000
      4155        37  POPC      C314           -2.9447062398      -22.8147651801        3.6431095487  MEMB      37              0.0000000000
      4156        37  POPC      H14X           -2.2474594096      -22.0745626917        4.0906219185  MEMB      37              0.0000000000
      4157        37  POPC      H14Y           -3.8612795564      -22.9317831539        4.2599734351  MEMB      37              0.0000000000
      4158        37  POPC      C315           -3.4553839449      -22.1879543894        2.3638018321  MEMB      37              0.0000000000
      4159        37  POPC      H15X           -4.2821328085      -21.4713602962        2.5569354957  MEMB      37              0.0000000000
      4160        37  POPC      H15Y           -3.9188130180      -23.0159658982        1.7859169992  MEMB      37              0.0000000000
      4161        37  POPC      C316           -2.4431718308      -21.6378032879        1.4336801412  MEMB      37              0.0000000000
      4162        37  POPC      H16X           -1.5657476411      -21.3137627967        2.0332168288  MEMB      37              0.0000000000
      4163        37  POPC      H16Y           -2.9064470650      -20.7116390264        1.0312913666  MEMB      37              0.0000000000
      4164        37  POPC      H16Z           -2.1950821902      -22.3702282569        0.6359788740  MEMB      37              0.0000000000
      4165        38  OSM       N              27.9080945160        4.1477168821       22.1873834015  MEMB      38              0.0000000000
      4166        38  OSM       C15            28.8998483641        3.0269823052       21.7064740078  MEMB      38              0.0000000000
      4167        38  OSM       H15A           29.3202391226        2.5914808875       22.6009069124  MEMB      38              0.0000000000
      4168        38  OSM       H15B           29.6693032450        3.4223118202       21.0599031627  MEMB      38              0.0000000000
      4169        38  OSM       H15C           28.2151912777        2.4087453973       21.1448443573  MEMB      38              0.0000000000
      4170        38  OSM       C14            26.9525168560        3.5583076704       23.1619579155  MEMB      38              0.0000000000
      4171        38  OSM       H14A           27.5006400206        3.0858434003       23.9636675340  MEMB      38              0.0000000000
      4172        38  OSM       H14B           26.4110412996        2.8119199590       22.5997215919  MEMB      38              0.0000000000
      4173        38  OSM       H14C           26.2935731126        4.3612043724       23.4578463654  MEMB      38              0.0000000000
      4174        38  OSM       C13            28.7815792846        5.1213406797       22.8969379615  MEMB      38              0.0000000000
      4175        38  OSM       H13A           28.4597455035        6.0578545705       23.3279423553  MEMB      38              0.0000000000
      4176        38  OSM       H13B           29.6434747099        5.3667335662       22.2941786636  MEMB      38              0.0000000000
      4177        38  OSM       H13C           29.0435310855        4.6346181416       23.8247755657  MEMB      38              0.0000000000
      4178        38  OSM       C12            27.1644505490        4.8203992516       20.9584150424  MEMB      38              0.0000000000
      4179        38  OSM       H12A           27.7036358929        5.6430966220       20.5124907932  MEMB      38              0.0000000000
      4180        38  OSM       H12B           26.2024750178        5.2123323888       21.2540355441  MEMB      38              0.0000000000
      4181        38  OSM       C11            26.9249169662        3.9025694633       19.7258170147  MEMB      38              0.0000000000
      4182        38  OSM       H11A           27.9365224990        3.5561960441       19.4241537750  MEMB      38              0.0000000000
      4183        38  OSM       H11B           26.5724722978        4.4481651514       18.8244684081  MEMB      38              0.0000000000
      4184        38  OSM       P              24.5334029089        2.8296471317       20.1566377191  MEMB      38              0.0000000000
      4185        38  OSM       O13            23.9785751433        1.5488371422       20.6316789874  MEMB      38              0.0000000000
      4186        38  OSM       O14            24.1197384936        4.0140531854       20.8621173360  MEMB      38              0.0000000000
      4187        38  OSM       O11            24.1615366904        2.9888912371       18.6763899590  MEMB      38              0.0000000000
      4188        38  OSM       O12            26.1462893332        2.7429475360       20.0361906549  MEMB      38              0.0000000000
      4189        38  OSM       C1S            24.3262066840        1.9523250542       17.6808271676  MEMB      38              0.0000000000
      4190        38  OSM       H1S            23.7902157354        1.0318979816       17.9968157550  MEMB      38              0.0000000000
      4191        38  OSM       H1T            25.4235567706        1.7792596635       17.6669641526  MEMB      38              0.0000000000
      4192        38  OSM       NF             24.3808491596        3.7758085397       16.0162204076  MEMB      38              0.0000000000
      4193        38  OSM       HNF            23.7730971514        4.5646080042       15.9668043355  MEMB      38              0.0000000000
      4194        38  OSM       C2S            23.8297914660        2.5047526122       16.3620007805  MEMB      38              0.0000000000
      4195        38  OSM       H2S            24.0756520527        1.8514950743       15.4976352118  MEMB      38              0.0000000000
      4196        38  OSM       C3S            22.3202384877        2.7000916593       16.4147699275  MEMB      38              0.0000000000
      4197        38  OSM       H3S            21.9999277689        3.4341584514       17.1847490942  MEMB      38              0.0000000000
      4198        38  OSM       O3             21.6694993394        1.4736156370       16.6625577843  MEMB      38              0.0000000000
      4199        38  OSM       HO3            22.3855480935        0.8462400506       16.7861454477  MEMB      38              0.0000000000
      4200        38  OSM       C4S            21.8676839978        3.2946754224       15.0173179694  MEMB      38              0.0000000000
      4201        38  OSM       H4S            22.0192410745        4.3817420177       14.9444063874  MEMB      38              0.0000000000
      4202        38  OSM       C5S            21.2688526725        2.6437394814       14.0427331220  MEMB      38              0.0000000000
      4203        38  OSM       H5S            21.0393744193        1.5717145202       14.1327452777  MEMB      38              0.0000000000
      4204        38  OSM       C6S            20.8616386637        3.3739019193       12.8279156291  MEMB      38              0.0000000000
      4205        38  OSM       H6S            20.2798262684        4.2834994527       13.0895402033  MEMB      38              0.0000000000
      4206        38  OSM       H6T            20.2670739340        2.7401783536       12.1356663653  MEMB      38              0.0000000000
      4207        38  OSM       C7S            21.9531949312        3.9778148340       11.9026234968  MEMB      38              0.0000000000
      4208        38  OSM       H7S            22.4653940006        4.8021589002       12.4433913046  MEMB      38              0.0000000000
      4209        38  OSM       H7T            21.5244413691        4.4746180302       11.0061424610  MEMB      38              0.0000000000
      4210        38  OSM       C8S            23.1469207802        3.1536024642       11.4842984934  MEMB      38              0.0000000000
      4211        38  OSM       H8S            23.4603393373        2.5617768599       12.3707700859  MEMB      38              0.0000000000
      4212        38  OSM       H8T            23.9961092425        3.7691840756       11.1178843522  MEMB      38              0.0000000000
      4213        38  OSM       C9S            22.8980532234        2.1555634838       10.3004091659  MEMB      38              0.0000000000
      4214        38  OSM       H9S            21.9136359805        1.6788147531       10.4952296433  MEMB      38              0.0000000000
      4215        38  OSM       H9T            23.6955957062        1.3830491201       10.3387284486  MEMB      38              0.0000000000
      4216        38  OSM       C10S           22.9616171412        2.8909984337        8.9778358312  MEMB      38              0.0000000000
      4217        38  OSM       H10S           22.1213083496        3.6165718414        9.0196147906  MEMB      38              0.0000000000
      4218        38  OSM       H10T           22.6243664736        2.1459093368        8.2258880357  MEMB      38              0.0000000000
      4219        38  OSM       C11S           24.3606524177        3.4577194441        8.5495427198  MEMB      38              0.0000000000
      4220        38  OSM       H11S           25.1320359397        2.9381600123        9.1572815609  MEMB      38              0.0000000000
      4221        38  OSM       H11T           24.3473835893        4.5321883776        8.8317864551  MEMB      38              0.0000000000
      4222        38  OSM       C12S           24.7288220603        3.3835297682        7.0519139173  MEMB      38              0.0000000000
      4223        38  OSM       H12S           25.4294209570        4.1583956187        6.6736751880  MEMB      38              0.0000000000
      4224        38  OSM       H12T           23.8242203290        3.5521978598        6.4293648897  MEMB      38              0.0000000000
      4225        38  OSM       C13S           25.5601845037        2.0830448568        6.5563354022  MEMB      38              0.0000000000
      4226        38  OSM       H13S           24.9116327667        1.1919274873        6.6963748921  MEMB      38              0.0000000000
      4227        38  OSM       H13T           26.3666753498        2.0167093173        7.3175799064  MEMB      38              0.0000000000
      4228        38  OSM       C14S           26.1707906238        2.1527446025        5.1409174712  MEMB      38              0.0000000000
      4229        38  OSM       H14S           27.1100214773        2.7382930860        5.0444857222  MEMB      38              0.0000000000
      4230        38  OSM       H14T           25.5221428092        2.7239401388        4.4428390761  MEMB      38              0.0000000000
      4231        38  OSM       C15S           26.5032233336        0.7245469580        4.5211426728  MEMB      38              0.0000000000
      4232        38  OSM       H15S           25.5793955166        0.2024349206        4.1921109083  MEMB      38              0.0000000000
      4233        38  OSM       H15T           26.9525985826        0.0521700523        5.2829118078  MEMB      38              0.0000000000
      4234        38  OSM       C16S           27.5254331726        0.8395170377        3.3849311736  MEMB      38              0.0000000000
      4235        38  OSM       H16S           27.6434530131       -0.2280905901        3.1010191551  MEMB      38              0.0000000000
      4236        38  OSM       H16T           28.4344220904        1.3015810342        3.8260166624  MEMB      38              0.0000000000
      4237        38  OSM       C17S           27.0564072031        1.6237872625        2.1247435400  MEMB      38              0.0000000000
      4238        38  OSM       H17S           27.9062988291        1.9308109119        1.4784151823  MEMB      38              0.0000000000
      4239        38  OSM       H17T           26.5702739073        2.5895158955        2.3804060741  MEMB      38              0.0000000000
      4240        38  OSM       C18S           26.1519227573        0.7649290988        1.2738222044  MEMB      38              0.0000000000
      4241        38  OSM       H18S           26.6222910942       -0.1886622759        0.9517379414  MEMB      38              0.0000000000
      4242        38  OSM       H18T           25.8792882992        1.3734515773        0.3851764083  MEMB      38              0.0000000000
      4243        38  OSM       H18U           25.1230135599        0.6231675758        1.6682466600  MEMB      38              0.0000000000
      4244        38  OSM       C1F            25.6355562199        4.0763894065       15.7825535641  MEMB      38              0.0000000000
      4245        38  OSM       OF             26.5000890279        3.2352723447       15.6625028745  MEMB      38              0.0000000000
      4246        38  OSM       C2F            25.9213618989        5.5312444257       15.7115595233  MEMB      38              0.0000000000
      4247        38  OSM       H2F            26.0764389596        5.9889384669       16.7119533266  MEMB      38              0.0000000000
      4248        38  OSM       H2G            25.0594184511        6.1118119406       15.3187290017  MEMB      38              0.0000000000
      4249        38  OSM       C3F            27.2282580836        5.8692623174       14.9914135174  MEMB      38              0.0000000000
      4250        38  OSM       H3F            28.1310718880        5.4313918188       15.4684018311  MEMB      38              0.0000000000
      4251        38  OSM       H3G            27.4194095897        6.9563132909       14.8645181903  MEMB      38              0.0000000000
      4252        38  OSM       C4F            27.3261022535        5.3681856396       13.5565159112  MEMB      38              0.0000000000
      4253        38  OSM       H4F            27.4341972884        4.2626721777       13.5783427895  MEMB      38              0.0000000000
      4254        38  OSM       H4G            28.3170012810        5.7782396453       13.2661785537  MEMB      38              0.0000000000
      4255        38  OSM       C5F            26.1386885595        5.7677646965       12.6855984091  MEMB      38              0.0000000000
      4256        38  OSM       H5F            26.0958512623        6.8771337220       12.7278620072  MEMB      38              0.0000000000
      4257        38  OSM       H5G            25.2247054726        5.2824610888       13.0898708478  MEMB      38              0.0000000000
      4258        38  OSM       C6F            26.3698098233        5.4342046451       11.1373471349  MEMB      38              0.0000000000
      4259        38  OSM       H6F            25.5226759918        5.9088934698       10.5975739861  MEMB      38              0.0000000000
      4260        38  OSM       H6G            26.3114053314        4.3304955526       11.0244923887  MEMB      38              0.0000000000
      4261        38  OSM       C7F            27.6626809269        6.0128750933       10.4976218736  MEMB      38              0.0000000000
      4262        38  OSM       H7F            28.4838223375        5.5558526330       11.0902249463  MEMB      38              0.0000000000
      4263        38  OSM       H7G            27.7203138943        7.0934548985       10.7493102764  MEMB      38              0.0000000000
      4264        38  OSM       C8F            27.7696101398        5.8739487912        9.0144987832  MEMB      38              0.0000000000
      4265        38  OSM       H8F            28.5996118371        6.5479804449        8.7126729716  MEMB      38              0.0000000000
      4266        38  OSM       H8G            26.8371906939        6.2279713289        8.5250268608  MEMB      38              0.0000000000
      4267        38  OSM       C9F            27.8465402067        4.4302222878        8.5740396379  MEMB      38              0.0000000000
      4268        38  OSM       H9F            27.3685075106        3.6578256098        9.1944334505  MEMB      38              0.0000000000
      4269        38  OSM       C10F           28.5373099891        3.9383177810        7.4539862514  MEMB      38              0.0000000000
      4270        38  OSM       H10F           28.5673584906        2.8571672739        7.2534601631  MEMB      38              0.0000000000
      4271        38  OSM       C11F           29.2881564404        4.8278169823        6.5458957153  MEMB      38              0.0000000000
      4272        38  OSM       H11F           30.3304012861        4.4457029899        6.5007796766  MEMB      38              0.0000000000
      4273        38  OSM       H11G           29.5855500297        5.7641531980        7.0646949951  MEMB      38              0.0000000000
      4274        38  OSM       C12F           28.7395859225        5.0866777058        5.1533491000  MEMB      38              0.0000000000
      4275        38  OSM       H12F           28.7959815905        4.1110302357        4.6249059919  MEMB      38              0.0000000000
      4276        38  OSM       H12G           29.5597980394        5.7333648930        4.7747090748  MEMB      38              0.0000000000
      4277        38  OSM       C13F           27.3524135077        5.7328601984        5.1688604564  MEMB      38              0.0000000000
      4278        38  OSM       H13F           27.3788432099        6.6822341214        5.7453250479  MEMB      38              0.0000000000
      4279        38  OSM       H13G           26.6337788048        4.9887880254        5.5741278293  MEMB      38              0.0000000000
      4280        38  OSM       C14F           26.8374472275        6.0547553290        3.7321868278  MEMB      38              0.0000000000
      4281        38  OSM       H14F           26.7814820320        5.0564777466        3.2477990468  MEMB      38              0.0000000000
      4282        38  OSM       H14G           27.6423919648        6.6803455227        3.2905741532  MEMB      38              0.0000000000
      4283        38  OSM       C15F           25.4642924864        6.7395629002        3.5252324568  MEMB      38              0.0000000000
      4284        38  OSM       H15F           25.6006337987        7.7855878792        3.8738918371  MEMB      38              0.0000000000
      4285        38  OSM       H15G           24.7543681125        6.2415994451        4.2197541046  MEMB      38              0.0000000000
      4286        38  OSM       C16F           24.8732361469        6.6987816883        2.0657061262  MEMB      38              0.0000000000
      4287        38  OSM       H16F           23.7711994565        6.8316663289        2.1123741711  MEMB      38              0.0000000000
      4288        38  OSM       H16G           25.0211953103        5.6386681617        1.7680685890  MEMB      38              0.0000000000
      4289        38  OSM       C17F           25.4893914612        7.6777766689        1.0725878033  MEMB      38              0.0000000000
      4290        38  OSM       H17F           26.5864496697        7.5233127510        0.9893710642  MEMB      38              0.0000000000
      4291        38  OSM       H17G           25.2708620355        8.6168864435        1.6245290266  MEMB      38              0.0000000000
      4292        38  OSM       C18F           24.7787053444        7.7191852883       -0.2622008547  MEMB      38              0.0000000000
      4293        38  OSM       H18F           25.2007505555        8.4053910356       -1.0272640489  MEMB      38              0.0000000000
      4294        38  OSM       H18G           23.7583653312        8.0409589240        0.0372789406  MEMB      38              0.0000000000
      4295        38  OSM       H18H           24.7092230444        6.7521940730       -0.8048078601  MEMB      38              0.0000000000
      4296        39  SAPI      C12             9.2538998301      -26.3100919795       23.4646106809  MEMB      39              0.0000000000
      4297        39  SAPI      H2              8.5207363815      -26.7359113033       22.7466481107  MEMB      39              0.0000000000
      4298        39  SAPI      O2              8.6733261478      -25.1194373547       24.0502660810  MEMB      39              0.0000000000
      4299        39  SAPI      HO2             8.9431491973      -24.3383327971       23.5617260692  MEMB      39              0.0000000000
      4300        39  SAPI      C13             9.4068349542      -27.2723205727       24.6532879970  MEMB      39              0.0000000000
      4301        39  SAPI      H3              9.7737803379      -28.2596252971       24.2998742310  MEMB      39              0.0000000000
      4302        39  SAPI      O3              8.0743141762      -27.5736839176       25.1662653504  MEMB      39              0.0000000000
      4303        39  SAPI      HO3             7.6870815091      -26.7236711472       25.3879159844  MEMB      39              0.0000000000
      4304        39  SAPI      C14            10.4222338936      -26.7560575368       25.6695753350  MEMB      39              0.0000000000
      4305        39  SAPI      H4             10.1884175421      -25.7708143346       26.1266826131  MEMB      39              0.0000000000
      4306        39  SAPI      O4             10.3432977540      -27.5067542728       26.8610058479  MEMB      39              0.0000000000
      4307        39  SAPI      HO4            10.0921027795      -28.3975419751       26.6060587728  MEMB      39              0.0000000000
      4308        39  SAPI      C15            11.7619404943      -26.5003949130       25.0756294240  MEMB      39              0.0000000000
      4309        39  SAPI      H5             12.0871775444      -27.3744974717       24.4719023151  MEMB      39              0.0000000000
      4310        39  SAPI      O5             12.8827575196      -26.2111662902       25.9432208172  MEMB      39              0.0000000000
      4311        39  SAPI      HO5            12.5667197015      -25.9189190969       26.8013068489  MEMB      39              0.0000000000
      4312        39  SAPI      C16            11.5449794901      -25.4355979804       23.9015044392  MEMB      39              0.0000000000
      4313        39  SAPI      H6             11.1283229383      -24.4574529938       24.2239182192  MEMB      39              0.0000000000
      4314        39  SAPI      O6             12.7511046255      -25.0045178049       23.4511151814  MEMB      39              0.0000000000
      4315        39  SAPI      HO6            12.6601290638      -24.0674840833       23.2632554008  MEMB      39              0.0000000000
      4316        39  SAPI      C11            10.6267050115      -25.9927469426       22.8538195688  MEMB      39              0.0000000000
      4317        39  SAPI      H1             11.0901012433      -26.9223681260       22.4596252649  MEMB      39              0.0000000000
      4318        39  SAPI      P              10.2756637670      -25.5652005014       20.2745914217  MEMB      39              0.0000000000
      4319        39  SAPI      O13             9.0274159071      -26.3989426632       20.1111377213  MEMB      39              0.0000000000
      4320        39  SAPI      O14            11.5045628609      -26.1010277938       19.6545011267  MEMB      39              0.0000000000
      4321        39  SAPI      O12            10.3972613266      -24.9727041597       21.8021751830  MEMB      39              0.0000000000
      4322        39  SAPI      O11             9.9599473657      -24.1776404540       19.6312946278  MEMB      39              0.0000000000
      4323        39  SAPI      C1              8.8034620442      -23.3939063461       19.8163205412  MEMB      39              0.0000000000
      4324        39  SAPI      HA              7.8912606356      -23.8829950156       19.4125855569  MEMB      39              0.0000000000
      4325        39  SAPI      HB              8.4977874821      -23.3752761436       20.8842797605  MEMB      39              0.0000000000
      4326        39  SAPI      C2              8.9417849480      -21.9765949841       19.1314503468  MEMB      39              0.0000000000
      4327        39  SAPI      HS              8.0048356070      -21.4029376707       19.2968725994  MEMB      39              0.0000000000
      4328        39  SAPI      O21             8.9795601105      -22.1980571464       17.7237865230  MEMB      39              0.0000000000
      4329        39  SAPI      C21             7.8927795925      -22.4506887349       16.9799899262  MEMB      39              0.0000000000
      4330        39  SAPI      O22             6.8001219545      -22.5922996746       17.4566683487  MEMB      39              0.0000000000
      4331        39  SAPI      C22             8.2144632817      -22.5129479103       15.4290493387  MEMB      39              0.0000000000
      4332        39  SAPI      H2R             8.3508440925      -21.4858150857       15.0281506493  MEMB      39              0.0000000000
      4333        39  SAPI      H2S             9.1313006722      -23.1128394564       15.2450369469  MEMB      39              0.0000000000
      4334        39  SAPI      C3             10.1949710608      -21.2183951135       19.5785290033  MEMB      39              0.0000000000
      4335        39  SAPI      HX             10.4184502004      -21.3987690404       20.6517686272  MEMB      39              0.0000000000
      4336        39  SAPI      HY              9.9716628910      -20.1315629952       19.5215161153  MEMB      39              0.0000000000
      4337        39  SAPI      O31            11.3166991493      -21.4768934921       18.7304724290  MEMB      39              0.0000000000
      4338        39  SAPI      C31            12.2530247420      -22.2406384509       19.2284984918  MEMB      39              0.0000000000
      4339        39  SAPI      O32            12.4194152446      -22.6379467149       20.3477177496  MEMB      39              0.0000000000
      4340        39  SAPI      C32            13.2599754802      -22.4709259234       18.0417123482  MEMB      39              0.0000000000
      4341        39  SAPI      H2X            14.2813283343      -22.6336895161       18.4475041247  MEMB      39              0.0000000000
      4342        39  SAPI      H2Y            13.3133443284      -21.5689795167       17.3952100532  MEMB      39              0.0000000000
      4343        39  SAPI      C23             6.9784599453      -23.2516117648       14.7919017499  MEMB      39              0.0000000000
      4344        39  SAPI      H3R             6.0603106837      -22.6264567329       14.8143541164  MEMB      39              0.0000000000
      4345        39  SAPI      H3S             6.8920649081      -24.1758527230       15.4023406465  MEMB      39              0.0000000000
      4346        39  SAPI      C24             7.2180323532      -23.7952242810       13.3952290472  MEMB      39              0.0000000000
      4347        39  SAPI      H4R             8.2771924104      -24.1275033613       13.3494959683  MEMB      39              0.0000000000
      4348        39  SAPI      H4S             7.0703531729      -22.8808512375       12.7816867511  MEMB      39              0.0000000000
      4349        39  SAPI      C25             6.2501065443      -24.8813238084       12.9261956678  MEMB      39              0.0000000000
      4350        39  SAPI      H5R             5.3632421521      -25.0553554487       13.5532397916  MEMB      39              0.0000000000
      4351        39  SAPI      C26             6.4136580410      -25.7384080460       11.8691225491  MEMB      39              0.0000000000
      4352        39  SAPI      H6R             5.6174609423      -26.4410391931       11.5821041218  MEMB      39              0.0000000000
      4353        39  SAPI      C27             7.6996546073      -25.7389558832       11.0461707866  MEMB      39              0.0000000000
      4354        39  SAPI      H7R             8.1055126432      -24.7050855594       11.0194810934  MEMB      39              0.0000000000
      4355        39  SAPI      H7S             7.4552292922      -26.0152576261        9.9982035176  MEMB      39              0.0000000000
      4356        39  SAPI      C28             8.7670881890      -26.6403871728       11.5290706994  MEMB      39              0.0000000000
      4357        39  SAPI      H8R             8.6808561156      -26.8099243774       12.6125012730  MEMB      39              0.0000000000
      4358        39  SAPI      C29             9.6784187281      -27.3181065253       10.8146322437  MEMB      39              0.0000000000
      4359        39  SAPI      H9R            10.2430379677      -28.0315376586       11.4328726651  MEMB      39              0.0000000000
      4360        39  SAPI      C210            9.7595146492      -27.3100172546        9.2344440711  MEMB      39              0.0000000000
      4361        39  SAPI      H10R           10.5243287677      -26.5340295215        9.0171340066  MEMB      39              0.0000000000
      4362        39  SAPI      H10S            8.8410770587      -26.9974641624        8.6930528194  MEMB      39              0.0000000000
      4363        39  SAPI      C211           10.2444578340      -28.6124970408        8.7535947803  MEMB      39              0.0000000000
      4364        39  SAPI      H11R            9.6210773445      -29.4507451311        9.0981762039  MEMB      39              0.0000000000
      4365        39  SAPI      C212           11.2071233260      -28.7912085628        7.8086466320  MEMB      39              0.0000000000
      4366        39  SAPI      H12R           11.4588486098      -29.8380484561        7.5833462691  MEMB      39              0.0000000000
      4367        39  SAPI      C213           11.9492234381      -27.7074985715        7.1091233146  MEMB      39              0.0000000000
      4368        39  SAPI      H13R           12.5931871977      -28.3842850718        6.5077988817  MEMB      39              0.0000000000
      4369        39  SAPI      H13S           12.6241057915      -27.1578397171        7.7995799027  MEMB      39              0.0000000000
      4370        39  SAPI      C214           11.2174570537      -26.7128561070        6.2845769683  MEMB      39              0.0000000000
      4371        39  SAPI      H14R           10.1241809216      -26.8244786560        6.2367475992  MEMB      39              0.0000000000
      4372        39  SAPI      C215           11.8293595860      -25.9425778753        5.4142658237  MEMB      39              0.0000000000
      4373        39  SAPI      H15R           11.3212330243      -25.2122371745        4.7674195631  MEMB      39              0.0000000000
      4374        39  SAPI      C216           13.3235511137      -25.8777434530        5.1095981368  MEMB      39              0.0000000000
      4375        39  SAPI      H16R           13.8733517555      -26.2326328964        6.0074251462  MEMB      39              0.0000000000
      4376        39  SAPI      H16S           13.6404872652      -24.8132445898        5.0828689471  MEMB      39              0.0000000000
      4377        39  SAPI      C217           13.6340103719      -26.7610810151        3.8783292481  MEMB      39              0.0000000000
      4378        39  SAPI      H17R           13.5877432500      -27.8340765449        4.1626900285  MEMB      39              0.0000000000
      4379        39  SAPI      H17S           14.7188985828      -26.7031217427        3.6459959208  MEMB      39              0.0000000000
      4380        39  SAPI      C218           13.0391131899      -26.4090892661        2.4887661321  MEMB      39              0.0000000000
      4381        39  SAPI      H18R           13.4253537540      -25.4264609457        2.1429623036  MEMB      39              0.0000000000
      4382        39  SAPI      H18S           11.9374472892      -26.2703278360        2.5261637749  MEMB      39              0.0000000000
      4383        39  SAPI      C219           13.3929944341      -27.3787058923        1.4060341907  MEMB      39              0.0000000000
      4384        39  SAPI      H19R           13.0547924825      -28.4365289873        1.4368673608  MEMB      39              0.0000000000
      4385        39  SAPI      H19S           14.4995309545      -27.4612345972        1.3504716821  MEMB      39              0.0000000000
      4386        39  SAPI      C220           12.8864387947      -26.8668217220       -0.0098720471  MEMB      39              0.0000000000
      4387        39  SAPI      H20R           11.7993406224      -26.6432248128        0.0405540908  MEMB      39              0.0000000000
      4388        39  SAPI      H20S           13.1535345428      -27.6610693070       -0.7393594979  MEMB      39              0.0000000000
      4389        39  SAPI      H20T           13.4482942944      -25.9895705205       -0.3959676113  MEMB      39              0.0000000000
      4390        39  SAPI      C33            12.9263007278      -23.7996030668       17.2997778783  MEMB      39              0.0000000000
      4391        39  SAPI      H3X            12.4466623188      -24.6403970181       17.8450607663  MEMB      39              0.0000000000
      4392        39  SAPI      H3Y            13.8705392642      -24.1679444367       16.8447404417  MEMB      39              0.0000000000
      4393        39  SAPI      C34            12.0414988671      -23.4801973141       16.0186007991  MEMB      39              0.0000000000
      4394        39  SAPI      H4X            11.1769489752      -22.8863943393       16.3850330494  MEMB      39              0.0000000000
      4395        39  SAPI      H4Y            11.5807596416      -24.3935792886       15.5852720177  MEMB      39              0.0000000000
      4396        39  SAPI      C35            12.6069422029      -22.6014421994       14.8553889379  MEMB      39              0.0000000000
      4397        39  SAPI      H5X            13.7082053435      -22.7300261835       14.7846308484  MEMB      39              0.0000000000
      4398        39  SAPI      H5Y            12.4214934174      -21.5451924196       15.1456752227  MEMB      39              0.0000000000
      4399        39  SAPI      C36            11.8126381713      -22.7580905553       13.5687588934  MEMB      39              0.0000000000
      4400        39  SAPI      H6X            12.0432828720      -21.8768298381       12.9327526557  MEMB      39              0.0000000000
      4401        39  SAPI      H6Y            10.7248851236      -22.8612221183       13.7699503236  MEMB      39              0.0000000000
      4402        39  SAPI      C37            12.2453705540      -24.0553070363       12.8137011828  MEMB      39              0.0000000000
      4403        39  SAPI      H7X            12.0863728496      -24.9913837318       13.3905905167  MEMB      39              0.0000000000
      4404        39  SAPI      H7Y            13.3204118795      -23.8296358797       12.6473286218  MEMB      39              0.0000000000
      4405        39  SAPI      C38            11.4813459778      -24.3505885118       11.4943699606  MEMB      39              0.0000000000
      4406        39  SAPI      H8X            10.4490690004      -24.5507753942       11.8530490117  MEMB      39              0.0000000000
      4407        39  SAPI      H8Y            11.8611607137      -25.3021632888       11.0647578674  MEMB      39              0.0000000000
      4408        39  SAPI      C39            11.4565261878      -23.1686094587       10.4883772580  MEMB      39              0.0000000000
      4409        39  SAPI      H9X            12.5074428053      -22.8642621270       10.2953279950  MEMB      39              0.0000000000
      4410        39  SAPI      H9Y            10.8842910449      -22.3101978359       10.9006841158  MEMB      39              0.0000000000
      4411        39  SAPI      C310           10.9008370766      -23.5340219238        9.1352905538  MEMB      39              0.0000000000
      4412        39  SAPI      H10X            9.8123566780      -23.7543962392        9.1042015873  MEMB      39              0.0000000000
      4413        39  SAPI      H10Y           11.5825621136      -24.2783981745        8.6710970249  MEMB      39              0.0000000000
      4414        39  SAPI      C311           11.0663191966      -22.3658896240        8.1528002709  MEMB      39              0.0000000000
      4415        39  SAPI      H11X           12.1705780689      -22.2486708015        8.1873434272  MEMB      39              0.0000000000
      4416        39  SAPI      H11Y           10.5427644646      -21.4722988114        8.5549284693  MEMB      39              0.0000000000
      4417        39  SAPI      C312           10.4816382433      -22.5784716938        6.6918383866  MEMB      39              0.0000000000
      4418        39  SAPI      H12X            9.4381555179      -22.9360727315        6.8244525311  MEMB      39              0.0000000000
      4419        39  SAPI      H12Y           11.0642795707      -23.4093175136        6.2395720372  MEMB      39              0.0000000000
      4420        39  SAPI      C313           10.5714814109      -21.3008666316        5.8754604261  MEMB      39              0.0000000000
      4421        39  SAPI      H13X           11.6073119848      -20.8998752713        5.8995885689  MEMB      39              0.0000000000
      4422        39  SAPI      H13Y            9.8316852121      -20.5187722750        6.1499620814  MEMB      39              0.0000000000
      4423        39  SAPI      C314           10.2591644278      -21.5495021636        4.3761241435  MEMB      39              0.0000000000
      4424        39  SAPI      H14X           10.8087042525      -22.4981119348        4.1959408407  MEMB      39              0.0000000000
      4425        39  SAPI      H14Y           10.8608228870      -20.7746781040        3.8546106464  MEMB      39              0.0000000000
      4426        39  SAPI      C315            8.8038240971      -21.6384599546        3.9132050962  MEMB      39              0.0000000000
      4427        39  SAPI      H15X            8.4180873911      -20.6199588328        3.6936973979  MEMB      39              0.0000000000
      4428        39  SAPI      H15Y            8.1285768092      -22.0794267286        4.6773448294  MEMB      39              0.0000000000
      4429        39  SAPI      C316            8.6806253243      -22.3940362465        2.5422618872  MEMB      39              0.0000000000
      4430        39  SAPI      H16X            9.3299693854      -21.8386771342        1.8321556023  MEMB      39              0.0000000000
      4431        39  SAPI      H16Y            7.6074751242      -22.3105272489        2.2671330149  MEMB      39              0.0000000000
      4432        39  SAPI      C317            9.1544236168      -23.8610900722        2.6230615943  MEMB      39              0.0000000000
      4433        39  SAPI      H17X            8.7232243674      -24.2473207096        3.5713307106  MEMB      39              0.0000000000
      4434        39  SAPI      H17Y           10.2559283256      -23.9086437001        2.7599823094  MEMB      39              0.0000000000
      4435        39  SAPI      C318            8.7066618966      -24.6781058368        1.3674444098  MEMB      39              0.0000000000
      4436        39  SAPI      H18X            7.6130596075      -24.8726866881        1.3896516569  MEMB      39              0.0000000000
      4437        39  SAPI      H18Y            9.1063779784      -25.7124202649        1.4363049967  MEMB      39              0.0000000000
      4438        39  SAPI      H18Z            9.0672735277      -24.1681043690        0.4486525775  MEMB      39              0.0000000000
      4439        40  SOPE      N              11.8290106758       20.8633868001       22.6494139010  MEMB      40              0.0000000000
      4440        40  SOPE      HN1            11.3481349720       20.4542157334       21.8230134625  MEMB      40              0.0000000000
      4441        40  SOPE      HN2            12.3369671917       20.1275345770       23.1805462950  MEMB      40              0.0000000000
      4442        40  SOPE      HN3            11.1654077364       21.3450073201       23.2891581626  MEMB      40              0.0000000000
      4443        40  SOPE      C12            12.8629844526       21.8982474130       22.2037939233  MEMB      40              0.0000000000
      4444        40  SOPE      H12A           13.4614571323       21.3996605464       21.4116052646  MEMB      40              0.0000000000
      4445        40  SOPE      H12B           13.5377895738       22.1195584344       23.0581827587  MEMB      40              0.0000000000
      4446        40  SOPE      C11            12.2783886194       23.2333873960       21.7609574791  MEMB      40              0.0000000000
      4447        40  SOPE      H11A           12.1012692530       23.8491258824       22.6686004368  MEMB      40              0.0000000000
      4448        40  SOPE      H11B           11.2766275066       23.0826475822       21.3048070153  MEMB      40              0.0000000000
      4449        40  SOPE      P              12.9697352156       25.2026032315       20.2897005593  MEMB      40              0.0000000000
      4450        40  SOPE      O13            14.0769169878       25.6024656311       19.3379022546  MEMB      40              0.0000000000
      4451        40  SOPE      O14            12.6533831091       26.1553936558       21.3770861998  MEMB      40              0.0000000000
      4452        40  SOPE      O12            13.2495361931       23.8166129487       20.9554581588  MEMB      40              0.0000000000
      4453        40  SOPE      O11            11.6577029874       24.8598552304       19.4256875269  MEMB      40              0.0000000000
      4454        40  SOPE      C1             11.4453933928       25.6549953832       18.2391691690  MEMB      40              0.0000000000
      4455        40  SOPE      HA             12.0878629989       26.5593991298       18.1791059221  MEMB      40              0.0000000000
      4456        40  SOPE      HB             10.3692287747       25.9191832405       18.1591971370  MEMB      40              0.0000000000
      4457        40  SOPE      C2             11.7132635208       24.7676106926       16.9487137529  MEMB      40              0.0000000000
      4458        40  SOPE      HS             10.9646742961       23.9466770193       16.9504292105  MEMB      40              0.0000000000
      4459        40  SOPE      O21            13.0459386530       24.2848331577       17.0931761171  MEMB      40              0.0000000000
      4460        40  SOPE      C21            13.5833498348       23.1766740661       16.4893398872  MEMB      40              0.0000000000
      4461        40  SOPE      O22            12.8799330166       22.4033151465       15.8218778137  MEMB      40              0.0000000000
      4462        40  SOPE      C22            15.0129977281       23.1006194368       16.6935467622  MEMB      40              0.0000000000
      4463        40  SOPE      H2R            15.4899841686       22.2147603483       16.2223155020  MEMB      40              0.0000000000
      4464        40  SOPE      H2S            15.1590603467       23.0110062404       17.7912515341  MEMB      40              0.0000000000
      4465        40  SOPE      C3             11.5992425720       25.6002307685       15.6797504683  MEMB      40              0.0000000000
      4466        40  SOPE      HX             10.7871642180       26.3448005203       15.8228085908  MEMB      40              0.0000000000
      4467        40  SOPE      HY             11.5824518406       24.9295120146       14.7942136463  MEMB      40              0.0000000000
      4468        40  SOPE      O31            12.8356658843       26.4354965584       15.5608851821  MEMB      40              0.0000000000
      4469        40  SOPE      C31            12.9339580560       27.1337671955       14.5035480236  MEMB      40              0.0000000000
      4470        40  SOPE      O32            12.0856913716       27.2823765257       13.6648178655  MEMB      40              0.0000000000
      4471        40  SOPE      C32            14.2614279472       27.8901297296       14.4363185997  MEMB      40              0.0000000000
      4472        40  SOPE      H2X            15.0012162227       27.1871978864       14.8755463150  MEMB      40              0.0000000000
      4473        40  SOPE      H2Y            14.1320021600       28.8634363669       14.9561688531  MEMB      40              0.0000000000
      4474        40  SOPE      C23            15.6455546149       24.3855532521       16.1412582400  MEMB      40              0.0000000000
      4475        40  SOPE      H3R            16.6978178255       24.4507906086       16.4916966367  MEMB      40              0.0000000000
      4476        40  SOPE      H3S            15.0817349063       25.3086243245       16.3949670727  MEMB      40              0.0000000000
      4477        40  SOPE      C24            15.6720809251       24.4301989963       14.5622022382  MEMB      40              0.0000000000
      4478        40  SOPE      H4R            14.6203790742       24.4948778962       14.2099797811  MEMB      40              0.0000000000
      4479        40  SOPE      H4S            16.2383256042       25.3198419212       14.2125974573  MEMB      40              0.0000000000
      4480        40  SOPE      C25            16.3809463727       23.2826813763       13.7688632724  MEMB      40              0.0000000000
      4481        40  SOPE      H5R            17.2806052952       22.9302875330       14.3172725423  MEMB      40              0.0000000000
      4482        40  SOPE      H5S            15.6952389079       22.4089505038       13.7957044849  MEMB      40              0.0000000000
      4483        40  SOPE      C26            16.6988250182       23.7888053554       12.3400310395  MEMB      40              0.0000000000
      4484        40  SOPE      H6R            16.9518471154       24.8706095708       12.3408912954  MEMB      40              0.0000000000
      4485        40  SOPE      H6S            17.5565732683       23.1916787029       11.9631640175  MEMB      40              0.0000000000
      4486        40  SOPE      C27            15.4590201051       23.6509153598       11.3615574239  MEMB      40              0.0000000000
      4487        40  SOPE      H7R            14.8821457837       22.7347788939       11.6110178688  MEMB      40              0.0000000000
      4488        40  SOPE      H7S            14.9607809278       24.6439303363       11.3614264457  MEMB      40              0.0000000000
      4489        40  SOPE      C28            15.9291706866       23.2681459358        9.9751678343  MEMB      40              0.0000000000
      4490        40  SOPE      H8R            16.5684789155       22.3636663765       10.0619009860  MEMB      40              0.0000000000
      4491        40  SOPE      H8S            15.0445111893       22.8056688195        9.4875063011  MEMB      40              0.0000000000
      4492        40  SOPE      C29            16.5285638289       24.2177828341        9.0710962027  MEMB      40              0.0000000000
      4493        40  SOPE      H91            16.9816148010       25.1153131769        9.5173965955  MEMB      40              0.0000000000
      4494        40  SOPE      C210           16.6131383858       24.1736863281        7.6928256911  MEMB      40              0.0000000000
      4495        40  SOPE      H101           17.3135734933       24.8877546277        7.2351178447  MEMB      40              0.0000000000
      4496        40  SOPE      C211           16.0781806092       23.0084292435        6.9566764764  MEMB      40              0.0000000000
      4497        40  SOPE      H11R           14.9870151558       22.9507485768        6.7557984479  MEMB      40              0.0000000000
      4498        40  SOPE      H11S           16.3246521961       22.1180441071        7.5737560824  MEMB      40              0.0000000000
      4499        40  SOPE      C212           16.7081495436       22.8041016894        5.4886846278  MEMB      40              0.0000000000
      4500        40  SOPE      H12R           16.2183298088       21.9003780167        5.0671622218  MEMB      40              0.0000000000
      4501        40  SOPE      H12S           17.8033079944       22.6392433157        5.5768357787  MEMB      40              0.0000000000
      4502        40  SOPE      C213           16.3859577147       24.0784822277        4.6571175257  MEMB      40              0.0000000000
      4503        40  SOPE      H13R           17.1530086278       24.8403224679        4.9131514683  MEMB      40              0.0000000000
      4504        40  SOPE      H13S           15.3446017425       24.4191831155        4.8410252171  MEMB      40              0.0000000000
      4505        40  SOPE      C214           16.4926840525       23.7648675205        3.1381791244  MEMB      40              0.0000000000
      4506        40  SOPE      H14R           15.9937174554       24.5682835177        2.5551913805  MEMB      40              0.0000000000
      4507        40  SOPE      H14S           15.9659201653       22.8165821902        2.8981882476  MEMB      40              0.0000000000
      4508        40  SOPE      C215           17.9351964926       23.6505062751        2.6214062529  MEMB      40              0.0000000000
      4509        40  SOPE      H15R           17.8264824850       23.4646361886        1.5314732096  MEMB      40              0.0000000000
      4510        40  SOPE      H15S           18.4042529368       22.8044043338        3.1676828330  MEMB      40              0.0000000000
      4511        40  SOPE      C216           18.8811259278       24.8169208263        2.8025361075  MEMB      40              0.0000000000
      4512        40  SOPE      H16R           19.8526636142       24.5496187806        2.3345779092  MEMB      40              0.0000000000
      4513        40  SOPE      H16S           19.1972656784       24.7534629552        3.8657158963  MEMB      40              0.0000000000
      4514        40  SOPE      C217           18.4304411881       26.1939440912        2.4328213403  MEMB      40              0.0000000000
      4515        40  SOPE      H17R           19.1542361109       26.9000921663        2.8930349437  MEMB      40              0.0000000000
      4516        40  SOPE      H17S           17.4327974614       26.4062513130        2.8732233225  MEMB      40              0.0000000000
      4517        40  SOPE      C218           18.3903638560       26.4471300614        0.8779384726  MEMB      40              0.0000000000
      4518        40  SOPE      H18R           17.8876378087       25.5675917228        0.4218685017  MEMB      40              0.0000000000
      4519        40  SOPE      H18S           19.4299034025       26.6654912623        0.5523664622  MEMB      40              0.0000000000
      4520        40  SOPE      H18T           17.7217763066       27.2830545150        0.5803784351  MEMB      40              0.0000000000
      4521        40  SOPE      C33            14.6327235738       28.2034312440       13.0280593366  MEMB      40              0.0000000000
      4522        40  SOPE      H3X            13.9844285865       28.9960350864       12.5969987728  MEMB      40              0.0000000000
      4523        40  SOPE      H3Y            14.5578370016       27.2696044263       12.4308323890  MEMB      40              0.0000000000
      4524        40  SOPE      C34            15.9810305085       28.9049678048       12.9341071606  MEMB      40              0.0000000000
      4525        40  SOPE      H4X            16.7885443973       28.3968581627       13.5033761990  MEMB      40              0.0000000000
      4526        40  SOPE      H4Y            15.8689767859       29.8857177073       13.4439056223  MEMB      40              0.0000000000
      4527        40  SOPE      C35            16.3991970676       29.2649639700       11.5047683627  MEMB      40              0.0000000000
      4528        40  SOPE      H5X            17.4323422245       29.6688343718       11.5665799406  MEMB      40              0.0000000000
      4529        40  SOPE      H5Y            15.7024789442       30.1033961442       11.2904417450  MEMB      40              0.0000000000
      4530        40  SOPE      C36            16.1470717518       28.0225100701       10.5655722714  MEMB      40              0.0000000000
      4531        40  SOPE      H6X            15.0540293177       27.8309374319       10.6192304855  MEMB      40              0.0000000000
      4532        40  SOPE      H6Y            16.7425800769       27.2202416084       11.0514280114  MEMB      40              0.0000000000
      4533        40  SOPE      C37            16.6962383318       28.1504170618        9.1438193572  MEMB      40              0.0000000000
      4534        40  SOPE      H7X            16.5789927714       27.1986283064        8.5828619580  MEMB      40              0.0000000000
      4535        40  SOPE      H7Y            17.7773145098       28.4065089527        9.1402776913  MEMB      40              0.0000000000
      4536        40  SOPE      C38            16.0470038930       29.3435069405        8.3529813261  MEMB      40              0.0000000000
      4537        40  SOPE      H8X            16.5847410528       29.4825449624        7.3907823571  MEMB      40              0.0000000000
      4538        40  SOPE      H8Y            16.3268066633       30.2293790422        8.9622944722  MEMB      40              0.0000000000
      4539        40  SOPE      C39            14.5020012526       29.2817674159        8.2835478453  MEMB      40              0.0000000000
      4540        40  SOPE      H9X            14.0591655417       29.3209982337        9.3017223503  MEMB      40              0.0000000000
      4541        40  SOPE      H9Y            14.1827333377       28.3106132258        7.8485207529  MEMB      40              0.0000000000
      4542        40  SOPE      C310           13.8114852519       30.3850815347        7.4601267429  MEMB      40              0.0000000000
      4543        40  SOPE      H10X           13.9927123566       31.2730511682        8.1027673676  MEMB      40              0.0000000000
      4544        40  SOPE      H10Y           12.7103055542       30.2590583001        7.3836920946  MEMB      40              0.0000000000
      4545        40  SOPE      C311           14.3833894096       30.6320123603        6.0971569479  MEMB      40              0.0000000000
      4546        40  SOPE      H11X           15.4127071061       31.0147183521        6.2655677281  MEMB      40              0.0000000000
      4547        40  SOPE      H11Y           13.7286385237       31.3321515260        5.5355273032  MEMB      40              0.0000000000
      4548        40  SOPE      C312           14.3865548124       29.2865428131        5.2795687290  MEMB      40              0.0000000000
      4549        40  SOPE      H12X           13.3838205047       28.8237334035        5.4006186830  MEMB      40              0.0000000000
      4550        40  SOPE      H12Y           15.1643922695       28.5589383944        5.5956105818  MEMB      40              0.0000000000
      4551        40  SOPE      C313           14.4191386163       29.6269179896        3.8495114252  MEMB      40              0.0000000000
      4552        40  SOPE      H13X           15.4183759613       30.0938036690        3.7158563080  MEMB      40              0.0000000000
      4553        40  SOPE      H13Y           13.5877548695       30.3252017413        3.6138801333  MEMB      40              0.0000000000
      4554        40  SOPE      C314           14.4122150352       28.4187989717        2.8931220321  MEMB      40              0.0000000000
      4555        40  SOPE      H14X           15.2412176003       27.7561928283        3.2217995727  MEMB      40              0.0000000000
      4556        40  SOPE      H14Y           14.5560142518       28.8463793616        1.8778295053  MEMB      40              0.0000000000
      4557        40  SOPE      C315           13.1409726133       27.6460916974        2.8663308421  MEMB      40              0.0000000000
      4558        40  SOPE      H15X           12.3619079783       28.3313081490        2.4690163999  MEMB      40              0.0000000000
      4559        40  SOPE      H15Y           12.7461602420       27.3374964461        3.8579019867  MEMB      40              0.0000000000
      4560        40  SOPE      C316           13.2485845878       26.3527057955        2.0715211972  MEMB      40              0.0000000000
      4561        40  SOPE      H16X           13.8766443025       25.6556663482        2.6664997522  MEMB      40              0.0000000000
      4562        40  SOPE      H16Y           13.7115840902       26.5758811735        1.0865619706  MEMB      40              0.0000000000
      4563        40  SOPE      C317           11.8308702016       25.7302519655        1.9019658354  MEMB      40              0.0000000000
      4564        40  SOPE      H17X           11.2347794027       26.3840116273        1.2299577430  MEMB      40              0.0000000000
      4565        40  SOPE      H17Y           11.3555745568       25.7164495151        2.9060694277  MEMB      40              0.0000000000
      4566        40  SOPE      C318           11.7473769447       24.3235778819        1.3636528728  MEMB      40              0.0000000000
      4567        40  SOPE      H18X           10.6988736149       24.0317799254        1.1404579085  MEMB      40              0.0000000000
      4568        40  SOPE      H18Y           12.1955143625       23.6354770665        2.1119913347  MEMB      40              0.0000000000
      4569        40  SOPE      H18Z           12.3285520747       24.1952031962        0.4255283158  MEMB      40              0.0000000000
      4570        41  SAPE      N             -27.6969903983       -2.6481931610       17.9623600734  MEMB      41              0.0000000000
      4571        41  SAPE      HN1           -28.1032503083       -2.3359018253       17.0573588879  MEMB      41              0.0000000000
      4572        41  SAPE      HN2           -26.8412234446       -2.0987027217       18.1798992051  MEMB      41              0.0000000000
      4573        41  SAPE      HN3           -27.4401526036       -3.6387692925       17.7769066931  MEMB      41              0.0000000000
      4574        41  SAPE      C12           -28.6404808777       -2.6913450507       19.0871838034  MEMB      41              0.0000000000
      4575        41  SAPE      H12A          -29.4656696321       -3.3395089969       18.7221252676  MEMB      41              0.0000000000
      4576        41  SAPE      H12B          -29.0926817792       -1.7045141497       19.3238271584  MEMB      41              0.0000000000
      4577        41  SAPE      C11           -27.8630382152       -3.1606512617       20.3049858664  MEMB      41              0.0000000000
      4578        41  SAPE      H11A          -27.3255702336       -4.1200238053       20.1467034668  MEMB      41              0.0000000000
      4579        41  SAPE      H11B          -28.5101260374       -3.5008718681       21.1415552305  MEMB      41              0.0000000000
      4580        41  SAPE      P             -25.5859647166       -1.7744306133       20.5624090779  MEMB      41              0.0000000000
      4581        41  SAPE      O13           -25.5452476316       -0.4221864032       19.9510570934  MEMB      41              0.0000000000
      4582        41  SAPE      O14           -24.7137024048       -1.9782363281       21.7012132857  MEMB      41              0.0000000000
      4583        41  SAPE      O12           -27.1123671525       -2.1301739716       20.9662622617  MEMB      41              0.0000000000
      4584        41  SAPE      O11           -25.3505718326       -2.8611794372       19.4645285531  MEMB      41              0.0000000000
      4585        41  SAPE      C1            -23.9285351024       -3.0902481828       19.1562005941  MEMB      41              0.0000000000
      4586        41  SAPE      HA            -23.2550251281       -2.7896753777       19.9870804970  MEMB      41              0.0000000000
      4587        41  SAPE      HB            -23.8132974661       -4.1827580509       18.9904794208  MEMB      41              0.0000000000
      4588        41  SAPE      C2            -23.5250010866       -2.1897087064       17.9055255635  MEMB      41              0.0000000000
      4589        41  SAPE      HS            -23.5966266230       -1.1138655133       18.1733914416  MEMB      41              0.0000000000
      4590        41  SAPE      O21           -24.3902545608       -2.5132691341       16.8081724234  MEMB      41              0.0000000000
      4591        41  SAPE      C21           -24.9957388427       -1.5648516584       16.0853215245  MEMB      41              0.0000000000
      4592        41  SAPE      O22           -25.1549803450       -0.4439263675       16.4122361395  MEMB      41              0.0000000000
      4593        41  SAPE      C22           -25.6253062271       -2.3059059450       14.7896693006  MEMB      41              0.0000000000
      4594        41  SAPE      H2R           -24.7087426545       -2.6403981093       14.2583057539  MEMB      41              0.0000000000
      4595        41  SAPE      H2S           -26.3499075294       -3.0087354546       15.2536784126  MEMB      41              0.0000000000
      4596        41  SAPE      C3            -22.0184903639       -2.3977913777       17.4969372444  MEMB      41              0.0000000000
      4597        41  SAPE      HX            -21.9348938734       -3.4338278314       17.1045583613  MEMB      41              0.0000000000
      4598        41  SAPE      HY            -21.3397102195       -2.2606818414       18.3657175563  MEMB      41              0.0000000000
      4599        41  SAPE      O31           -21.5849544599       -1.5447423276       16.4036155109  MEMB      41              0.0000000000
      4600        41  SAPE      C31           -21.5882038688       -0.2817904911       16.4647161946  MEMB      41              0.0000000000
      4601        41  SAPE      O32           -21.8612379091        0.4206577537       17.4502775209  MEMB      41              0.0000000000
      4602        41  SAPE      C32           -21.4300911013        0.2582152368       15.0357297048  MEMB      41              0.0000000000
      4603        41  SAPE      H2X           -20.3542628417        0.4053051135       14.8006146581  MEMB      41              0.0000000000
      4604        41  SAPE      H2Y           -21.8668906370        1.2705141083       14.8986966345  MEMB      41              0.0000000000
      4605        41  SAPE      C23           -26.6055324381       -1.2716896872       14.0354458676  MEMB      41              0.0000000000
      4606        41  SAPE      H3R           -27.2765893932       -0.6919562807       14.7047087131  MEMB      41              0.0000000000
      4607        41  SAPE      H3S           -27.1400831264       -1.8384924145       13.2434157822  MEMB      41              0.0000000000
      4608        41  SAPE      C24           -25.8076790901       -0.2097593408       13.1267603143  MEMB      41              0.0000000000
      4609        41  SAPE      H4R           -25.0596438472       -0.8489384917       12.6108006590  MEMB      41              0.0000000000
      4610        41  SAPE      H4S           -25.2620472021        0.5448373773       13.7327231398  MEMB      41              0.0000000000
      4611        41  SAPE      C25           -26.7106330910        0.5135775144       12.2711020890  MEMB      41              0.0000000000
      4612        41  SAPE      H5R           -27.3009121371        1.1961349538       12.9001378947  MEMB      41              0.0000000000
      4613        41  SAPE      C26           -26.8752536235        0.5103477825       10.9119867977  MEMB      41              0.0000000000
      4614        41  SAPE      H6R           -27.6279579576        1.0837964076       10.3511009982  MEMB      41              0.0000000000
      4615        41  SAPE      C27           -26.0087662690       -0.3107771338        9.9327560176  MEMB      41              0.0000000000
      4616        41  SAPE      H7R           -25.0877089339       -0.5546523751       10.5041566188  MEMB      41              0.0000000000
      4617        41  SAPE      H7S           -25.6995547889        0.3822149569        9.1212930824  MEMB      41              0.0000000000
      4618        41  SAPE      C28           -26.5782984519       -1.6368080118        9.5021591734  MEMB      41              0.0000000000
      4619        41  SAPE      H8R           -26.3758098484       -2.4407010532       10.2251767324  MEMB      41              0.0000000000
      4620        41  SAPE      C29           -27.1372135923       -1.9174920420        8.3591060113  MEMB      41              0.0000000000
      4621        41  SAPE      H9R           -27.5357127677       -2.9217909529        8.1527518141  MEMB      41              0.0000000000
      4622        41  SAPE      C210          -27.4069812125       -0.8386439199        7.3007769441  MEMB      41              0.0000000000
      4623        41  SAPE      H10R          -27.2834252242        0.2042098522        7.6634212251  MEMB      41              0.0000000000
      4624        41  SAPE      H10S          -28.4696577009       -0.9192708826        6.9868676726  MEMB      41              0.0000000000
      4625        41  SAPE      C211          -26.4842110593       -0.8993628448        6.0923623631  MEMB      41              0.0000000000
      4626        41  SAPE      H11R          -25.7653244776       -1.7319337270        6.0976287647  MEMB      41              0.0000000000
      4627        41  SAPE      C212          -26.6264486355       -0.1915023348        4.9945490145  MEMB      41              0.0000000000
      4628        41  SAPE      H12R          -25.8841203771       -0.2581319821        4.1855322012  MEMB      41              0.0000000000
      4629        41  SAPE      C213          -27.7121733841        0.8089919277        4.7573332902  MEMB      41              0.0000000000
      4630        41  SAPE      H13R          -27.2961936889        1.7670378232        4.3786111453  MEMB      41              0.0000000000
      4631        41  SAPE      H13S          -28.1424061188        1.1499300653        5.7232430549  MEMB      41              0.0000000000
      4632        41  SAPE      C214          -28.7968215125        0.2728746114        3.8877059374  MEMB      41              0.0000000000
      4633        41  SAPE      H14R          -29.2880263884       -0.6512572943        4.2263766488  MEMB      41              0.0000000000
      4634        41  SAPE      C215          -29.1910543824        0.7946435475        2.7250217009  MEMB      41              0.0000000000
      4635        41  SAPE      H15R          -30.0323824554        0.3944241080        2.1402214907  MEMB      41              0.0000000000
      4636        41  SAPE      C216          -28.5594274185        1.9780648764        2.0847227436  MEMB      41              0.0000000000
      4637        41  SAPE      H16R          -27.5466368492        2.1617966643        2.5028368087  MEMB      41              0.0000000000
      4638        41  SAPE      H16S          -29.1841794624        2.8813689993        2.2521964908  MEMB      41              0.0000000000
      4639        41  SAPE      C217          -28.3578414075        1.8715363598        0.5379246652  MEMB      41              0.0000000000
      4640        41  SAPE      H17R          -27.7904980181        2.8145103862        0.3854710655  MEMB      41              0.0000000000
      4641        41  SAPE      H17S          -29.3118749628        1.8271853378       -0.0296786823  MEMB      41              0.0000000000
      4642        41  SAPE      C218          -27.3420557444        0.7358001278        0.1308569216  MEMB      41              0.0000000000
      4643        41  SAPE      H18R          -26.5526847702        0.5872449587        0.8984155535  MEMB      41              0.0000000000
      4644        41  SAPE      H18S          -26.9700121439        0.9649057190       -0.8906203352  MEMB      41              0.0000000000
      4645        41  SAPE      C219          -28.0414367731       -0.6746156074       -0.1269869673  MEMB      41              0.0000000000
      4646        41  SAPE      H19R          -27.9490212871       -1.2802239481        0.7998442286  MEMB      41              0.0000000000
      4647        41  SAPE      H19S          -27.5068810082       -1.0992247062       -1.0035035504  MEMB      41              0.0000000000
      4648        41  SAPE      C220          -29.5324251045       -0.7060470328       -0.5542765886  MEMB      41              0.0000000000
      4649        41  SAPE      H20R          -30.1497639201       -0.2279172103        0.2360452661  MEMB      41              0.0000000000
      4650        41  SAPE      H20S          -29.8392759919       -1.7636467984       -0.7014033123  MEMB      41              0.0000000000
      4651        41  SAPE      H20T          -29.6983702089       -0.2645160009       -1.5601758956  MEMB      41              0.0000000000
      4652        41  SAPE      C33           -22.0397350859       -0.5166849264       13.8433156283  MEMB      41              0.0000000000
      4653        41  SAPE      H3X           -23.0503075979       -0.0951678420       13.6551998205  MEMB      41              0.0000000000
      4654        41  SAPE      H3Y           -22.2356284100       -1.5821585146       14.0897157003  MEMB      41              0.0000000000
      4655        41  SAPE      C34           -21.3095256962       -0.3596992995       12.4712819151  MEMB      41              0.0000000000
      4656        41  SAPE      H4X           -20.2573289247       -0.6958921926       12.5903529902  MEMB      41              0.0000000000
      4657        41  SAPE      H4Y           -21.3526256337        0.7084876569       12.1688918993  MEMB      41              0.0000000000
      4658        41  SAPE      C35           -21.9078005788       -1.1108023878       11.2254753182  MEMB      41              0.0000000000
      4659        41  SAPE      H5X           -22.9288477200       -0.7211040959       11.0256770633  MEMB      41              0.0000000000
      4660        41  SAPE      H5Y           -21.9787038372       -2.1965907852       11.4498791020  MEMB      41              0.0000000000
      4661        41  SAPE      C36           -21.0076979987       -0.8438383708        9.9968268726  MEMB      41              0.0000000000
      4662        41  SAPE      H6X           -20.1174553733       -1.5052250918       10.0628312960  MEMB      41              0.0000000000
      4663        41  SAPE      H6Y           -20.8152915855        0.2440885406        9.8797134745  MEMB      41              0.0000000000
      4664        41  SAPE      C37           -21.7198357179       -1.1671442084        8.6236296375  MEMB      41              0.0000000000
      4665        41  SAPE      H7X           -22.5895460611       -0.4758976507        8.6337675225  MEMB      41              0.0000000000
      4666        41  SAPE      H7Y           -22.1703988802       -2.1782849889        8.5292465564  MEMB      41              0.0000000000
      4667        41  SAPE      C38           -20.7536923357       -0.7302274500        7.4729464493  MEMB      41              0.0000000000
      4668        41  SAPE      H8X           -20.0720850137       -1.6002893602        7.3601414996  MEMB      41              0.0000000000
      4669        41  SAPE      H8Y           -20.2381986493        0.2190111297        7.7328183336  MEMB      41              0.0000000000
      4670        41  SAPE      C39           -21.4589504271       -0.4670250626        6.1165602923  MEMB      41              0.0000000000
      4671        41  SAPE      H9X           -20.6124542070        0.0109329938        5.5786746107  MEMB      41              0.0000000000
      4672        41  SAPE      H9Y           -22.2334631874        0.3069095713        6.3049106492  MEMB      41              0.0000000000
      4673        41  SAPE      C310          -21.9153878258       -1.7382312358        5.4204788851  MEMB      41              0.0000000000
      4674        41  SAPE      H10X          -22.5251824364       -2.3143266682        6.1488911129  MEMB      41              0.0000000000
      4675        41  SAPE      H10Y          -20.9870772827       -2.3370298847        5.3021537407  MEMB      41              0.0000000000
      4676        41  SAPE      C311          -22.5950491341       -1.5608714277        4.0390312602  MEMB      41              0.0000000000
      4677        41  SAPE      H11X          -21.9270722112       -1.3141788295        3.1862307512  MEMB      41              0.0000000000
      4678        41  SAPE      H11Y          -23.2293744699       -0.6769443674        4.2640323611  MEMB      41              0.0000000000
      4679        41  SAPE      C312          -23.4489156491       -2.7833845625        3.6265906788  MEMB      41              0.0000000000
      4680        41  SAPE      H12X          -24.0270483214       -3.2288142310        4.4642521666  MEMB      41              0.0000000000
      4681        41  SAPE      H12Y          -22.6637817957       -3.5416962743        3.4195896686  MEMB      41              0.0000000000
      4682        41  SAPE      C313          -24.3296212846       -2.4941033558        2.4299234754  MEMB      41              0.0000000000
      4683        41  SAPE      H13X          -23.6936454012       -1.9398314977        1.7069878169  MEMB      41              0.0000000000
      4684        41  SAPE      H13Y          -25.1972213618       -1.8434314712        2.6712078307  MEMB      41              0.0000000000
      4685        41  SAPE      C314          -24.7821168629       -3.7473317076        1.7324241352  MEMB      41              0.0000000000
      4686        41  SAPE      H14X          -25.6233763977       -3.4645188516        1.0641281557  MEMB      41              0.0000000000
      4687        41  SAPE      H14Y          -25.1893919929       -4.4481949833        2.4921862037  MEMB      41              0.0000000000
      4688        41  SAPE      C315          -23.6364239998       -4.3831363804        0.9537032506  MEMB      41              0.0000000000
      4689        41  SAPE      H15X          -22.9326434314       -4.9032458793        1.6381734635  MEMB      41              0.0000000000
      4690        41  SAPE      H15Y          -23.2122512039       -3.6525588587        0.2321374300  MEMB      41              0.0000000000
      4691        41  SAPE      C316          -24.1676248125       -5.4822701443        0.1478989860  MEMB      41              0.0000000000
      4692        41  SAPE      H16X          -24.7567851843       -5.0537405107       -0.6908952415  MEMB      41              0.0000000000
      4693        41  SAPE      H16Y          -24.8441406890       -6.2384075797        0.6005607114  MEMB      41              0.0000000000
      4694        41  SAPE      C317          -23.0439608450       -6.2116957962       -0.6683634044  MEMB      41              0.0000000000
      4695        41  SAPE      H17X          -23.5246564827       -7.1353960261       -1.0557015061  MEMB      41              0.0000000000
      4696        41  SAPE      H17Y          -22.1746287996       -6.4483063319       -0.0182878663  MEMB      41              0.0000000000
      4697        41  SAPE      C318          -22.2987782638       -5.4121516285       -1.7365904504  MEMB      41              0.0000000000
      4698        41  SAPE      H18X          -21.7998357024       -6.1365490963       -2.4152845130  MEMB      41              0.0000000000
      4699        41  SAPE      H18Y          -21.5640652454       -4.6136417996       -1.4980534132  MEMB      41              0.0000000000
      4700        41  SAPE      H18Z          -23.0271735508       -4.7864895245       -2.2954350431  MEMB      41              0.0000000000
      4701        42  OSM       N             -14.1269067626      -25.4378996105       20.4274887148  MEMB      42              0.0000000000
      4702        42  OSM       C15           -14.4753080253      -26.8853037639       20.6431148338  MEMB      42              0.0000000000
      4703        42  OSM       H15A          -15.3143057047      -27.1279333908       20.0078088254  MEMB      42              0.0000000000
      4704        42  OSM       H15B          -14.6455501301      -27.0254747182       21.7003611739  MEMB      42              0.0000000000
      4705        42  OSM       H15C          -13.6738505085      -27.4755631766       20.2239970424  MEMB      42              0.0000000000
      4706        42  OSM       C14           -13.8253415585      -25.0860607085       18.9834617219  MEMB      42              0.0000000000
      4707        42  OSM       H14A          -13.9803366797      -24.0324165882       18.8039885489  MEMB      42              0.0000000000
      4708        42  OSM       H14B          -14.5760181302      -25.6131401137       18.4133108376  MEMB      42              0.0000000000
      4709        42  OSM       H14C          -12.8371407457      -25.3561991204       18.6415783391  MEMB      42              0.0000000000
      4710        42  OSM       C13           -15.3598037970      -24.7097789456       20.8920645540  MEMB      42              0.0000000000
      4711        42  OSM       H13A          -15.4614473492      -24.8469791023       21.9584812729  MEMB      42              0.0000000000
      4712        42  OSM       H13B          -16.1905242099      -25.2415099251       20.4521038660  MEMB      42              0.0000000000
      4713        42  OSM       H13C          -15.3010252882      -23.6780389345       20.5782846334  MEMB      42              0.0000000000
      4714        42  OSM       C12           -12.9123915221      -25.1707547557       21.2921457392  MEMB      42              0.0000000000
      4715        42  OSM       H12A          -12.0667432231      -25.8307322742       21.1668117613  MEMB      42              0.0000000000
      4716        42  OSM       H12B          -13.2633533996      -25.5127822634       22.2545609059  MEMB      42              0.0000000000
      4717        42  OSM       C11           -12.3851917505      -23.6779223196       21.3542507587  MEMB      42              0.0000000000
      4718        42  OSM       H11A          -12.0204967741      -23.3254212287       20.3657865047  MEMB      42              0.0000000000
      4719        42  OSM       H11B          -11.4989296735      -23.7730733529       22.0174299691  MEMB      42              0.0000000000
      4720        42  OSM       P             -13.7846145237      -21.4046006173       21.5604251338  MEMB      42              0.0000000000
      4721        42  OSM       O13           -14.8024703549      -20.8586447478       22.4975045307  MEMB      42              0.0000000000
      4722        42  OSM       O14           -12.6644446321      -20.5422392131       21.1667798654  MEMB      42              0.0000000000
      4723        42  OSM       O11           -14.6137518199      -21.7780433357       20.1667363954  MEMB      42              0.0000000000
      4724        42  OSM       O12           -13.2719101279      -22.8507761251       22.0160277472  MEMB      42              0.0000000000
      4725        42  OSM       C1S           -14.9451002697      -20.5520395376       19.4042258831  MEMB      42              0.0000000000
      4726        42  OSM       H1S           -13.9636154366      -20.0490785370       19.2699166203  MEMB      42              0.0000000000
      4727        42  OSM       H1T           -15.5425589245      -19.8517144550       20.0262455908  MEMB      42              0.0000000000
      4728        42  OSM       NF            -15.5009154170      -19.5736626085       17.2762075800  MEMB      42              0.0000000000
      4729        42  OSM       HNF           -16.1539712783      -18.8248705524       17.3588959994  MEMB      42              0.0000000000
      4730        42  OSM       C2S           -15.6133262861      -20.8450947347       18.0150770737  MEMB      42              0.0000000000
      4731        42  OSM       H2S           -15.0978996136      -21.6456242790       17.4425311983  MEMB      42              0.0000000000
      4732        42  OSM       C3S           -17.0891803267      -21.1840365406       18.2796100096  MEMB      42              0.0000000000
      4733        42  OSM       H3S           -17.4249150875      -20.1964850176       18.6621612159  MEMB      42              0.0000000000
      4734        42  OSM       O3            -17.2570571800      -22.3304825246       19.1205816317  MEMB      42              0.0000000000
      4735        42  OSM       HO3           -16.4992373396      -22.4708534695       19.6929495382  MEMB      42              0.0000000000
      4736        42  OSM       C4S           -17.8068040802      -21.4005663409       16.9729423729  MEMB      42              0.0000000000
      4737        42  OSM       H4S           -18.4568133496      -20.5673690000       16.6675405306  MEMB      42              0.0000000000
      4738        42  OSM       C5S           -17.7041990245      -22.4442301529       16.1790455479  MEMB      42              0.0000000000
      4739        42  OSM       H5S           -16.9691669321      -23.2384170322       16.3765176266  MEMB      42              0.0000000000
      4740        42  OSM       C6S           -18.4379832616      -22.6241321187       14.8669997874  MEMB      42              0.0000000000
      4741        42  OSM       H6S           -19.1760072717      -21.7939857205       14.8446658350  MEMB      42              0.0000000000
      4742        42  OSM       H6T           -19.0213699521      -23.5666613410       14.7920372027  MEMB      42              0.0000000000
      4743        42  OSM       C7S           -17.5586529978      -22.3425496636       13.5651879470  MEMB      42              0.0000000000
      4744        42  OSM       H7S           -17.0142952995      -23.2822571662       13.3307833840  MEMB      42              0.0000000000
      4745        42  OSM       H7T           -16.8226501246      -21.5343296564       13.7636856047  MEMB      42              0.0000000000
      4746        42  OSM       C8S           -18.3872963648      -21.6068975060       12.4118713170  MEMB      42              0.0000000000
      4747        42  OSM       H8S           -18.7447530298      -20.6468179059       12.8417468567  MEMB      42              0.0000000000
      4748        42  OSM       H8T           -19.3427621760      -22.1506968199       12.2515949628  MEMB      42              0.0000000000
      4749        42  OSM       C9S           -17.5109611790      -21.4012332937       11.1978919897  MEMB      42              0.0000000000
      4750        42  OSM       H9S           -16.4312540058      -21.2672324806       11.4228304713  MEMB      42              0.0000000000
      4751        42  OSM       H9T           -17.8988226023      -20.5510724660       10.5969668856  MEMB      42              0.0000000000
      4752        42  OSM       C10S          -17.6252607014      -22.6517294093       10.2308978684  MEMB      42              0.0000000000
      4753        42  OSM       H10S          -18.6766125029      -22.6609668210        9.8718785377  MEMB      42              0.0000000000
      4754        42  OSM       H10T          -17.3783981875      -23.5961311241       10.7614494600  MEMB      42              0.0000000000
      4755        42  OSM       C11S          -16.7712897930      -22.4990803528        9.0194733413  MEMB      42              0.0000000000
      4756        42  OSM       H11S          -15.7358721265      -22.7383007489        9.3435183012  MEMB      42              0.0000000000
      4757        42  OSM       H11T          -16.6859266814      -21.4674054584        8.6161368235  MEMB      42              0.0000000000
      4758        42  OSM       C12S          -16.9318123989      -23.4734578314        7.9356610673  MEMB      42              0.0000000000
      4759        42  OSM       H12S          -17.8452482084      -23.1336244027        7.4023044225  MEMB      42              0.0000000000
      4760        42  OSM       H12T          -17.1333387695      -24.5110732280        8.2778049711  MEMB      42              0.0000000000
      4761        42  OSM       C13S          -15.7361751974      -23.5993434350        6.9352336754  MEMB      42              0.0000000000
      4762        42  OSM       H13S          -15.9882412701      -24.4826375550        6.3102728817  MEMB      42              0.0000000000
      4763        42  OSM       H13T          -14.9094301340      -23.9077893114        7.6102702650  MEMB      42              0.0000000000
      4764        42  OSM       C14S          -15.3368973919      -22.4450321469        6.0331132689  MEMB      42              0.0000000000
      4765        42  OSM       H14S          -14.5992939536      -22.6769495141        5.2353178973  MEMB      42              0.0000000000
      4766        42  OSM       H14T          -14.8637068299      -21.7707380228        6.7785923200  MEMB      42              0.0000000000
      4767        42  OSM       C15S          -16.5408615005      -21.7517562923        5.3759779492  MEMB      42              0.0000000000
      4768        42  OSM       H15S          -16.3120175328      -20.9105297720        4.6872916624  MEMB      42              0.0000000000
      4769        42  OSM       H15T          -17.1729975515      -21.2585708339        6.1450641147  MEMB      42              0.0000000000
      4770        42  OSM       C16S          -17.4258367658      -22.6857400796        4.5797629590  MEMB      42              0.0000000000
      4771        42  OSM       H16S          -18.2207634953      -22.0616195087        4.1183670357  MEMB      42              0.0000000000
      4772        42  OSM       H16T          -17.9255112426      -23.4925801691        5.1573922237  MEMB      42              0.0000000000
      4773        42  OSM       C17S          -16.7861959081      -23.6648455557        3.5452846871  MEMB      42              0.0000000000
      4774        42  OSM       H17S          -17.6582263873      -24.2013271040        3.1139231800  MEMB      42              0.0000000000
      4775        42  OSM       H17T          -16.1708700559      -24.4102603505        4.0930545084  MEMB      42              0.0000000000
      4776        42  OSM       C18S          -15.9620782630      -23.1473105546        2.3940832850  MEMB      42              0.0000000000
      4777        42  OSM       H18S          -14.9830034720      -22.7829379419        2.7721918669  MEMB      42              0.0000000000
      4778        42  OSM       H18T          -16.6158588569      -22.4502018454        1.8275757625  MEMB      42              0.0000000000
      4779        42  OSM       H18U          -15.7545646398      -24.0203243857        1.7390217483  MEMB      42              0.0000000000
      4780        42  OSM       C1F           -14.4376551011      -19.2723181268       16.5367363248  MEMB      42              0.0000000000
      4781        42  OSM       OF            -13.3782476292      -19.8242791307       16.5778206405  MEMB      42              0.0000000000
      4782        42  OSM       C2F           -14.6306943205      -18.0847607876       15.6967787423  MEMB      42              0.0000000000
      4783        42  OSM       H2F           -13.8333709412      -17.3268547732       15.8522611343  MEMB      42              0.0000000000
      4784        42  OSM       H2G           -15.5915238594      -17.5879774476       15.9504211393  MEMB      42              0.0000000000
      4785        42  OSM       C3F           -14.6779205891      -18.5477986283       14.1993704431  MEMB      42              0.0000000000
      4786        42  OSM       H3F           -15.4396228738      -19.3388862942       14.0311121935  MEMB      42              0.0000000000
      4787        42  OSM       H3G           -13.7275240999      -19.0443972526       13.9087552674  MEMB      42              0.0000000000
      4788        42  OSM       C4F           -15.0851146404      -17.4183401459       13.2458648841  MEMB      42              0.0000000000
      4789        42  OSM       H4F           -14.3228497830      -16.6111711211       13.2040187454  MEMB      42              0.0000000000
      4790        42  OSM       H4G           -15.9883320033      -17.0263301986       13.7604987978  MEMB      42              0.0000000000
      4791        42  OSM       C5F           -15.4294420334      -17.5978343223       11.7683928452  MEMB      42              0.0000000000
      4792        42  OSM       H5F           -15.7330516272      -16.6312160316       11.3125525936  MEMB      42              0.0000000000
      4793        42  OSM       H5G           -16.2937154580      -18.2569620217       11.5383860757  MEMB      42              0.0000000000
      4794        42  OSM       C6F           -14.2569412638      -18.2122340287       10.9540791596  MEMB      42              0.0000000000
      4795        42  OSM       H6F           -13.9934884277      -19.2184674493       11.3444731169  MEMB      42              0.0000000000
      4796        42  OSM       H6G           -13.4730335596      -17.4793556770       11.2416538080  MEMB      42              0.0000000000
      4797        42  OSM       C7F           -14.5744981657      -18.5809327665        9.4936042041  MEMB      42              0.0000000000
      4798        42  OSM       H7F           -14.6228764647      -17.6677057742        8.8627338871  MEMB      42              0.0000000000
      4799        42  OSM       H7G           -15.5742951119      -19.0629141071        9.4443994688  MEMB      42              0.0000000000
      4800        42  OSM       C8F           -13.5341622132      -19.4429688011        8.7046473943  MEMB      42              0.0000000000
      4801        42  OSM       H8F           -12.5265822928      -19.0693795377        8.9866671176  MEMB      42              0.0000000000
      4802        42  OSM       H8G           -13.6061238560      -19.2709582477        7.6094055908  MEMB      42              0.0000000000
      4803        42  OSM       C9F           -13.5123570618      -20.9048081187        8.9557694535  MEMB      42              0.0000000000
      4804        42  OSM       H9F           -14.4839367463      -21.3773113430        8.7489517772  MEMB      42              0.0000000000
      4805        42  OSM       C10F          -12.4619829164      -21.7117320896        9.2898433404  MEMB      42              0.0000000000
      4806        42  OSM       H10F          -12.6443603062      -22.7950695246        9.3456883477  MEMB      42              0.0000000000
      4807        42  OSM       C11F          -11.0537983294      -21.2633112608        9.5060616267  MEMB      42              0.0000000000
      4808        42  OSM       H11F          -10.5323292249      -22.1344765486        9.9571300933  MEMB      42              0.0000000000
      4809        42  OSM       H11G          -10.9250339619      -20.3706325053       10.1548034589  MEMB      42              0.0000000000
      4810        42  OSM       C12F          -10.3409321851      -20.7538421608        8.1972066575  MEMB      42              0.0000000000
      4811        42  OSM       H12F           -9.3091206060      -20.4136501063        8.4294885276  MEMB      42              0.0000000000
      4812        42  OSM       H12G          -10.8398177984      -19.8389265936        7.8120269671  MEMB      42              0.0000000000
      4813        42  OSM       C13F           -9.9306555321      -21.8703127330        7.1032411197  MEMB      42              0.0000000000
      4814        42  OSM       H13F          -10.8803930130      -22.4215681954        6.9346080427  MEMB      42              0.0000000000
      4815        42  OSM       H13G           -9.2419696706      -22.5903509523        7.5947464817  MEMB      42              0.0000000000
      4816        42  OSM       C14F           -9.2646169766      -21.2952010255        5.8516312509  MEMB      42              0.0000000000
      4817        42  OSM       H14F           -9.0235668793      -22.1970000004        5.2491584339  MEMB      42              0.0000000000
      4818        42  OSM       H14G           -8.2601681559      -20.8506072596        6.0181850000  MEMB      42              0.0000000000
      4819        42  OSM       C15F          -10.3413669982      -20.4741500823        5.1126699265  MEMB      42              0.0000000000
      4820        42  OSM       H15F           -9.8105130736      -20.1384520856        4.1962526188  MEMB      42              0.0000000000
      4821        42  OSM       H15G          -10.6352501158      -19.6101656589        5.7462979884  MEMB      42              0.0000000000
      4822        42  OSM       C16F          -11.5804373105      -21.2779388972        4.7216935935  MEMB      42              0.0000000000
      4823        42  OSM       H16F          -12.1757180828      -21.6136587185        5.5976243551  MEMB      42              0.0000000000
      4824        42  OSM       H16G          -11.2199852263      -22.2116742989        4.2394772308  MEMB      42              0.0000000000
      4825        42  OSM       C17F          -12.4889413581      -20.5419271976        3.6397231041  MEMB      42              0.0000000000
      4826        42  OSM       H17F          -12.1577091457      -19.4823283863        3.5966375065  MEMB      42              0.0000000000
      4827        42  OSM       H17G          -13.5420267821      -20.4630516716        3.9848473796  MEMB      42              0.0000000000
      4828        42  OSM       C18F          -12.4278787446      -21.0178565791        2.1466404409  MEMB      42              0.0000000000
      4829        42  OSM       H18F          -11.4017790753      -20.8537499808        1.7535646604  MEMB      42              0.0000000000
      4830        42  OSM       H18G          -13.0894300777      -20.4987041412        1.4205896725  MEMB      42              0.0000000000
      4831        42  OSM       H18H          -12.6284545116      -22.1071537591        2.0599107305  MEMB      42              0.0000000000
      4832        43  SAPE      N              -0.4947769573       24.1299228034       20.1934889034  MEMB      43              0.0000000000
      4833        43  SAPE      HN1             0.5173018437       24.3429034353       20.3027405878  MEMB      43              0.0000000000
      4834        43  SAPE      HN2            -0.8336975153       23.9926711473       21.1670878665  MEMB      43              0.0000000000
      4835        43  SAPE      HN3            -0.8149875898       23.2556677714       19.7300852099  MEMB      43              0.0000000000
      4836        43  SAPE      C12            -1.1643792948       25.3007297513       19.5736162278  MEMB      43              0.0000000000
      4837        43  SAPE      H12A           -2.1710794216       25.0674749739       19.1656112644  MEMB      43              0.0000000000
      4838        43  SAPE      H12B           -0.6314603275       25.5578099944       18.6332821622  MEMB      43              0.0000000000
      4839        43  SAPE      C11            -1.1675196355       26.6049042166       20.3909332774  MEMB      43              0.0000000000
      4840        43  SAPE      H11A           -0.0967589586       26.8334848071       20.5794638046  MEMB      43              0.0000000000
      4841        43  SAPE      H11B           -1.7291415083       26.3122908973       21.3037746656  MEMB      43              0.0000000000
      4842        43  SAPE      P              -2.9943234953       28.3228219601       20.0879775044  MEMB      43              0.0000000000
      4843        43  SAPE      O13            -3.9894811194       27.2246290933       19.9840912936  MEMB      43              0.0000000000
      4844        43  SAPE      O14            -2.9120027323       29.0327945439       21.3764863315  MEMB      43              0.0000000000
      4845        43  SAPE      O12            -1.5831731500       27.7542263652       19.5449095084  MEMB      43              0.0000000000
      4846        43  SAPE      O11            -3.2733372343       29.3891768932       18.8484969822  MEMB      43              0.0000000000
      4847        43  SAPE      C1             -2.4324599118       30.4456152220       18.6481944176  MEMB      43              0.0000000000
      4848        43  SAPE      HA             -2.8298305203       31.4039161767       19.0457835807  MEMB      43              0.0000000000
      4849        43  SAPE      HB             -1.4839799162       30.3582318208       19.2200955254  MEMB      43              0.0000000000
      4850        43  SAPE      C2             -2.1129070302       30.4829373493       17.1130162790  MEMB      43              0.0000000000
      4851        43  SAPE      HS             -1.5126227609       31.3998633812       16.9307348160  MEMB      43              0.0000000000
      4852        43  SAPE      O21            -3.3207166464       30.3874001084       16.2940457462  MEMB      43              0.0000000000
      4853        43  SAPE      C21            -3.4629793618       31.2724000767       15.3052787581  MEMB      43              0.0000000000
      4854        43  SAPE      O22            -2.8696071947       32.2356285033       15.0364633912  MEMB      43              0.0000000000
      4855        43  SAPE      C22            -4.7532902914       30.7923842323       14.5577723326  MEMB      43              0.0000000000
      4856        43  SAPE      H2R            -4.7955970526       29.6862899528       14.6530957475  MEMB      43              0.0000000000
      4857        43  SAPE      H2S            -5.6369838277       31.2345670117       15.0655917768  MEMB      43              0.0000000000
      4858        43  SAPE      C3             -1.1908140378       29.2870647455       16.7385156779  MEMB      43              0.0000000000
      4859        43  SAPE      HX             -1.8762682507       28.4163399825       16.8179635792  MEMB      43              0.0000000000
      4860        43  SAPE      HY             -0.3767246102       29.0196871041       17.4456850749  MEMB      43              0.0000000000
      4861        43  SAPE      O31            -0.7085254652       29.3764296790       15.3807957601  MEMB      43              0.0000000000
      4862        43  SAPE      C31             0.4943870199       29.7903043901       15.2459553922  MEMB      43              0.0000000000
      4863        43  SAPE      O32             1.2288846791       30.2008098705       16.1489511768  MEMB      43              0.0000000000
      4864        43  SAPE      C32             0.7170365311       29.8113974751       13.7457332109  MEMB      43              0.0000000000
      4865        43  SAPE      H2X             0.2324192156       30.7230448220       13.3354091556  MEMB      43              0.0000000000
      4866        43  SAPE      H2Y             0.4323872010       28.8244268328       13.3224309737  MEMB      43              0.0000000000
      4867        43  SAPE      C23            -4.5040063137       31.1404393700       13.0748593893  MEMB      43              0.0000000000
      4868        43  SAPE      H3R            -3.7262709629       30.4388893659       12.7043512158  MEMB      43              0.0000000000
      4869        43  SAPE      H3S            -4.1672122996       32.1911576074       12.9449279901  MEMB      43              0.0000000000
      4870        43  SAPE      C24            -5.8570054340       31.0344888612       12.2876777444  MEMB      43              0.0000000000
      4871        43  SAPE      H4R            -6.4949546796       31.8779293060       12.6281920864  MEMB      43              0.0000000000
      4872        43  SAPE      H4S            -6.0978908651       29.9681706715       12.4858216358  MEMB      43              0.0000000000
      4873        43  SAPE      C25            -5.7965998985       31.1558896629       10.7918907056  MEMB      43              0.0000000000
      4874        43  SAPE      H5R            -6.4254227550       30.4791863930       10.1946851021  MEMB      43              0.0000000000
      4875        43  SAPE      C26            -4.9374279088       31.8093185662       10.0509439512  MEMB      43              0.0000000000
      4876        43  SAPE      H6R            -5.0353384766       31.7075437934        8.9600470649  MEMB      43              0.0000000000
      4877        43  SAPE      C27            -3.7344805001       32.7083490119       10.3662260435  MEMB      43              0.0000000000
      4878        43  SAPE      H7R            -3.9267600159       33.2473160524       11.3185204449  MEMB      43              0.0000000000
      4879        43  SAPE      H7S            -3.5413144512       33.5355023163        9.6501079225  MEMB      43              0.0000000000
      4880        43  SAPE      C28            -2.4598242813       31.8651409605       10.4855282144  MEMB      43              0.0000000000
      4881        43  SAPE      H8R            -2.5181843258       31.0204756797       11.1877626634  MEMB      43              0.0000000000
      4882        43  SAPE      C29            -1.2850928555       32.1045935817        9.8397802164  MEMB      43              0.0000000000
      4883        43  SAPE      H9R            -0.4118218661       31.4905225804       10.1049494808  MEMB      43              0.0000000000
      4884        43  SAPE      C210           -0.8017464405       33.1835214945        8.8536050149  MEMB      43              0.0000000000
      4885        43  SAPE      H10R           -0.3740787790       33.9920961850        9.4841828151  MEMB      43              0.0000000000
      4886        43  SAPE      H10S           -1.6898450155       33.7272312864        8.4663306070  MEMB      43              0.0000000000
      4887        43  SAPE      C211            0.2092479221       32.9629320642        7.7332062021  MEMB      43              0.0000000000
      4888        43  SAPE      H11R            1.2113062635       33.1199067992        8.1589269116  MEMB      43              0.0000000000
      4889        43  SAPE      C212            0.0183527752       32.5226204798        6.5144583068  MEMB      43              0.0000000000
      4890        43  SAPE      H12R            0.9042225503       32.3774497641        5.8787231758  MEMB      43              0.0000000000
      4891        43  SAPE      C213           -1.3158442767       32.1258631122        5.8957059248  MEMB      43              0.0000000000
      4892        43  SAPE      H13R           -2.0898803452       32.9026387445        6.0740559975  MEMB      43              0.0000000000
      4893        43  SAPE      H13S           -1.7411720311       31.2471345353        6.4260385606  MEMB      43              0.0000000000
      4894        43  SAPE      C214           -1.3157272528       31.9179408394        4.4025006636  MEMB      43              0.0000000000
      4895        43  SAPE      H14R           -0.2861806639       31.9433028635        4.0159897821  MEMB      43              0.0000000000
      4896        43  SAPE      C215           -2.3298091651       31.9649074551        3.5779464115  MEMB      43              0.0000000000
      4897        43  SAPE      H15R           -2.0372507966       31.8158710831        2.5280902419  MEMB      43              0.0000000000
      4898        43  SAPE      C216           -3.7322864024       32.2196853077        3.9636877091  MEMB      43              0.0000000000
      4899        43  SAPE      H16R           -3.9492547248       33.2768885635        3.6999311271  MEMB      43              0.0000000000
      4900        43  SAPE      H16S           -3.8434435627       32.3696436844        5.0588941202  MEMB      43              0.0000000000
      4901        43  SAPE      C217           -4.6226964035       31.2240912889        3.3009435021  MEMB      43              0.0000000000
      4902        43  SAPE      H17R           -5.5821025844       31.4243015579        3.8241810324  MEMB      43              0.0000000000
      4903        43  SAPE      H17S           -4.3342736895       30.1834950131        3.5622726724  MEMB      43              0.0000000000
      4904        43  SAPE      C218           -4.6333601319       31.1856645343        1.7436369543  MEMB      43              0.0000000000
      4905        43  SAPE      H18R           -3.6123179135       31.1517545216        1.3070085170  MEMB      43              0.0000000000
      4906        43  SAPE      H18S           -5.0343906590       32.1670580251        1.4114278503  MEMB      43              0.0000000000
      4907        43  SAPE      C219           -5.3931715031       30.0076700266        1.1107713892  MEMB      43              0.0000000000
      4908        43  SAPE      H19R           -4.8595634416       29.0644358077        1.3554993369  MEMB      43              0.0000000000
      4909        43  SAPE      H19S           -5.4913399470       30.1563953510        0.0141557555  MEMB      43              0.0000000000
      4910        43  SAPE      C220           -6.7392463351       29.7112858206        1.8602475645  MEMB      43              0.0000000000
      4911        43  SAPE      H20R           -6.6935750851       29.4824662941        2.9464700250  MEMB      43              0.0000000000
      4912        43  SAPE      H20S           -7.2335945723       28.8712393303        1.3270853708  MEMB      43              0.0000000000
      4913        43  SAPE      H20T           -7.5154326044       30.4954541335        1.7301107165  MEMB      43              0.0000000000
      4914        43  SAPE      C33             2.2424110117       30.0268873041       13.4170012077  MEMB      43              0.0000000000
      4915        43  SAPE      H3X             2.8263592684       29.2888280263       14.0074194973  MEMB      43              0.0000000000
      4916        43  SAPE      H3Y             2.5089451727       31.0664068745       13.7045417003  MEMB      43              0.0000000000
      4917        43  SAPE      C34             2.6255519988       29.7539782776       11.8938298771  MEMB      43              0.0000000000
      4918        43  SAPE      H4X             3.7122481890       29.7726595701       11.6634748381  MEMB      43              0.0000000000
      4919        43  SAPE      H4Y             2.2127871732       30.5405200811       11.2265227442  MEMB      43              0.0000000000
      4920        43  SAPE      C35             2.2284686639       28.3550020900       11.4029034124  MEMB      43              0.0000000000
      4921        43  SAPE      H5X             1.1184974811       28.3476140562       11.3556801397  MEMB      43              0.0000000000
      4922        43  SAPE      H5Y             2.6239516783       27.7383286366       12.2381442569  MEMB      43              0.0000000000
      4923        43  SAPE      C36             2.6393238273       27.9943934885        9.9699837390  MEMB      43              0.0000000000
      4924        43  SAPE      H6X             2.1188326104       27.0455892421        9.7186261049  MEMB      43              0.0000000000
      4925        43  SAPE      H6Y             3.7457338643       27.9602131456        9.8750678538  MEMB      43              0.0000000000
      4926        43  SAPE      C37             2.2137779906       28.9870578487        8.9478116273  MEMB      43              0.0000000000
      4927        43  SAPE      H7X             2.6814596021       28.6758869230        7.9892879715  MEMB      43              0.0000000000
      4928        43  SAPE      H7Y             2.3875648408       30.0462685112        9.2345029096  MEMB      43              0.0000000000
      4929        43  SAPE      C38             0.7021943748       28.9883647785        8.5116403488  MEMB      43              0.0000000000
      4930        43  SAPE      H8X             0.4898540927       29.5574062514        7.5813576387  MEMB      43              0.0000000000
      4931        43  SAPE      H8Y             0.2134015053       29.5097170819        9.3622832881  MEMB      43              0.0000000000
      4932        43  SAPE      C39             0.0796803769       27.6058363833        8.3860468572  MEMB      43              0.0000000000
      4933        43  SAPE      H9X            -0.4064963416       27.3213824059        9.3436684848  MEMB      43              0.0000000000
      4934        43  SAPE      H9Y             0.8432189535       26.8352953988        8.1460540555  MEMB      43              0.0000000000
      4935        43  SAPE      C310           -0.8939091837       27.5360994328        7.1523399791  MEMB      43              0.0000000000
      4936        43  SAPE      H10X           -0.3693728115       28.0914078185        6.3456087049  MEMB      43              0.0000000000
      4937        43  SAPE      H10Y           -1.7329601912       28.1895195207        7.4738314677  MEMB      43              0.0000000000
      4938        43  SAPE      C311           -1.2728623572       26.0976128920        6.8428223038  MEMB      43              0.0000000000
      4939        43  SAPE      H11X           -1.1659803391       25.4420394817        7.7333954684  MEMB      43              0.0000000000
      4940        43  SAPE      H11Y           -0.5962766171       25.5734808365        6.1344171718  MEMB      43              0.0000000000
      4941        43  SAPE      C312           -2.6554463595       26.0766837947        6.2259300086  MEMB      43              0.0000000000
      4942        43  SAPE      H12X           -3.3977878886       26.1747050729        7.0466875987  MEMB      43              0.0000000000
      4943        43  SAPE      H12Y           -2.6987460278       25.1613836547        5.5977014967  MEMB      43              0.0000000000
      4944        43  SAPE      C313           -2.9649811142       27.1654603695        5.1024755943  MEMB      43              0.0000000000
      4945        43  SAPE      H13X           -2.9000837958       28.0727048805        5.7404534814  MEMB      43              0.0000000000
      4946        43  SAPE      H13Y           -4.0116399724       27.0431209147        4.7505386658  MEMB      43              0.0000000000
      4947        43  SAPE      C314           -2.0969912178       27.2778136116        3.8693828760  MEMB      43              0.0000000000
      4948        43  SAPE      H14X           -1.0547182439       27.4902261796        4.1901148973  MEMB      43              0.0000000000
      4949        43  SAPE      H14Y           -2.4719872162       28.1659175950        3.3171416966  MEMB      43              0.0000000000
      4950        43  SAPE      C315           -2.2677626278       26.0321448636        3.0493318446  MEMB      43              0.0000000000
      4951        43  SAPE      H15X           -3.3189521343       25.7410455437        2.8381849134  MEMB      43              0.0000000000
      4952        43  SAPE      H15Y           -2.0100119940       25.2096270309        3.7502943190  MEMB      43              0.0000000000
      4953        43  SAPE      C316           -1.3711194682       25.7738276961        1.8932528179  MEMB      43              0.0000000000
      4954        43  SAPE      H16X           -1.7912844014       24.8963634082        1.3567481421  MEMB      43              0.0000000000
      4955        43  SAPE      H16Y           -0.3202580862       25.5281651791        2.1571882930  MEMB      43              0.0000000000
      4956        43  SAPE      C317           -1.4237149262       26.9105086648        0.8538430156  MEMB      43              0.0000000000
      4957        43  SAPE      H17X           -2.4622632522       27.2635010552        1.0302930979  MEMB      43              0.0000000000
      4958        43  SAPE      H17Y           -1.2300009783       26.4208598255       -0.1244400692  MEMB      43              0.0000000000
      4959        43  SAPE      C318           -0.2357509148       27.9695881035        1.2262221529  MEMB      43              0.0000000000
      4960        43  SAPE      H18X           -0.4817665001       29.0515744519        1.1705197320  MEMB      43              0.0000000000
      4961        43  SAPE      H18Y            0.6429504806       27.7591117432        0.5797670131  MEMB      43              0.0000000000
      4962        43  SAPE      H18Z            0.1356473520       27.8231517232        2.2630146374  MEMB      43              0.0000000000
      4963        44  OSM       N              21.8344533137      -14.7779534735       21.6662103521  MEMB      44              0.0000000000
      4964        44  OSM       C15            21.1117410389      -15.0884440186       20.4178264078  MEMB      44              0.0000000000
      4965        44  OSM       H15A           21.3996881464      -16.0786404568       20.0968943063  MEMB      44              0.0000000000
      4966        44  OSM       H15B           21.3309536896      -14.4331989593       19.5877663644  MEMB      44              0.0000000000
      4967        44  OSM       H15C           20.0373571419      -15.0292278262       20.5105227772  MEMB      44              0.0000000000
      4968        44  OSM       C14            21.4370041895      -13.3935578167       22.0043895657  MEMB      44              0.0000000000
      4969        44  OSM       H14A           20.4106941923      -13.3917773763       22.3406700157  MEMB      44              0.0000000000
      4970        44  OSM       H14B           21.7121710398      -12.7342392996       21.1944621633  MEMB      44              0.0000000000
      4971        44  OSM       H14C           22.0025260759      -12.9377577893       22.8036587875  MEMB      44              0.0000000000
      4972        44  OSM       C13            21.4164864805      -15.7797417802       22.7685909899  MEMB      44              0.0000000000
      4973        44  OSM       H13A           20.3583120704      -15.8656694171       22.9667912794  MEMB      44              0.0000000000
      4974        44  OSM       H13B           21.7777020460      -15.3793928224       23.7043494997  MEMB      44              0.0000000000
      4975        44  OSM       H13C           22.0198019736      -16.6751489216       22.7429699744  MEMB      44              0.0000000000
      4976        44  OSM       C12            23.3574834886      -14.9933843410       21.5332553111  MEMB      44              0.0000000000
      4977        44  OSM       H12A           23.8710380546      -14.5989497258       22.3975948571  MEMB      44              0.0000000000
      4978        44  OSM       H12B           23.7927812966      -14.3805502019       20.7577876128  MEMB      44              0.0000000000
      4979        44  OSM       C11            23.9784759071      -16.3549875223       21.2641051456  MEMB      44              0.0000000000
      4980        44  OSM       H11A           24.1198089275      -17.0108503795       22.1496501294  MEMB      44              0.0000000000
      4981        44  OSM       H11B           25.0367626998      -16.1922061571       20.9677063088  MEMB      44              0.0000000000
      4982        44  OSM       P              23.1598341004      -18.6085081335       20.3637359216  MEMB      44              0.0000000000
      4983        44  OSM       O13            24.5306839970      -19.2366415745       20.3584657542  MEMB      44              0.0000000000
      4984        44  OSM       O14            22.1556422529      -18.9034663078       21.4294080693  MEMB      44              0.0000000000
      4985        44  OSM       O11            22.4583550110      -19.1075920151       19.0000082973  MEMB      44              0.0000000000
      4986        44  OSM       O12            23.3724955137      -17.0361214150       20.1940041851  MEMB      44              0.0000000000
      4987        44  OSM       C1S            21.6279785377      -18.2121120113       18.2198206148  MEMB      44              0.0000000000
      4988        44  OSM       H1S            21.5333156061      -17.1944444084       18.6553804826  MEMB      44              0.0000000000
      4989        44  OSM       H1T            20.5981129296      -18.6229193599       18.2900727890  MEMB      44              0.0000000000
      4990        44  OSM       NF             21.7019832302      -16.8551854655       16.2109118635  MEMB      44              0.0000000000
      4991        44  OSM       HNF            21.4358950159      -16.9052273668       15.2513798648  MEMB      44              0.0000000000
      4992        44  OSM       C2S            22.2749668634      -18.0154294719       16.8206828977  MEMB      44              0.0000000000
      4993        44  OSM       H2S            23.3625091037      -17.8311443356       16.9533928755  MEMB      44              0.0000000000
      4994        44  OSM       C3S            21.9739824705      -19.1688405643       15.9369347315  MEMB      44              0.0000000000
      4995        44  OSM       H3S            20.8982333973      -19.4080551920       15.7960052249  MEMB      44              0.0000000000
      4996        44  OSM       O3             22.4764946578      -20.3391458574       16.4998902043  MEMB      44              0.0000000000
      4997        44  OSM       HO3            22.8075995645      -20.1992400261       17.3900562286  MEMB      44              0.0000000000
      4998        44  OSM       C4S            22.6763809634      -18.8890073586       14.6626060882  MEMB      44              0.0000000000
      4999        44  OSM       H4S            23.7717634207      -18.8344333615       14.7472174953  MEMB      44              0.0000000000
      5000        44  OSM       C5S            22.1610234599      -18.6873928067       13.4212690976  MEMB      44              0.0000000000
      5001        44  OSM       H5S            21.0907418586      -18.7986561314       13.1929756346  MEMB      44              0.0000000000
      5002        44  OSM       C6S            23.0097694387      -18.4136120141       12.2107161334  MEMB      44              0.0000000000
      5003        44  OSM       H6S            24.0516875397      -18.1391293136       12.4816162981  MEMB      44              0.0000000000
      5004        44  OSM       H6T            22.6212704098      -17.4838681665       11.7427781497  MEMB      44              0.0000000000
      5005        44  OSM       C7S            22.8531260598      -19.6101749283       11.2385898651  MEMB      44              0.0000000000
      5006        44  OSM       H7S            21.8302543007      -19.5451814399       10.8098360098  MEMB      44              0.0000000000
      5007        44  OSM       H7T            22.9909325731      -20.5365932406       11.8361511571  MEMB      44              0.0000000000
      5008        44  OSM       C8S            23.9419508656      -19.4851422757       10.1358003099  MEMB      44              0.0000000000
      5009        44  OSM       H8S            23.8762291160      -20.4163155221        9.5333732434  MEMB      44              0.0000000000
      5010        44  OSM       H8T            24.9205106066      -19.4115373667       10.6566884631  MEMB      44              0.0000000000
      5011        44  OSM       C9S            23.7464051331      -18.3245308514        9.2062265360  MEMB      44              0.0000000000
      5012        44  OSM       H9S            23.8944976181      -17.3144403867        9.6445265584  MEMB      44              0.0000000000
      5013        44  OSM       H9T            22.6992629092      -18.3599787902        8.8366896663  MEMB      44              0.0000000000
      5014        44  OSM       C10S           24.7059401718      -18.5076819391        7.9831854526  MEMB      44              0.0000000000
      5015        44  OSM       H10S           24.5087871761      -19.5032957049        7.5312943938  MEMB      44              0.0000000000
      5016        44  OSM       H10T           25.7399083063      -18.6051866950        8.3778038463  MEMB      44              0.0000000000
      5017        44  OSM       C11S           24.6207445397      -17.5581457181        6.8472528159  MEMB      44              0.0000000000
      5018        44  OSM       H11S           25.6518772567      -17.1772543332        6.6859821467  MEMB      44              0.0000000000
      5019        44  OSM       H11T           23.9757156903      -16.6814526758        7.0701168022  MEMB      44              0.0000000000
      5020        44  OSM       C12S           24.1275414921      -18.1516978720        5.4712589687  MEMB      44              0.0000000000
      5021        44  OSM       H12S           24.8585065995      -18.9335953547        5.1735216999  MEMB      44              0.0000000000
      5022        44  OSM       H12T           24.1245250438      -17.3668081715        4.6849628844  MEMB      44              0.0000000000
      5023        44  OSM       C13S           22.6835803789      -18.6193326455        5.4839186938  MEMB      44              0.0000000000
      5024        44  OSM       H13S           22.1644107883      -17.6598689387        5.6941879579  MEMB      44              0.0000000000
      5025        44  OSM       H13T           22.5239155733      -19.3851311415        6.2728293931  MEMB      44              0.0000000000
      5026        44  OSM       C14S           22.0518516776      -19.1417432049        4.1300316847  MEMB      44              0.0000000000
      5027        44  OSM       H14S           22.6822477109      -20.0177854762        3.8664562926  MEMB      44              0.0000000000
      5028        44  OSM       H14T           22.1791532046      -18.3509122054        3.3601597417  MEMB      44              0.0000000000
      5029        44  OSM       C15S           20.5853293319      -19.5820809963        4.2707490807  MEMB      44              0.0000000000
      5030        44  OSM       H15S           19.9006012364      -18.7704545232        4.5974471779  MEMB      44              0.0000000000
      5031        44  OSM       H15T           20.5813864367      -20.2384421282        5.1671287228  MEMB      44              0.0000000000
      5032        44  OSM       C16S           19.9474775816      -20.4696714518        3.1521568326  MEMB      44              0.0000000000
      5033        44  OSM       H16S           18.8673553247      -20.6716243758        3.3160830777  MEMB      44              0.0000000000
      5034        44  OSM       H16T           20.3378557544      -21.4938459596        3.3337946328  MEMB      44              0.0000000000
      5035        44  OSM       C17S           20.2300528180      -20.0162574855        1.7135973634  MEMB      44              0.0000000000
      5036        44  OSM       H17S           19.6730031696      -20.8069357834        1.1669306007  MEMB      44              0.0000000000
      5037        44  OSM       H17T           21.3175700241      -20.0804403726        1.4956351215  MEMB      44              0.0000000000
      5038        44  OSM       C18S           19.6460161010      -18.6214853561        1.3588229764  MEMB      44              0.0000000000
      5039        44  OSM       H18S           18.5363963339      -18.6573698189        1.4009726461  MEMB      44              0.0000000000
      5040        44  OSM       H18T           20.1065688883      -18.3731718435        0.3787456359  MEMB      44              0.0000000000
      5041        44  OSM       H18U           20.1566035037      -17.8218805865        1.9369695089  MEMB      44              0.0000000000
      5042        44  OSM       C1F            22.0288249900      -15.6156815094       16.6555744032  MEMB      44              0.0000000000
      5043        44  OSM       OF             22.7185574638      -15.4174735884       17.6150004037  MEMB      44              0.0000000000
      5044        44  OSM       C2F            21.2451625417      -14.4731086729       15.9855437339  MEMB      44              0.0000000000
      5045        44  OSM       H2F            21.7020704835      -13.5325272767       16.3608602642  MEMB      44              0.0000000000
      5046        44  OSM       H2G            20.2249658843      -14.3039160733       16.3916141533  MEMB      44              0.0000000000
      5047        44  OSM       C3F            21.2401955179      -14.5593253919       14.3867354209  MEMB      44              0.0000000000
      5048        44  OSM       H3F            20.9657575628      -15.6162876956       14.1821983634  MEMB      44              0.0000000000
      5049        44  OSM       H3G            22.2988728499      -14.4060658706       14.0866773356  MEMB      44              0.0000000000
      5050        44  OSM       C4F            20.2305406787      -13.6132877164       13.6090236962  MEMB      44              0.0000000000
      5051        44  OSM       H4F            20.6209349744      -12.6373812078       13.9689120933  MEMB      44              0.0000000000
      5052        44  OSM       H4G            19.1830046845      -13.6702914195       13.9747283245  MEMB      44              0.0000000000
      5053        44  OSM       C5F            20.3874785978      -13.6525634229       12.0831164044  MEMB      44              0.0000000000
      5054        44  OSM       H5F            21.4333891159      -13.4617836408       11.7606337998  MEMB      44              0.0000000000
      5055        44  OSM       H5G            19.7340047036      -12.8158851098       11.7556081165  MEMB      44              0.0000000000
      5056        44  OSM       C6F            19.7804012788      -14.8461062268       11.3520937222  MEMB      44              0.0000000000
      5057        44  OSM       H6F            18.8945966832      -15.2267856125       11.9041389593  MEMB      44              0.0000000000
      5058        44  OSM       H6G            20.5282401081      -15.6660545913       11.2997200974  MEMB      44              0.0000000000
      5059        44  OSM       C7F            19.2998323741      -14.4575330178        9.9049002705  MEMB      44              0.0000000000
      5060        44  OSM       H7F            18.5270615150      -13.6593589106        9.9129220757  MEMB      44              0.0000000000
      5061        44  OSM       H7G            18.8472110577      -15.3818140587        9.4863793157  MEMB      44              0.0000000000
      5062        44  OSM       C8F            20.4247765707      -14.0619897267        8.9153309974  MEMB      44              0.0000000000
      5063        44  OSM       H8F            19.7927326520      -14.0393443059        8.0019151232  MEMB      44              0.0000000000
      5064        44  OSM       H8G            21.0598809055      -14.9708397927        8.8449389131  MEMB      44              0.0000000000
      5065        44  OSM       C9F            21.1190938668      -12.7645089353        9.1888347473  MEMB      44              0.0000000000
      5066        44  OSM       H9F            20.5221534612      -11.9196440665        9.5628208312  MEMB      44              0.0000000000
      5067        44  OSM       C10F           22.3672227947      -12.4267004985        8.9800901087  MEMB      44              0.0000000000
      5068        44  OSM       H10F           22.7542054341      -11.4264287566        9.2244270014  MEMB      44              0.0000000000
      5069        44  OSM       C11F           23.5049650121      -13.1933080545        8.4051806628  MEMB      44              0.0000000000
      5070        44  OSM       H11F           23.3856525609      -14.2758512966        8.1856683043  MEMB      44              0.0000000000
      5071        44  OSM       H11G           24.4017376438      -13.1752563795        9.0607674746  MEMB      44              0.0000000000
      5072        44  OSM       C12F           23.9078108102      -12.6755504552        6.9481683372  MEMB      44              0.0000000000
      5073        44  OSM       H12F           24.8916718174      -13.1123503025        6.6733156138  MEMB      44              0.0000000000
      5074        44  OSM       H12G           24.1319541407      -11.5937330366        7.0654383644  MEMB      44              0.0000000000
      5075        44  OSM       C13F           22.8173407808      -12.9487112652        5.9876612453  MEMB      44              0.0000000000
      5076        44  OSM       H13F           23.0947486555      -12.4376933913        5.0409686071  MEMB      44              0.0000000000
      5077        44  OSM       H13G           21.9162961717      -12.3998010640        6.3357088614  MEMB      44              0.0000000000
      5078        44  OSM       C14F           22.5403379227      -14.3982516510        5.7485688086  MEMB      44              0.0000000000
      5079        44  OSM       H14F           22.0748653887      -14.8256922251        6.6623259017  MEMB      44              0.0000000000
      5080        44  OSM       H14G           23.4217641366      -14.9727562018        5.3917032997  MEMB      44              0.0000000000
      5081        44  OSM       C15F           21.5667395162      -14.6832122990        4.6245316007  MEMB      44              0.0000000000
      5082        44  OSM       H15F           20.9435339530      -13.7721920942        4.4981256947  MEMB      44              0.0000000000
      5083        44  OSM       H15G           21.0329830720      -15.6199937315        4.8926087842  MEMB      44              0.0000000000
      5084        44  OSM       C16F           22.2302630332      -14.7897164180        3.2177807091  MEMB      44              0.0000000000
      5085        44  OSM       H16F           23.0047304068      -15.5800590633        3.3171765677  MEMB      44              0.0000000000
      5086        44  OSM       H16G           22.6753875489      -13.8522736056        2.8210615528  MEMB      44              0.0000000000
      5087        44  OSM       C17F           21.2348358139      -15.1746406828        2.1490237347  MEMB      44              0.0000000000
      5088        44  OSM       H17F           20.4982594710      -14.3573314262        1.9948118585  MEMB      44              0.0000000000
      5089        44  OSM       H17G           20.6990386405      -16.0548838419        2.5642525006  MEMB      44              0.0000000000
      5090        44  OSM       C18F           21.7666612545      -15.5848185796        0.7356294810  MEMB      44              0.0000000000
      5091        44  OSM       H18F           22.2587794700      -14.7041912914        0.2701865178  MEMB      44              0.0000000000
      5092        44  OSM       H18G           21.0358024364      -15.9755402483       -0.0043059878  MEMB      44              0.0000000000
      5093        44  OSM       H18H           22.4598558369      -16.4489829619        0.8194277094  MEMB      44              0.0000000000
      5094        45  SAPE      N              28.4912466290      -12.3210159133       20.2727399471  MEMB      45              0.0000000000
      5095        45  SAPE      HN1            29.5152409861      -12.1598466182       20.1887157598  MEMB      45              0.0000000000
      5096        45  SAPE      HN2            28.2148796555      -13.1331847210       20.8606201678  MEMB      45              0.0000000000
      5097        45  SAPE      HN3            27.9807043783      -12.2894607809       19.3672284935  MEMB      45              0.0000000000
      5098        45  SAPE      C12            28.0721562762      -11.1005273399       21.0938960325  MEMB      45              0.0000000000
      5099        45  SAPE      H12A           28.3793595719      -10.1930995572       20.5312933522  MEMB      45              0.0000000000
      5100        45  SAPE      H12B           28.5774754944      -11.2510370509       22.0718123180  MEMB      45              0.0000000000
      5101        45  SAPE      C11            26.5473604271      -10.8295952920       21.2597874801  MEMB      45              0.0000000000
      5102        45  SAPE      H11A           26.4021071941       -9.9671791279       21.9449596798  MEMB      45              0.0000000000
      5103        45  SAPE      H11B           26.1066915670      -11.7404330479       21.7185973720  MEMB      45              0.0000000000
      5104        45  SAPE      P              25.7249942650       -9.1249159335       19.5471411884  MEMB      45              0.0000000000
      5105        45  SAPE      O13            24.4332542329       -8.6048427863       20.0199283767  MEMB      45              0.0000000000
      5106        45  SAPE      O14            26.9674859335       -8.2272185135       19.7936320325  MEMB      45              0.0000000000
      5107        45  SAPE      O12            25.9682248449      -10.6156840112       19.9970710940  MEMB      45              0.0000000000
      5108        45  SAPE      O11            25.5739014040       -9.4017649760       18.0158038436  MEMB      45              0.0000000000
      5109        45  SAPE      C1             24.7453597296      -10.4544442507       17.5404621801  MEMB      45              0.0000000000
      5110        45  SAPE      HA             24.0355267797      -10.8989130912       18.2704662196  MEMB      45              0.0000000000
      5111        45  SAPE      HB             24.0695259593      -10.1125034885       16.7276608295  MEMB      45              0.0000000000
      5112        45  SAPE      C2             25.4899243188      -11.6136508011       16.9417900584  MEMB      45              0.0000000000
      5113        45  SAPE      HS             26.2186535400      -11.9357243807       17.7160919905  MEMB      45              0.0000000000
      5114        45  SAPE      O21            26.2874144894      -11.2126222742       15.8404883663  MEMB      45              0.0000000000
      5115        45  SAPE      C21            27.4264966241      -10.6378119261       15.9593419352  MEMB      45              0.0000000000
      5116        45  SAPE      O22            28.0549774413      -10.4970418793       17.0239603215  MEMB      45              0.0000000000
      5117        45  SAPE      C22            27.8456390464      -10.1608491832       14.5507123044  MEMB      45              0.0000000000
      5118        45  SAPE      H2R            27.9732389668      -11.0622710300       13.9139408629  MEMB      45              0.0000000000
      5119        45  SAPE      H2S            27.0713625209       -9.4171743152       14.2647671526  MEMB      45              0.0000000000
      5120        45  SAPE      C3             24.5756980034      -12.6728274019       16.4860908072  MEMB      45              0.0000000000
      5121        45  SAPE      HX             23.6865526023      -12.1558690352       16.0659770911  MEMB      45              0.0000000000
      5122        45  SAPE      HY             24.3040951582      -13.3353826241       17.3355455480  MEMB      45              0.0000000000
      5123        45  SAPE      O31            25.1984778429      -13.4042167124       15.3885933884  MEMB      45              0.0000000000
      5124        45  SAPE      C31            24.4325339531      -14.3923355357       14.8673818228  MEMB      45              0.0000000000
      5125        45  SAPE      O32            23.5281138294      -14.9536818674       15.4482376768  MEMB      45              0.0000000000
      5126        45  SAPE      C32            24.9542417374      -14.7367492151       13.4612956868  MEMB      45              0.0000000000
      5127        45  SAPE      H2X            24.6729463036      -15.7897152385       13.2457575756  MEMB      45              0.0000000000
      5128        45  SAPE      H2Y            26.0627565862      -14.6829793712       13.4100661470  MEMB      45              0.0000000000
      5129        45  SAPE      C23            29.2093496508       -9.5368621702       14.5360974810  MEMB      45              0.0000000000
      5130        45  SAPE      H3R            29.8660737802      -10.3540858794       14.9037654173  MEMB      45              0.0000000000
      5131        45  SAPE      H3S            29.3118616763       -8.6542480020       15.2030342062  MEMB      45              0.0000000000
      5132        45  SAPE      C24            29.7848733351       -8.9991584033       13.2086921905  MEMB      45              0.0000000000
      5133        45  SAPE      H4R            30.7532111992       -8.4655041023       13.3175747648  MEMB      45              0.0000000000
      5134        45  SAPE      H4S            29.1435550039       -8.1734886020       12.8327918853  MEMB      45              0.0000000000
      5135        45  SAPE      C25            30.1601481976      -10.0254956905       12.1620261063  MEMB      45              0.0000000000
      5136        45  SAPE      H5R            31.2339085740      -10.2058888718       12.0055119566  MEMB      45              0.0000000000
      5137        45  SAPE      C26            29.3548855753      -10.5479266316       11.2506933926  MEMB      45              0.0000000000
      5138        45  SAPE      H6R            29.7509718979      -11.2874937851       10.5392467809  MEMB      45              0.0000000000
      5139        45  SAPE      C27            27.8495724288      -10.2922966492       10.9071445707  MEMB      45              0.0000000000
      5140        45  SAPE      H7R            27.2142221611      -10.4513651223       11.8045565019  MEMB      45              0.0000000000
      5141        45  SAPE      H7S            27.4621054211      -11.0429331684       10.1855250948  MEMB      45              0.0000000000
      5142        45  SAPE      C28            27.4728403346       -8.9045498496       10.4211076065  MEMB      45              0.0000000000
      5143        45  SAPE      H8R            27.9210138569       -8.0678754074       10.9770899236  MEMB      45              0.0000000000
      5144        45  SAPE      C29            26.5298885201       -8.6646533716        9.4061281005  MEMB      45              0.0000000000
      5145        45  SAPE      H9R            26.2763365781       -7.6306657649        9.1293943901  MEMB      45              0.0000000000
      5146        45  SAPE      C210           25.7351782506       -9.6330117224        8.5923324277  MEMB      45              0.0000000000
      5147        45  SAPE      H10R           26.1186954585      -10.6668305780        8.7281789099  MEMB      45              0.0000000000
      5148        45  SAPE      H10S           25.8155231259       -9.2657733195        7.5468653976  MEMB      45              0.0000000000
      5149        45  SAPE      C211           24.2675373751       -9.5978316967        9.0619054928  MEMB      45              0.0000000000
      5150        45  SAPE      H11R           23.8714801019       -8.6517129466        9.4593953944  MEMB      45              0.0000000000
      5151        45  SAPE      C212           23.3825173696      -10.5379692872        8.7105607774  MEMB      45              0.0000000000
      5152        45  SAPE      H12R           22.3610042382      -10.4401177886        9.1067133599  MEMB      45              0.0000000000
      5153        45  SAPE      C213           23.6947733263      -11.7489576411        7.8448705275  MEMB      45              0.0000000000
      5154        45  SAPE      H13R           23.4596886775      -12.6353147741        8.4721082763  MEMB      45              0.0000000000
      5155        45  SAPE      H13S           24.7735836121      -11.7757659044        7.5807297699  MEMB      45              0.0000000000
      5156        45  SAPE      C214           22.8391539245      -11.6626820366        6.6176414276  MEMB      45              0.0000000000
      5157        45  SAPE      H14R           22.2924738312      -10.7232431537        6.4485397096  MEMB      45              0.0000000000
      5158        45  SAPE      C215           22.8434859524      -12.5922197750        5.6242467017  MEMB      45              0.0000000000
      5159        45  SAPE      H15R           22.1526884310      -12.4353896005        4.7826987228  MEMB      45              0.0000000000
      5160        45  SAPE      C216           23.7206559306      -13.8098791199        5.5938321500  MEMB      45              0.0000000000
      5161        45  SAPE      H16R           23.2983601186      -14.8356363790        5.5321135418  MEMB      45              0.0000000000
      5162        45  SAPE      H16S           24.4548821628      -13.8304674868        6.4273837494  MEMB      45              0.0000000000
      5163        45  SAPE      C217           24.5469648895      -13.6695527474        4.2526445092  MEMB      45              0.0000000000
      5164        45  SAPE      H17R           24.9724131957      -12.6455504632        4.3214502582  MEMB      45              0.0000000000
      5165        45  SAPE      H17S           23.8330832468      -13.6970632297        3.4017989777  MEMB      45              0.0000000000
      5166        45  SAPE      C218           25.7442896767      -14.6493912652        4.2581982720  MEMB      45              0.0000000000
      5167        45  SAPE      H18R           25.4420283950      -15.7184772227        4.2619938444  MEMB      45              0.0000000000
      5168        45  SAPE      H18S           26.2560329636      -14.4619754448        5.2263480378  MEMB      45              0.0000000000
      5169        45  SAPE      C219           26.8082236793      -14.2717838102        3.1605631180  MEMB      45              0.0000000000
      5170        45  SAPE      H19R           27.1168480931      -13.2520579768        3.4755730881  MEMB      45              0.0000000000
      5171        45  SAPE      H19S           26.3283562524      -14.2518450323        2.1587390669  MEMB      45              0.0000000000
      5172        45  SAPE      C220           28.0364346176      -15.1618879232        3.1243042922  MEMB      45              0.0000000000
      5173        45  SAPE      H20R           28.6896760543      -14.9101744473        2.2616125401  MEMB      45              0.0000000000
      5174        45  SAPE      H20S           27.7693362938      -16.2380455154        3.0545555017  MEMB      45              0.0000000000
      5175        45  SAPE      H20T           28.7200880786      -15.0826346875        3.9964620969  MEMB      45              0.0000000000
      5176        45  SAPE      C33            24.3997438977      -13.7159624126       12.4137938932  MEMB      45              0.0000000000
      5177        45  SAPE      H3X            24.8064536333      -12.7223675178       12.6995862289  MEMB      45              0.0000000000
      5178        45  SAPE      H3Y            23.2957489163      -13.7549393034       12.5321032077  MEMB      45              0.0000000000
      5179        45  SAPE      C34            24.5981283383      -14.0833602526       10.9670700064  MEMB      45              0.0000000000
      5180        45  SAPE      H4X            23.8074918011      -13.6336136684       10.3291488914  MEMB      45              0.0000000000
      5181        45  SAPE      H4Y            24.7251715332      -15.1836141991       10.8797637253  MEMB      45              0.0000000000
      5182        45  SAPE      C35            26.0112340962      -13.5760479600       10.4570658505  MEMB      45              0.0000000000
      5183        45  SAPE      H5X            26.7542810827      -13.8870826056       11.2222189834  MEMB      45              0.0000000000
      5184        45  SAPE      H5Y            25.8446880005      -12.4869750279       10.6002556340  MEMB      45              0.0000000000
      5185        45  SAPE      C36            26.4718061651      -13.8929913711        9.0210360569  MEMB      45              0.0000000000
      5186        45  SAPE      H6X            25.9042687563      -13.2475876417        8.3169931743  MEMB      45              0.0000000000
      5187        45  SAPE      H6Y            26.2014457254      -14.9649292578        8.9106924920  MEMB      45              0.0000000000
      5188        45  SAPE      C37            28.0155764639      -13.7803865682        8.8596511339  MEMB      45              0.0000000000
      5189        45  SAPE      H7X            28.4723560138      -14.6090444925        9.4418881397  MEMB      45              0.0000000000
      5190        45  SAPE      H7Y            28.4400808163      -12.9005291641        9.3887710869  MEMB      45              0.0000000000
      5191        45  SAPE      C38            28.5352215406      -13.9820595663        7.4291472544  MEMB      45              0.0000000000
      5192        45  SAPE      H8X            28.0792700398      -14.9310476903        7.0743926537  MEMB      45              0.0000000000
      5193        45  SAPE      H8Y            29.6295481754      -14.1501515130        7.3368682867  MEMB      45              0.0000000000
      5194        45  SAPE      C39            28.2489179746      -12.8302279759        6.4692646644  MEMB      45              0.0000000000
      5195        45  SAPE      H9X            27.1521860160      -12.7955746874        6.6433315799  MEMB      45              0.0000000000
      5196        45  SAPE      H9Y            28.4006500645      -13.0752259822        5.3962897018  MEMB      45              0.0000000000
      5197        45  SAPE      C310           29.0162846993      -11.5596789305        6.8255003971  MEMB      45              0.0000000000
      5198        45  SAPE      H10X           30.0830000521      -11.8497348840        6.7145637692  MEMB      45              0.0000000000
      5199        45  SAPE      H10Y           28.7079302836      -11.1968998662        7.8293074212  MEMB      45              0.0000000000
      5200        45  SAPE      C311           28.8825120804      -10.3993554493        5.7574152562  MEMB      45              0.0000000000
      5201        45  SAPE      H11X           29.6795814000      -10.4622464372        4.9860224062  MEMB      45              0.0000000000
      5202        45  SAPE      H11Y           29.1338515082       -9.4701200416        6.3120959296  MEMB      45              0.0000000000
      5203        45  SAPE      C312           27.6145607309      -10.1295061700        5.0460226103  MEMB      45              0.0000000000
      5204        45  SAPE      H12X           26.6954729572      -10.2089639136        5.6651220573  MEMB      45              0.0000000000
      5205        45  SAPE      H12Y           27.4585822718      -10.8683753537        4.2311211131  MEMB      45              0.0000000000
      5206        45  SAPE      C313           27.5026476294       -8.7379816816        4.3736886836  MEMB      45              0.0000000000
      5207        45  SAPE      H13X           27.7807540999       -8.7944537286        3.2995423207  MEMB      45              0.0000000000
      5208        45  SAPE      H13Y           28.0859715413       -7.9625567289        4.9147719531  MEMB      45              0.0000000000
      5209        45  SAPE      C314           26.1183875919       -8.3451025031        4.2092451102  MEMB      45              0.0000000000
      5210        45  SAPE      H14X           26.1333406163       -7.2860045223        3.8739703665  MEMB      45              0.0000000000
      5211        45  SAPE      H14Y           25.5749155794       -8.4854253588        5.1680306384  MEMB      45              0.0000000000
      5212        45  SAPE      C315           25.4659918467       -9.1100159631        3.0336508174  MEMB      45              0.0000000000
      5213        45  SAPE      H15X           24.4318959933       -9.4307472734        3.2828448730  MEMB      45              0.0000000000
      5214        45  SAPE      H15Y           26.1089279367       -9.9770471313        2.7705706190  MEMB      45              0.0000000000
      5215        45  SAPE      C316           25.3536786629       -8.3181114480        1.7537044294  MEMB      45              0.0000000000
      5216        45  SAPE      H16X           26.1681976225       -7.5705639000        1.6439222446  MEMB      45              0.0000000000
      5217        45  SAPE      H16Y           24.3395685809       -7.8643669740        1.7578445510  MEMB      45              0.0000000000
      5218        45  SAPE      C317           25.3200984158       -9.1590308279        0.3854723382  MEMB      45              0.0000000000
      5219        45  SAPE      H17X           25.1334824232       -8.5149788330       -0.5003553526  MEMB      45              0.0000000000
      5220        45  SAPE      H17Y           24.5009366486       -9.8920421136        0.5466852323  MEMB      45              0.0000000000
      5221        45  SAPE      C318           26.5478281322      -10.0145253491        0.1436381425  MEMB      45              0.0000000000
      5222        45  SAPE      H18X           27.4139683322       -9.3200533495        0.1864248214  MEMB      45              0.0000000000
      5223        45  SAPE      H18Y           26.5166894869      -10.6708217229       -0.7522557949  MEMB      45              0.0000000000
      5224        45  SAPE      H18Z           26.6798479822      -10.8038810999        0.9142283036  MEMB      45              0.0000000000
      5225        46  CHL1      C3            -10.1420012303       26.4910095125       17.3101500000  MEMB      46              0.0000000000
      5226        46  CHL1      H3             -9.3833178557       25.6893215136       17.1835800000  MEMB      46              0.0000000000
      5227        46  CHL1      O3            -10.3351245697       26.6086680875       18.6898500000  MEMB      46              0.0000000000
      5228        46  CHL1      H3'            -9.4743746047       26.7526664492       19.0898200000  MEMB      46              0.0000000000
      5229        46  CHL1      C4             -9.6279598347       27.8428261805       16.7138900000  MEMB      46              0.0000000000
      5230        46  CHL1      H4A           -10.3872379132       28.5061456872       17.1806000000  MEMB      46              0.0000000000
      5231        46  CHL1      H4B            -8.6121456133       28.0230614925       17.1261600000  MEMB      46              0.0000000000
      5232        46  CHL1      C5             -9.7896591107       27.8211521906       15.2349900000  MEMB      46              0.0000000000
      5233        46  CHL1      C6             -8.7735113576       28.1354556821       14.3907300000  MEMB      46              0.0000000000
      5234        46  CHL1      H6             -7.7802369880       28.3498829462       14.8119400000  MEMB      46              0.0000000000
      5235        46  CHL1      C7             -8.8130422469       28.2978397518       12.9637100000  MEMB      46              0.0000000000
      5236        46  CHL1      H7A            -8.2093993480       29.1773841493       12.6533500000  MEMB      46              0.0000000000
      5237        46  CHL1      H7B            -8.4940881637       27.4236592093       12.3567500000  MEMB      46              0.0000000000
      5238        46  CHL1      C8            -10.2599957342       28.4348783743       12.4177600000  MEMB      46              0.0000000000
      5239        46  CHL1      H8            -10.7763795641       29.3392434370       12.8047900000  MEMB      46              0.0000000000
      5240        46  CHL1      C14           -10.3137840388       28.3415796964       10.9159500000  MEMB      46              0.0000000000
      5241        46  CHL1      H14            -9.8566828210       27.3764663473       10.6094700000  MEMB      46              0.0000000000
      5242        46  CHL1      C15            -9.5594296617       29.3387138322       10.0859400000  MEMB      46              0.0000000000
      5243        46  CHL1      H15A           -9.7776158289       30.3057145126       10.5875700000  MEMB      46              0.0000000000
      5244        46  CHL1      H15B           -8.4667101370       29.1439952847       10.0372100000  MEMB      46              0.0000000000
      5245        46  CHL1      C16           -10.1388020943       29.2845981654        8.7086500000  MEMB      46              0.0000000000
      5246        46  CHL1      H16A          -10.5983955740       30.2630888697        8.4524200000  MEMB      46              0.0000000000
      5247        46  CHL1      H16B           -9.3586456025       28.9900594101        7.9745400000  MEMB      46              0.0000000000
      5248        46  CHL1      C17           -11.3694275698       28.2750180748        8.8586500000  MEMB      46              0.0000000000
      5249        46  CHL1      H17           -10.9922582662       27.2395725140        8.7175500000  MEMB      46              0.0000000000
      5250        46  CHL1      C13           -11.6913657498       28.2626441199       10.3729900000  MEMB      46              0.0000000000
      5251        46  CHL1      C18           -12.5165264062       29.5759867570       10.7955300000  MEMB      46              0.0000000000
      5252        46  CHL1      H18A          -12.1500423775       30.4965156208       10.2929200000  MEMB      46              0.0000000000
      5253        46  CHL1      H18B          -13.5610075485       29.3923536001       10.4643700000  MEMB      46              0.0000000000
      5254        46  CHL1      H18C          -12.4792363057       29.7215504190       11.8963200000  MEMB      46              0.0000000000
      5255        46  CHL1      C12           -12.3106484190       26.9380915164       10.8780600000  MEMB      46              0.0000000000
      5256        46  CHL1      H12A          -13.2784370265       26.9309211182       10.3324700000  MEMB      46              0.0000000000
      5257        46  CHL1      H12B          -11.7162608733       26.0677609540       10.5265400000  MEMB      46              0.0000000000
      5258        46  CHL1      C11           -12.4326213969       26.9411422154       12.3946500000  MEMB      46              0.0000000000
      5259        46  CHL1      H11A          -13.1591904885       27.7459161387       12.6370700000  MEMB      46              0.0000000000
      5260        46  CHL1      H11B          -12.8224796919       25.9585636797       12.7365200000  MEMB      46              0.0000000000
      5261        46  CHL1      C9            -11.0314610424       27.2109454510       13.0805200000  MEMB      46              0.0000000000
      5262        46  CHL1      H9            -10.4292152655       26.2981821711       12.8843200000  MEMB      46              0.0000000000
      5263        46  CHL1      C10           -11.1461654708       27.4053722706       14.6096500000  MEMB      46              0.0000000000
      5264        46  CHL1      C19           -12.3097558016       28.4877661301       14.8631900000  MEMB      46              0.0000000000
      5265        46  CHL1      H19A          -12.1733993569       29.3540121836       14.1810300000  MEMB      46              0.0000000000
      5266        46  CHL1      H19B          -13.3142652562       28.0629306988       14.6515400000  MEMB      46              0.0000000000
      5267        46  CHL1      H19C          -12.1997076412       28.7632827410       15.9338500000  MEMB      46              0.0000000000
      5268        46  CHL1      C1            -11.5331818485       26.0733069079       15.2025900000  MEMB      46              0.0000000000
      5269        46  CHL1      H1A           -12.5565625433       25.7840297695       14.8811400000  MEMB      46              0.0000000000
      5270        46  CHL1      H1B           -10.9234718203       25.2586134376       14.7566700000  MEMB      46              0.0000000000
      5271        46  CHL1      C2            -11.4915935978       26.1124763858       16.7486100000  MEMB      46              0.0000000000
      5272        46  CHL1      H2A           -11.7390421592       25.0986088524       17.1296100000  MEMB      46              0.0000000000
      5273        46  CHL1      H2B           -12.2217663037       26.8798697398       17.0836900000  MEMB      46              0.0000000000
      5274        46  CHL1      C20           -12.4728861706       28.5883557062        7.7801500000  MEMB      46              0.0000000000
      5275        46  CHL1      H20           -12.7626833305       29.6591539334        7.8412300000  MEMB      46              0.0000000000
      5276        46  CHL1      C21           -13.7823020936       27.7413638584        7.8825600000  MEMB      46              0.0000000000
      5277        46  CHL1      H21A          -13.3646229766       26.7159567444        7.9741900000  MEMB      46              0.0000000000
      5278        46  CHL1      H21B          -14.3021956479       27.7009306307        6.9015400000  MEMB      46              0.0000000000
      5279        46  CHL1      H21C          -14.4666750539       28.0520782741        8.7007400000  MEMB      46              0.0000000000
      5280        46  CHL1      C22           -11.8487216906       28.4896362675        6.3645800000  MEMB      46              0.0000000000
      5281        46  CHL1      H22A          -10.8056574458       28.8715592279        6.3430000000  MEMB      46              0.0000000000
      5282        46  CHL1      H22B          -11.8461291867       27.3909762736        6.1994600000  MEMB      46              0.0000000000
      5283        46  CHL1      C23           -12.6744171971       29.1249918286        5.2990600000  MEMB      46              0.0000000000
      5284        46  CHL1      H23A          -13.7302920278       28.7844732458        5.3581000000  MEMB      46              0.0000000000
      5285        46  CHL1      H23B          -12.5928847737       30.2326274726        5.3274000000  MEMB      46              0.0000000000
      5286        46  CHL1      C24           -12.2396506273       28.5302613361        3.9071400000  MEMB      46              0.0000000000
      5287        46  CHL1      H24A          -11.2431035271       29.0194871658        3.8639700000  MEMB      46              0.0000000000
      5288        46  CHL1      H24B          -12.1619788297       27.4232123872        3.8547500000  MEMB      46              0.0000000000
      5289        46  CHL1      C25           -13.1914620258       28.9532411011        2.7581600000  MEMB      46              0.0000000000
      5290        46  CHL1      H25           -13.3759072964       30.0485594076        2.7342700000  MEMB      46              0.0000000000
      5291        46  CHL1      C26           -12.4759453445       28.6005438133        1.3966800000  MEMB      46              0.0000000000
      5292        46  CHL1      H26A          -12.3383541383       27.5008489837        1.3187200000  MEMB      46              0.0000000000
      5293        46  CHL1      H26B          -12.8870162493       28.9104200533        0.4121400000  MEMB      46              0.0000000000
      5294        46  CHL1      H26C          -11.4005703369       28.8661496095        1.4822800000  MEMB      46              0.0000000000
      5295        46  CHL1      C27           -14.5296276433       28.1108497613        2.7475500000  MEMB      46              0.0000000000
      5296        46  CHL1      H27A          -14.3860725978       27.0159283079        2.6256400000  MEMB      46              0.0000000000
      5297        46  CHL1      H27B          -15.0554050388       28.3487088784        3.6969100000  MEMB      46              0.0000000000
      5298        46  CHL1      H27C          -15.1672908308       28.3601841059        1.8726000000  MEMB      46              0.0000000000
      5299        47  SAPC      N             -26.9400590728       11.5925423989       22.1240274364  MEMB      47              0.0000000000
      5300        47  SAPC      C12           -28.0591124844       11.2598874661       21.1549823270  MEMB      47              0.0000000000
      5301        47  SAPC      H12A          -29.0199663044       11.3815831762       21.6328424073  MEMB      47              0.0000000000
      5302        47  SAPC      H12B          -28.0081750244       10.2300976715       20.8335196797  MEMB      47              0.0000000000
      5303        47  SAPC      C13           -26.9291129181       13.0424960247       22.3822798423  MEMB      47              0.0000000000
      5304        47  SAPC      H13A          -26.4860590528       13.7094094598       21.6574834626  MEMB      47              0.0000000000
      5305        47  SAPC      H13B          -27.9865346963       13.2204964836       22.5110241622  MEMB      47              0.0000000000
      5306        47  SAPC      H13C          -26.5050584943       13.2755920431       23.3478078366  MEMB      47              0.0000000000
      5307        47  SAPC      C14           -27.4619127865       10.9591964970       23.4525548716  MEMB      47              0.0000000000
      5308        47  SAPC      H14A          -27.4430176305        9.9064312366       23.2122881489  MEMB      47              0.0000000000
      5309        47  SAPC      H14B          -26.9020639163       11.1891815645       24.3470246016  MEMB      47              0.0000000000
      5310        47  SAPC      H14C          -28.5134735784       11.1350663997       23.6248618206  MEMB      47              0.0000000000
      5311        47  SAPC      C15           -25.6495280936       10.8783461940       21.7317365248  MEMB      47              0.0000000000
      5312        47  SAPC      H15A          -24.8959057751       11.1364315327       22.4610139383  MEMB      47              0.0000000000
      5313        47  SAPC      H15B          -25.6841935340        9.8030438798       21.6372734227  MEMB      47              0.0000000000
      5314        47  SAPC      H15C          -25.4168890053       11.3145323155       20.7715175828  MEMB      47              0.0000000000
      5315        47  SAPC      C11           -28.0063293720       12.0272327584       19.8374549601  MEMB      47              0.0000000000
      5316        47  SAPC      H11A          -28.2980440156       13.0828240068       20.0244055712  MEMB      47              0.0000000000
      5317        47  SAPC      H11B          -28.7836625341       11.5740650489       19.1857548136  MEMB      47              0.0000000000
      5318        47  SAPC      P             -26.4186266284       11.3792526762       17.8146515138  MEMB      47              0.0000000000
      5319        47  SAPC      O13           -25.1010696256       11.8856093935       17.3965865839  MEMB      47              0.0000000000
      5320        47  SAPC      O14           -26.5818661587        9.9190653054       17.9079786838  MEMB      47              0.0000000000
      5321        47  SAPC      O12           -26.7186289845       11.9604283360       19.2307820493  MEMB      47              0.0000000000
      5322        47  SAPC      O11           -27.6034998801       12.0635452470       16.9669652121  MEMB      47              0.0000000000
      5323        47  SAPC      C1            -27.5279970322       13.3306814374       16.4486602815  MEMB      47              0.0000000000
      5324        47  SAPC      HA            -26.9561872350       14.0722879798       17.0464680211  MEMB      47              0.0000000000
      5325        47  SAPC      HB            -27.0909681968       13.2305284688       15.4321485078  MEMB      47              0.0000000000
      5326        47  SAPC      C2            -28.9495646418       13.8512268974       15.9553348980  MEMB      47              0.0000000000
      5327        47  SAPC      HS            -29.6296653772       14.2184842580       16.7533989410  MEMB      47              0.0000000000
      5328        47  SAPC      O21           -29.6934542791       12.7645605433       15.3228581286  MEMB      47              0.0000000000
      5329        47  SAPC      C21           -30.3037493029       11.8527031659       15.9793069410  MEMB      47              0.0000000000
      5330        47  SAPC      O22           -30.8202510739       11.9548176758       17.0830552346  MEMB      47              0.0000000000
      5331        47  SAPC      C22           -30.3424753675       10.5879470363       15.1535715097  MEMB      47              0.0000000000
      5332        47  SAPC      H2R           -30.9035734488        9.7300945937       15.5820334817  MEMB      47              0.0000000000
      5333        47  SAPC      H2S           -30.8572615672       10.8706673770       14.2104995133  MEMB      47              0.0000000000
      5334        47  SAPC      C3            -28.9076733845       15.0567116440       14.9300702806  MEMB      47              0.0000000000
      5335        47  SAPC      HX            -28.5573432595       15.9452106718       15.4976614403  MEMB      47              0.0000000000
      5336        47  SAPC      HY            -29.9238775657       15.2448457181       14.5223264745  MEMB      47              0.0000000000
      5337        47  SAPC      O31           -27.9975419468       14.7076368714       13.8501094735  MEMB      47              0.0000000000
      5338        47  SAPC      C31           -28.4963071976       14.1047695750       12.7490326443  MEMB      47              0.0000000000
      5339        47  SAPC      O32           -29.6162791013       13.6996963522       12.5814117028  MEMB      47              0.0000000000
      5340        47  SAPC      C32           -27.3373970451       13.7208815504       11.8494842665  MEMB      47              0.0000000000
      5341        47  SAPC      H2X           -27.2873022488       14.5424810152       11.1033034013  MEMB      47              0.0000000000
      5342        47  SAPC      H2Y           -27.5952023348       12.7867378264       11.3061306689  MEMB      47              0.0000000000
      5343        47  SAPC      C23           -28.9560215443       10.0397459846       14.8677626428  MEMB      47              0.0000000000
      5344        47  SAPC      H3R           -28.1640678835       10.3099694002       15.5985904442  MEMB      47              0.0000000000
      5345        47  SAPC      H3S           -28.6501667677       10.5191955363       13.9133504582  MEMB      47              0.0000000000
      5346        47  SAPC      C24           -28.9584628680        8.4719131673       14.7855554344  MEMB      47              0.0000000000
      5347        47  SAPC      H4R           -29.7036181228        8.1706459210       14.0185467150  MEMB      47              0.0000000000
      5348        47  SAPC      H4S           -29.1427942363        8.1174796565       15.8222426028  MEMB      47              0.0000000000
      5349        47  SAPC      C25           -27.5988647980        7.9269003483       14.3648831776  MEMB      47              0.0000000000
      5350        47  SAPC      H5R           -27.0176193512        7.3921374945       15.1305085309  MEMB      47              0.0000000000
      5351        47  SAPC      C26           -27.1462368741        7.8329228999       13.0862584049  MEMB      47              0.0000000000
      5352        47  SAPC      H6R           -26.0698109420        7.6367979977       12.9729353439  MEMB      47              0.0000000000
      5353        47  SAPC      C27           -27.8154701523        8.2041111897       11.8090736471  MEMB      47              0.0000000000
      5354        47  SAPC      H7R           -27.8107864771        9.3043750484       11.6550654210  MEMB      47              0.0000000000
      5355        47  SAPC      H7S           -28.9126424778        8.0345986481       11.7666561505  MEMB      47              0.0000000000
      5356        47  SAPC      C28           -27.1785338273        7.4889707038       10.6048515817  MEMB      47              0.0000000000
      5357        47  SAPC      H8R           -27.4173748391        6.4168095095       10.5463289092  MEMB      47              0.0000000000
      5358        47  SAPC      C29           -26.2798634719        8.1273451206        9.7643814955  MEMB      47              0.0000000000
      5359        47  SAPC      H9R           -25.8809568350        7.5590651430        8.9111922428  MEMB      47              0.0000000000
      5360        47  SAPC      C210          -25.7941990787        9.5544451986        9.8473392483  MEMB      47              0.0000000000
      5361        47  SAPC      H10R          -24.8400608926        9.6676419064       10.4051280323  MEMB      47              0.0000000000
      5362        47  SAPC      H10S          -26.4576740215       10.2697126296       10.3788605759  MEMB      47              0.0000000000
      5363        47  SAPC      C211          -25.4586255599       10.1169097535        8.4378076904  MEMB      47              0.0000000000
      5364        47  SAPC      H11R          -24.4277472952       10.0049563076        8.0707157680  MEMB      47              0.0000000000
      5365        47  SAPC      C212          -26.3889799524       10.7367464219        7.6082402611  MEMB      47              0.0000000000
      5366        47  SAPC      H12R          -26.0505502901       11.2520463125        6.6972349559  MEMB      47              0.0000000000
      5367        47  SAPC      C213          -27.8388160986       10.9623568798        7.9323215030  MEMB      47              0.0000000000
      5368        47  SAPC      H13R          -27.9992705842       10.8760580502        9.0282812524  MEMB      47              0.0000000000
      5369        47  SAPC      H13S          -28.4423983977       10.1497931254        7.4743365082  MEMB      47              0.0000000000
      5370        47  SAPC      C214          -28.3051885837       12.3354599273        7.5095633367  MEMB      47              0.0000000000
      5371        47  SAPC      H14R          -28.2755369965       13.0494626816        8.3458175491  MEMB      47              0.0000000000
      5372        47  SAPC      C215          -28.6479563764       12.8047409102        6.2579731240  MEMB      47              0.0000000000
      5373        47  SAPC      H15R          -29.0160958456       13.8358717973        6.1519416159  MEMB      47              0.0000000000
      5374        47  SAPC      C216          -28.6708579275       12.0175204459        4.9976275075  MEMB      47              0.0000000000
      5375        47  SAPC      H16R          -28.7778891224       10.9708366148        5.3544441003  MEMB      47              0.0000000000
      5376        47  SAPC      H16S          -27.7383684072       11.9516867222        4.3972522141  MEMB      47              0.0000000000
      5377        47  SAPC      C217          -29.8522245539       12.4163216202        3.9909526069  MEMB      47              0.0000000000
      5378        47  SAPC      H17R          -29.8786764559       13.5125787688        3.8125111516  MEMB      47              0.0000000000
      5379        47  SAPC      H17S          -30.8079908324       12.0475260709        4.4208619323  MEMB      47              0.0000000000
      5380        47  SAPC      C218          -29.7776169324       11.6221768886        2.6576628024  MEMB      47              0.0000000000
      5381        47  SAPC      H18R          -29.1061795956       12.1647431895        1.9582946729  MEMB      47              0.0000000000
      5382        47  SAPC      H18S          -30.7977292920       11.4599040021        2.2485664329  MEMB      47              0.0000000000
      5383        47  SAPC      C219          -29.2828609748       10.1666258205        2.8309874620  MEMB      47              0.0000000000
      5384        47  SAPC      H19R          -29.7892497607        9.7221290150        3.7143424672  MEMB      47              0.0000000000
      5385        47  SAPC      H19S          -28.1736889380       10.1299412683        2.8830715757  MEMB      47              0.0000000000
      5386        47  SAPC      C220          -29.5528794488        9.3384329271        1.5571678300  MEMB      47              0.0000000000
      5387        47  SAPC      H20R          -29.3053157986        9.9367980943        0.6543996261  MEMB      47              0.0000000000
      5388        47  SAPC      H20S          -30.6000632037        8.9730126922        1.4923981085  MEMB      47              0.0000000000
      5389        47  SAPC      H20T          -28.8432337551        8.4878450386        1.4721714284  MEMB      47              0.0000000000
      5390        47  SAPC      C33           -25.9386084966       13.6444567654       12.5337660993  MEMB      47              0.0000000000
      5391        47  SAPC      H3X           -26.2344476597       13.0300084968       13.4108370692  MEMB      47              0.0000000000
      5392        47  SAPC      H3Y           -25.5687113275       14.6300405924       12.8889016561  MEMB      47              0.0000000000
      5393        47  SAPC      C34           -24.8896488793       12.7760908428       11.8055907481  MEMB      47              0.0000000000
      5394        47  SAPC      H4X           -25.0449649009       11.6816593262       11.9170258978  MEMB      47              0.0000000000
      5395        47  SAPC      H4Y           -23.9246446596       13.0451470571       12.2858996720  MEMB      47              0.0000000000
      5396        47  SAPC      C35           -24.6704802812       13.0764286138       10.3490753145  MEMB      47              0.0000000000
      5397        47  SAPC      H5X           -25.5456642099       12.8045322253        9.7210256882  MEMB      47              0.0000000000
      5398        47  SAPC      H5Y           -23.8830788306       12.4601261402        9.8648325531  MEMB      47              0.0000000000
      5399        47  SAPC      C36           -24.2371881094       14.5386314263       10.0422417391  MEMB      47              0.0000000000
      5400        47  SAPC      H6X           -23.3988265922       14.9705598561       10.6295317008  MEMB      47              0.0000000000
      5401        47  SAPC      H6Y           -25.1510366674       15.0928114095       10.3456986803  MEMB      47              0.0000000000
      5402        47  SAPC      C37           -23.8138924044       14.7536423187        8.5959947027  MEMB      47              0.0000000000
      5403        47  SAPC      H7X           -22.8989883106       14.1496311878        8.4158777497  MEMB      47              0.0000000000
      5404        47  SAPC      H7Y           -23.6873989207       15.8540062472        8.6827147759  MEMB      47              0.0000000000
      5405        47  SAPC      C38           -24.8970350067       14.3760297857        7.5720819090  MEMB      47              0.0000000000
      5406        47  SAPC      H8X           -25.8312214618       14.9098644410        7.8489161106  MEMB      47              0.0000000000
      5407        47  SAPC      H8Y           -25.1288497030       13.2894926800        7.5765994335  MEMB      47              0.0000000000
      5408        47  SAPC      C39           -24.6504703192       14.7725037979        6.0737875092  MEMB      47              0.0000000000
      5409        47  SAPC      H9X           -23.8356656531       14.1394612648        5.6618753756  MEMB      47              0.0000000000
      5410        47  SAPC      H9Y           -24.2787195529       15.8054506077        6.2445013686  MEMB      47              0.0000000000
      5411        47  SAPC      C310          -25.8031596300       14.7121936006        5.2002844443  MEMB      47              0.0000000000
      5412        47  SAPC      H10X          -26.5809907210       15.2694134170        5.7649137526  MEMB      47              0.0000000000
      5413        47  SAPC      H10Y          -26.1007395879       13.6510631172        5.0596815377  MEMB      47              0.0000000000
      5414        47  SAPC      C311          -25.5387850869       15.3508561308        3.7806031072  MEMB      47              0.0000000000
      5415        47  SAPC      H11X          -24.5913142753       15.0464651936        3.2866734856  MEMB      47              0.0000000000
      5416        47  SAPC      H11Y          -25.3001029332       16.4031105888        4.0453902505  MEMB      47              0.0000000000
      5417        47  SAPC      C312          -26.8244151616       15.5352738678        2.9468847864  MEMB      47              0.0000000000
      5418        47  SAPC      H12X          -27.2400384392       16.5087641767        2.6094010758  MEMB      47              0.0000000000
      5419        47  SAPC      H12Y          -27.6601074373       15.1113012092        3.5436985547  MEMB      47              0.0000000000
      5420        47  SAPC      C313          -26.7332642960       14.6006364807        1.7877002900  MEMB      47              0.0000000000
      5421        47  SAPC      H13X          -26.7697177437       13.5541363620        2.1589546984  MEMB      47              0.0000000000
      5422        47  SAPC      H13Y          -25.8547162900       14.8127014249        1.1415573792  MEMB      47              0.0000000000
      5423        47  SAPC      C314          -27.9352568566       14.8953006340        0.7937073314  MEMB      47              0.0000000000
      5424        47  SAPC      H14X          -27.8167056597       15.9284489521        0.4027186383  MEMB      47              0.0000000000
      5425        47  SAPC      H14Y          -28.8399452869       14.7031679702        1.4092923902  MEMB      47              0.0000000000
      5426        47  SAPC      C315          -28.0619660953       13.9534489641       -0.4113615003  MEMB      47              0.0000000000
      5427        47  SAPC      H15X          -28.3597575138       12.9209775691       -0.1291482453  MEMB      47              0.0000000000
      5428        47  SAPC      H15Y          -27.0700356555       13.7749036195       -0.8788196893  MEMB      47              0.0000000000
      5429        47  SAPC      C316          -29.1776276162       14.3709771897       -1.3345899086  MEMB      47              0.0000000000
      5430        47  SAPC      H16X          -28.8447801046       13.8003684729       -2.2278642138  MEMB      47              0.0000000000
      5431        47  SAPC      H16Y          -29.1106198248       15.4583277649       -1.5525350101  MEMB      47              0.0000000000
      5432        47  SAPC      C317          -30.6071074180       13.8646266952       -0.8578214975  MEMB      47              0.0000000000
      5433        47  SAPC      H17X          -30.9605578121       14.5860317940       -0.0903774333  MEMB      47              0.0000000000
      5434        47  SAPC      H17Y          -30.5862718776       12.8964580946       -0.3132691095  MEMB      47              0.0000000000
      5435        47  SAPC      C318          -31.7235224029       13.7130666169       -1.8672002441  MEMB      47              0.0000000000
      5436        47  SAPC      H18X          -32.4540345464       13.0230433325       -1.3933424867  MEMB      47              0.0000000000
      5437        47  SAPC      H18Y          -31.3161924486       13.2328963118       -2.7825360214  MEMB      47              0.0000000000
      5438        47  SAPC      H18Z          -32.1418130865       14.6901526003       -2.1907064692  MEMB      47              0.0000000000
      5439        48  CHL1      C3            -22.6684834665       18.8477896505       17.3103650000  MEMB      48              0.0000000000
      5440        48  CHL1      H3            -23.6622664504       19.3443784338       17.2991950000  MEMB      48              0.0000000000
      5441        48  CHL1      O3            -22.4950169335       18.5778907495       18.6896350000  MEMB      48              0.0000000000
      5442        48  CHL1      H3'           -23.1358036986       19.1948287018       19.0507050000  MEMB      48              0.0000000000
      5443        48  CHL1      C4            -22.6561358971       17.5137000596       16.6811950000  MEMB      48              0.0000000000
      5444        48  CHL1      H4A           -21.6082114772       17.1657222430       16.8040250000  MEMB      48              0.0000000000
      5445        48  CHL1      H4B           -23.3714508240       16.8881204661       17.2567950000  MEMB      48              0.0000000000
      5446        48  CHL1      C5            -23.0206587644       17.6110967342       15.2197450000  MEMB      48              0.0000000000
      5447        48  CHL1      C6            -24.0726147383       16.9826828509       14.6463150000  MEMB      48              0.0000000000
      5448        48  CHL1      H6            -24.6982204387       16.2550126286       15.1839950000  MEMB      48              0.0000000000
      5449        48  CHL1      C7            -24.4018495414       17.0307330309       13.2031150000  MEMB      48              0.0000000000
      5450        48  CHL1      H7A           -24.4872416804       15.9884998691       12.8279250000  MEMB      48              0.0000000000
      5451        48  CHL1      H7B           -25.3784076752       17.4737486069       12.9126050000  MEMB      48              0.0000000000
      5452        48  CHL1      C8            -23.1758262498       17.6598700268       12.3332650000  MEMB      48              0.0000000000
      5453        48  CHL1      H8            -22.4537226317       16.8223953623       12.2259450000  MEMB      48              0.0000000000
      5454        48  CHL1      C14           -23.7409840318       18.0919612282       10.9813750000  MEMB      48              0.0000000000
      5455        48  CHL1      H14           -24.4974537299       18.8631543247       11.2408650000  MEMB      48              0.0000000000
      5456        48  CHL1      C15           -24.4096741874       17.0031806623       10.1808850000  MEMB      48              0.0000000000
      5457        48  CHL1      H15A          -23.9560748896       15.9990642465       10.3234150000  MEMB      48              0.0000000000
      5458        48  CHL1      H15B          -25.4640600465       16.8046071482       10.4692550000  MEMB      48              0.0000000000
      5459        48  CHL1      C16           -24.3940555786       17.6532639627        8.7493650000  MEMB      48              0.0000000000
      5460        48  CHL1      H16A          -24.0393406763       16.9509211223        7.9650150000  MEMB      48              0.0000000000
      5461        48  CHL1      H16B          -25.3690732004       18.1023330850        8.4629950000  MEMB      48              0.0000000000
      5462        48  CHL1      C17           -23.4486877730       18.8616966642        8.7070050000  MEMB      48              0.0000000000
      5463        48  CHL1      H17           -24.1732092372       19.6852149674        8.8836550000  MEMB      48              0.0000000000
      5464        48  CHL1      C13           -22.6605064983       18.7512126378       10.0362350000  MEMB      48              0.0000000000
      5465        48  CHL1      C18           -21.5575222086       17.6901915083        9.7889550000  MEMB      48              0.0000000000
      5466        48  CHL1      H18A          -20.9134433597       18.2200095705        9.0549350000  MEMB      48              0.0000000000
      5467        48  CHL1      H18B          -20.9194257395       17.4459152702       10.6650150000  MEMB      48              0.0000000000
      5468        48  CHL1      H18C          -21.9134378894       16.7534430247        9.3092150000  MEMB      48              0.0000000000
      5469        48  CHL1      C12           -22.2079022360       20.0533049663       10.7738150000  MEMB      48              0.0000000000
      5470        48  CHL1      H12A          -21.3692042456       20.5644953132       10.2545850000  MEMB      48              0.0000000000
      5471        48  CHL1      H12B          -23.1025167633       20.6851591887       10.9602250000  MEMB      48              0.0000000000
      5472        48  CHL1      C11           -21.6685561559       19.6894505998       12.1452550000  MEMB      48              0.0000000000
      5473        48  CHL1      H11A          -20.7956422318       19.0730692155       11.8412350000  MEMB      48              0.0000000000
      5474        48  CHL1      H11B          -21.2564033188       20.6062918897       12.6183750000  MEMB      48              0.0000000000
      5475        48  CHL1      C9            -22.6584541527       18.8575760167       13.0199350000  MEMB      48              0.0000000000
      5476        48  CHL1      H9            -23.5750896150       19.4733769739       13.1418950000  MEMB      48              0.0000000000
      5477        48  CHL1      C10           -22.1077094338       18.5918229833       14.4182350000  MEMB      48              0.0000000000
      5478        48  CHL1      C19           -20.6276970757       18.0205230805       14.2148150000  MEMB      48              0.0000000000
      5479        48  CHL1      H19A          -20.5929690977       17.0380283585       13.6973250000  MEMB      48              0.0000000000
      5480        48  CHL1      H19B          -19.9580707597       18.6076145494       13.5505550000  MEMB      48              0.0000000000
      5481        48  CHL1      H19C          -20.2402193110       17.8896591146       15.2478050000  MEMB      48              0.0000000000
      5482        48  CHL1      C1            -21.9609031232       19.9579358078       15.2116250000  MEMB      48              0.0000000000
      5483        48  CHL1      H1A           -21.1738320631       20.5948366843       14.7542550000  MEMB      48              0.0000000000
      5484        48  CHL1      H1B           -22.9372854608       20.4626339194       15.0495150000  MEMB      48              0.0000000000
      5485        48  CHL1      C2            -21.6466841888       19.8195107719       16.7198850000  MEMB      48              0.0000000000
      5486        48  CHL1      H2A           -21.8488451166       20.8056586881       17.1899550000  MEMB      48              0.0000000000
      5487        48  CHL1      H2B           -20.5618018574       19.6046376106       16.8255850000  MEMB      48              0.0000000000
      5488        48  CHL1      C20           -22.6392266383       19.0996997595        7.3930650000  MEMB      48              0.0000000000
      5489        48  CHL1      H20           -21.8312441912       18.3519131724        7.2437150000  MEMB      48              0.0000000000
      5490        48  CHL1      C21           -21.9469087710       20.4586611663        7.4563750000  MEMB      48              0.0000000000
      5491        48  CHL1      H21A          -21.0984491649       20.4876756692        8.1730350000  MEMB      48              0.0000000000
      5492        48  CHL1      H21B          -22.6180122165       21.3214330717        7.6553150000  MEMB      48              0.0000000000
      5493        48  CHL1      H21C          -21.4603935614       20.7428642215        6.4988450000  MEMB      48              0.0000000000
      5494        48  CHL1      C22           -23.5621595360       19.0725905207        6.2207150000  MEMB      48              0.0000000000
      5495        48  CHL1      H22A          -24.2779198747       18.2267233179        6.3014150000  MEMB      48              0.0000000000
      5496        48  CHL1      H22B          -24.0815013991       20.0238916660        5.9765550000  MEMB      48              0.0000000000
      5497        48  CHL1      C23           -22.7547259324       18.8041324406        4.9013450000  MEMB      48              0.0000000000
      5498        48  CHL1      H23A          -22.1134878033       19.7025761579        4.7751550000  MEMB      48              0.0000000000
      5499        48  CHL1      H23B          -22.0837582185       17.9469472764        5.1235150000  MEMB      48              0.0000000000
      5500        48  CHL1      C24           -23.6077238783       18.5570540506        3.6677150000  MEMB      48              0.0000000000
      5501        48  CHL1      H24A          -24.1463260113       17.5991220311        3.8307950000  MEMB      48              0.0000000000
      5502        48  CHL1      H24B          -24.3839408214       19.3500346025        3.6129350000  MEMB      48              0.0000000000
      5503        48  CHL1      C25           -22.7446894145       18.4922734922        2.3955450000  MEMB      48              0.0000000000
      5504        48  CHL1      H25           -21.8188204988       17.8994287572        2.5556050000  MEMB      48              0.0000000000
      5505        48  CHL1      C26           -23.4961966202       17.8551320712        1.1975650000  MEMB      48              0.0000000000
      5506        48  CHL1      H26A          -24.1877874753       17.0175286061        1.4308750000  MEMB      48              0.0000000000
      5507        48  CHL1      H26B          -24.1063568600       18.6621732976        0.7385350000  MEMB      48              0.0000000000
      5508        48  CHL1      H26C          -22.7120741464       17.5740383855        0.4624050000  MEMB      48              0.0000000000
      5509        48  CHL1      C27           -22.3951085541       19.8782120111        1.9133950000  MEMB      48              0.0000000000
      5510        48  CHL1      H27A          -23.3980841038       20.3353633093        1.7742250000  MEMB      48              0.0000000000
      5511        48  CHL1      H27B          -21.8710636594       20.5317582849        2.6431750000  MEMB      48              0.0000000000
      5512        48  CHL1      H27C          -21.8912079491       19.9686923363        0.9273850000  MEMB      48              0.0000000000
      5513        49  SAPE      N              20.2979293426      -21.2181230027       21.1354735776  MEMB      49              0.0000000000
      5514        49  SAPE      HN1            20.5170505213      -21.4406735878       22.1274700376  MEMB      49              0.0000000000
      5515        49  SAPE      HN2            20.6458032085      -20.2434777356       21.0322726374  MEMB      49              0.0000000000
      5516        49  SAPE      HN3            19.2630847291      -21.1703290138       21.0437544772  MEMB      49              0.0000000000
      5517        49  SAPE      C12            20.7816445930      -22.2621702929       20.1447932192  MEMB      49              0.0000000000
      5518        49  SAPE      H12A           21.8896065117      -22.1800917189       20.1427174322  MEMB      49              0.0000000000
      5519        49  SAPE      H12B           20.3220137237      -21.9573621478       19.1803490711  MEMB      49              0.0000000000
      5520        49  SAPE      C11            20.2471530836      -23.6712139658       20.5185849348  MEMB      49              0.0000000000
      5521        49  SAPE      H11A           20.7494404904      -23.9447974795       21.4710451756  MEMB      49              0.0000000000
      5522        49  SAPE      H11B           20.4727682713      -24.4991098634       19.8128886938  MEMB      49              0.0000000000
      5523        49  SAPE      P              17.7963670745      -23.7374452493       19.6518091839  MEMB      49              0.0000000000
      5524        49  SAPE      O13            16.3802452194      -23.9059192641       20.1101026992  MEMB      49              0.0000000000
      5525        49  SAPE      O14            18.1470458634      -22.6248397048       18.6910167662  MEMB      49              0.0000000000
      5526        49  SAPE      O12            18.8361103134      -23.6721200837       20.8245847979  MEMB      49              0.0000000000
      5527        49  SAPE      O11            18.1844517175      -25.0946588591       18.9236347834  MEMB      49              0.0000000000
      5528        49  SAPE      C1             17.6179681553      -26.3684345540       19.0670718755  MEMB      49              0.0000000000
      5529        49  SAPE      HA             18.2422801316      -27.0092202576       19.7258200421  MEMB      49              0.0000000000
      5530        49  SAPE      HB             16.5787224206      -26.3171700486       19.4565089614  MEMB      49              0.0000000000
      5531        49  SAPE      C2             17.6311363013      -27.0952895008       17.6947110578  MEMB      49              0.0000000000
      5532        49  SAPE      HS             17.6524980486      -28.1808557781       17.9301048426  MEMB      49              0.0000000000
      5533        49  SAPE      O21            18.7479743372      -26.6502640670       16.9483184238  MEMB      49              0.0000000000
      5534        49  SAPE      C21            19.0660496827      -27.4161964818       15.9083760527  MEMB      49              0.0000000000
      5535        49  SAPE      O22            18.4369877764      -28.4145497221       15.6147332598  MEMB      49              0.0000000000
      5536        49  SAPE      C22            20.3873214250      -26.9887448952       15.3506217273  MEMB      49              0.0000000000
      5537        49  SAPE      H2R            20.7604146699      -26.1385361204       15.9607590768  MEMB      49              0.0000000000
      5538        49  SAPE      H2S            21.0361421771      -27.8606496330       15.5811326850  MEMB      49              0.0000000000
      5539        49  SAPE      C3             16.2841727377      -26.7281202497       16.9672810278  MEMB      49              0.0000000000
      5540        49  SAPE      HX             15.4277079361      -27.1712200620       17.5190526871  MEMB      49              0.0000000000
      5541        49  SAPE      HY             16.2864389764      -27.0879936811       15.9161832312  MEMB      49              0.0000000000
      5542        49  SAPE      O31            16.3223534576      -25.3000153726       17.0017878212  MEMB      49              0.0000000000
      5543        49  SAPE      C31            15.4917653900      -24.6396498830       16.1843213630  MEMB      49              0.0000000000
      5544        49  SAPE      O32            14.6957899107      -25.1668535077       15.4414881871  MEMB      49              0.0000000000
      5545        49  SAPE      C32            15.9494745261      -23.2008926259       16.1212913762  MEMB      49              0.0000000000
      5546        49  SAPE      H2X            16.8187699529      -23.1928194337       15.4294959638  MEMB      49              0.0000000000
      5547        49  SAPE      H2Y            16.3560619136      -22.8692522163       17.1005883500  MEMB      49              0.0000000000
      5548        49  SAPE      C23            20.2657150464      -26.6837561308       13.8582622109  MEMB      49              0.0000000000
      5549        49  SAPE      H3R            19.8197700058      -27.4558804466       13.1954819749  MEMB      49              0.0000000000
      5550        49  SAPE      H3S            21.3178412576      -26.5846924025       13.5154245854  MEMB      49              0.0000000000
      5551        49  SAPE      C24            19.5369224592      -25.3851377529       13.6276983742  MEMB      49              0.0000000000
      5552        49  SAPE      H4R            19.9358892283      -24.9428789574       12.6898529357  MEMB      49              0.0000000000
      5553        49  SAPE      H4S            19.7810347010      -24.6708867541       14.4429133887  MEMB      49              0.0000000000
      5554        49  SAPE      C25            17.9727079531      -25.5486317635       13.5926018917  MEMB      49              0.0000000000
      5555        49  SAPE      H5R            17.5638935315      -25.8343110129       14.5730395200  MEMB      49              0.0000000000
      5556        49  SAPE      C26            17.3188100141      -25.5609783468       12.3748007640  MEMB      49              0.0000000000
      5557        49  SAPE      H6R            16.2252685386      -25.6735281222       12.4135190966  MEMB      49              0.0000000000
      5558        49  SAPE      C27            17.8528499086      -25.4075924714       10.9719010681  MEMB      49              0.0000000000
      5559        49  SAPE      H7R            18.7546364972      -26.0374387431       10.8157100067  MEMB      49              0.0000000000
      5560        49  SAPE      H7S            18.1802663087      -24.3475122930       10.9140271721  MEMB      49              0.0000000000
      5561        49  SAPE      C28            16.7949164859      -25.7220775589        9.9909559298  MEMB      49              0.0000000000
      5562        49  SAPE      H8R            15.8588462905      -25.1497750840       10.0699648860  MEMB      49              0.0000000000
      5563        49  SAPE      C29            16.9903415374      -26.4002698315        8.8219657763  MEMB      49              0.0000000000
      5564        49  SAPE      H9R            16.1080355053      -26.2984744239        8.1729867488  MEMB      49              0.0000000000
      5565        49  SAPE      C210           18.2627463086      -27.0817494137        8.2460179718  MEMB      49              0.0000000000
      5566        49  SAPE      H10R           17.8893016394      -27.9501926233        7.6623509173  MEMB      49              0.0000000000
      5567        49  SAPE      H10S           18.9487288113      -27.3563436120        9.0756841648  MEMB      49              0.0000000000
      5568        49  SAPE      C211           18.9925494696      -26.1758409099        7.2526053611  MEMB      49              0.0000000000
      5569        49  SAPE      H11R           19.5628790895      -25.3740387667        7.7443749635  MEMB      49              0.0000000000
      5570        49  SAPE      C212           19.0113556100      -26.4051663769        5.8709862434  MEMB      49              0.0000000000
      5571        49  SAPE      H12R           19.6498933038      -25.7385255506        5.2727723353  MEMB      49              0.0000000000
      5572        49  SAPE      C213           18.3972264053      -27.4737331367        5.0437671784  MEMB      49              0.0000000000
      5573        49  SAPE      H13R           18.1303239145      -27.0275041514        4.0619498632  MEMB      49              0.0000000000
      5574        49  SAPE      H13S           17.4169685307      -27.7052911484        5.5125914084  MEMB      49              0.0000000000
      5575        49  SAPE      C214           19.1847484691      -28.7124162546        4.8250325713  MEMB      49              0.0000000000
      5576        49  SAPE      H14R           19.8080415880      -29.0480754692        5.6669585710  MEMB      49              0.0000000000
      5577        49  SAPE      C215           19.4146683143      -29.3749539662        3.6904978867  MEMB      49              0.0000000000
      5578        49  SAPE      H15R           20.0089975725      -30.2965840106        3.7763528849  MEMB      49              0.0000000000
      5579        49  SAPE      C216           18.9730922601      -29.1391562302        2.2276027933  MEMB      49              0.0000000000
      5580        49  SAPE      H16R           18.2879616784      -28.2681060894        2.1489353793  MEMB      49              0.0000000000
      5581        49  SAPE      H16S           18.3945443649      -29.9599519052        1.7523155583  MEMB      49              0.0000000000
      5582        49  SAPE      C217           20.0375330142      -28.9671359741        1.1294863865  MEMB      49              0.0000000000
      5583        49  SAPE      H17R           19.6010241636      -28.7804324795        0.1250347912  MEMB      49              0.0000000000
      5584        49  SAPE      H17S           20.6139415181      -29.9169109847        1.1283847842  MEMB      49              0.0000000000
      5585        49  SAPE      C218           20.9562018395      -27.7185898192        1.2764472910  MEMB      49              0.0000000000
      5586        49  SAPE      H18R           21.5752040532      -27.5661315575        0.3665502665  MEMB      49              0.0000000000
      5587        49  SAPE      H18S           21.6390695892      -27.8417374377        2.1441162962  MEMB      49              0.0000000000
      5588        49  SAPE      C219           20.1528627961      -26.4502645000        1.4269880225  MEMB      49              0.0000000000
      5589        49  SAPE      H19R           19.8172396069      -26.3080610334        2.4764910950  MEMB      49              0.0000000000
      5590        49  SAPE      H19S           19.2146104068      -26.1281845474        0.9267201805  MEMB      49              0.0000000000
      5591        49  SAPE      C220           21.1577231737      -25.3391997007        1.0022063186  MEMB      49              0.0000000000
      5592        49  SAPE      H20R           20.6657675266      -24.4162409072        1.3769708750  MEMB      49              0.0000000000
      5593        49  SAPE      H20S           21.2527046018      -25.3369714359       -0.1047230637  MEMB      49              0.0000000000
      5594        49  SAPE      H20T           22.1871490329      -25.4799718384        1.3956360246  MEMB      49              0.0000000000
      5595        49  SAPE      C33            15.0500805624      -22.1467769979       15.5127650810  MEMB      49              0.0000000000
      5596        49  SAPE      H3X            15.5990487212      -21.2129885662       15.7597349934  MEMB      49              0.0000000000
      5597        49  SAPE      H3Y            14.0655873208      -22.1102204922       16.0263387442  MEMB      49              0.0000000000
      5598        49  SAPE      C34            14.7631859450      -22.2303465959       14.0060744241  MEMB      49              0.0000000000
      5599        49  SAPE      H4X            13.8622588944      -21.6064990937       13.8231378560  MEMB      49              0.0000000000
      5600        49  SAPE      H4Y            14.3868867166      -23.2063162849       13.6316371041  MEMB      49              0.0000000000
      5601        49  SAPE      C35            16.0547895407      -21.8646688246       13.1486652064  MEMB      49              0.0000000000
      5602        49  SAPE      H5X            16.8059494764      -22.6572904207       13.3531904978  MEMB      49              0.0000000000
      5603        49  SAPE      H5Y            16.3939638359      -20.8752019834       13.5231482114  MEMB      49              0.0000000000
      5604        49  SAPE      C36            15.6326935410      -21.7140327476       11.7417624067  MEMB      49              0.0000000000
      5605        49  SAPE      H6X            14.7727370509      -21.0227776651       11.6115237871  MEMB      49              0.0000000000
      5606        49  SAPE      H6Y            15.1716296791      -22.6514047580       11.3635106422  MEMB      49              0.0000000000
      5607        49  SAPE      C37            16.7987624858      -21.2168050912       10.7982956903  MEMB      49              0.0000000000
      5608        49  SAPE      H7X            17.7628312957      -21.6109480385       11.1850046977  MEMB      49              0.0000000000
      5609        49  SAPE      H7Y            16.7870876660      -20.1071001765       10.7459487569  MEMB      49              0.0000000000
      5610        49  SAPE      C38            16.5874584423      -21.7527527911        9.4020160113  MEMB      49              0.0000000000
      5611        49  SAPE      H8X            15.8482084221      -21.0540042730        8.9552712629  MEMB      49              0.0000000000
      5612        49  SAPE      H8Y            16.2687716965      -22.8083431262        9.5379890694  MEMB      49              0.0000000000
      5613        49  SAPE      C39            17.8145782171      -21.7055166841        8.4802652222  MEMB      49              0.0000000000
      5614        49  SAPE      H9X            18.7178398326      -22.1422463071        8.9574513562  MEMB      49              0.0000000000
      5615        49  SAPE      H9Y            18.1464289280      -20.6567385025        8.3245070228  MEMB      49              0.0000000000
      5616        49  SAPE      C310           17.5376363230      -22.4623150240        7.1396794332  MEMB      49              0.0000000000
      5617        49  SAPE      H10X           16.6177419101      -21.9876034122        6.7362385585  MEMB      49              0.0000000000
      5618        49  SAPE      H10Y           17.3341618677      -23.5361045003        7.3394176406  MEMB      49              0.0000000000
      5619        49  SAPE      C311           18.5981984856      -22.3321331224        5.9664017716  MEMB      49              0.0000000000
      5620        49  SAPE      H11X           19.3704620511      -23.0082443032        6.3916117251  MEMB      49              0.0000000000
      5621        49  SAPE      H11Y           18.8599406299      -21.2563765564        5.8738812166  MEMB      49              0.0000000000
      5622        49  SAPE      C312           18.0852838903      -22.8290026706        4.6175462937  MEMB      49              0.0000000000
      5623        49  SAPE      H12X           17.0114995738      -22.5823977683        4.4743873204  MEMB      49              0.0000000000
      5624        49  SAPE      H12Y           18.1080155409      -23.9397464737        4.6103056436  MEMB      49              0.0000000000
      5625        49  SAPE      C313           18.9598865229      -22.3387180763        3.4086060159  MEMB      49              0.0000000000
      5626        49  SAPE      H13X           20.0200262007      -22.5394044167        3.6734646289  MEMB      49              0.0000000000
      5627        49  SAPE      H13Y           18.8861329201      -21.2313120707        3.4589413450  MEMB      49              0.0000000000
      5628        49  SAPE      C314           18.5221758342      -22.7226049358        2.0242455093  MEMB      49              0.0000000000
      5629        49  SAPE      H14X           17.4446985268      -22.4897711005        1.8858541153  MEMB      49              0.0000000000
      5630        49  SAPE      H14Y           18.6525005531      -23.8048581666        1.8096177107  MEMB      49              0.0000000000
      5631        49  SAPE      C315           19.1604152473      -21.9805668956        0.8703330908  MEMB      49              0.0000000000
      5632        49  SAPE      H15X           20.2593436119      -22.0981477072        0.9837009728  MEMB      49              0.0000000000
      5633        49  SAPE      H15Y           18.9306333433      -20.9256613184        1.1324304362  MEMB      49              0.0000000000
      5634        49  SAPE      C316           18.5574589140      -22.1666591859       -0.4850947707  MEMB      49              0.0000000000
      5635        49  SAPE      H16X           18.8662061703      -23.1740103677       -0.8375708986  MEMB      49              0.0000000000
      5636        49  SAPE      H16Y           19.1302207445      -21.4766280478       -1.1409318156  MEMB      49              0.0000000000
      5637        49  SAPE      C317           16.9853040529      -21.9615262946       -0.6070953164  MEMB      49              0.0000000000
      5638        49  SAPE      H17X           16.7595193397      -21.0935929229        0.0486744497  MEMB      49              0.0000000000
      5639        49  SAPE      H17Y           16.5521649211      -22.8759502435       -0.1482477872  MEMB      49              0.0000000000
      5640        49  SAPE      C318           16.5422446118      -21.8820875601       -2.0923761719  MEMB      49              0.0000000000
      5641        49  SAPE      H18X           16.5773738808      -22.8853291663       -2.5683949845  MEMB      49              0.0000000000
      5642        49  SAPE      H18Y           17.0628752615      -21.1096273794       -2.6978254648  MEMB      49              0.0000000000
      5643        49  SAPE      H18Z           15.4978452261      -21.5060670130       -2.1388459389  MEMB      49              0.0000000000
      5644        50  OSM       N              23.2617645815       16.4171656163       21.9931028759  MEMB      50              0.0000000000
      5645        50  OSM       C15            21.7624461093       16.3513985083       21.8942862935  MEMB      50              0.0000000000
      5646        50  OSM       H15A           21.3225790215       15.3809587528       22.0708191888  MEMB      50              0.0000000000
      5647        50  OSM       H15B           21.5026888623       16.6421448035       20.8871156232  MEMB      50              0.0000000000
      5648        50  OSM       H15C           21.3560057802       17.0777757886       22.5824592580  MEMB      50              0.0000000000
      5649        50  OSM       C14            23.6982132757       17.8473593233       21.5627468609  MEMB      50              0.0000000000
      5650        50  OSM       H14A           23.2274094341       18.0680015211       20.6161419787  MEMB      50              0.0000000000
      5651        50  OSM       H14B           24.7763172046       17.8300535161       21.5011649083  MEMB      50              0.0000000000
      5652        50  OSM       H14C           23.3681334937       18.5763272249       22.2880421692  MEMB      50              0.0000000000
      5653        50  OSM       C13            23.6909851412       16.1919130864       23.4122367552  MEMB      50              0.0000000000
      5654        50  OSM       H13A           23.5095126683       15.1507740709       23.6347163333  MEMB      50              0.0000000000
      5655        50  OSM       H13B           23.2168589629       16.8912718846       24.0849191400  MEMB      50              0.0000000000
      5656        50  OSM       H13C           24.7633770175       16.2610919066       23.3045800220  MEMB      50              0.0000000000
      5657        50  OSM       C12            23.8780507819       15.4292257311       21.1170779744  MEMB      50              0.0000000000
      5658        50  OSM       H12A           23.6522299095       15.7139644181       20.1000583630  MEMB      50              0.0000000000
      5659        50  OSM       H12B           23.4367670322       14.4490858798       21.2219326656  MEMB      50              0.0000000000
      5660        50  OSM       C11            25.4307594906       15.1703112600       21.2344798881  MEMB      50              0.0000000000
      5661        50  OSM       H11A           25.8740651957       14.4602278653       20.5040124442  MEMB      50              0.0000000000
      5662        50  OSM       H11B           25.6658673288       14.7022209332       22.2142435290  MEMB      50              0.0000000000
      5663        50  OSM       P              26.7747744085       17.0841652941       19.9537636304  MEMB      50              0.0000000000
      5664        50  OSM       O13            27.0000494128       18.5183088933       20.2816913626  MEMB      50              0.0000000000
      5665        50  OSM       O14            27.8978721394       16.2045875152       19.4835779456  MEMB      50              0.0000000000
      5666        50  OSM       O11            25.5570117248       17.0653004566       18.8280399705  MEMB      50              0.0000000000
      5667        50  OSM       O12            26.0969624340       16.4882013160       21.2389964428  MEMB      50              0.0000000000
      5668        50  OSM       C1S            26.0108235779       17.4380328111       17.4730041720  MEMB      50              0.0000000000
      5669        50  OSM       H1S            27.1084799002       17.4092224770       17.3037658622  MEMB      50              0.0000000000
      5670        50  OSM       H1T            25.7101009277       18.4758732888       17.2145977819  MEMB      50              0.0000000000
      5671        50  OSM       NF             26.2086339195       16.5107004937       15.1418794665  MEMB      50              0.0000000000
      5672        50  OSM       HNF            25.7731657777       16.8963868489       14.3321741644  MEMB      50              0.0000000000
      5673        50  OSM       C2S            25.3793943526       16.6474218327       16.3405647849  MEMB      50              0.0000000000
      5674        50  OSM       H2S            25.1530027820       15.6439287392       16.7601709116  MEMB      50              0.0000000000
      5675        50  OSM       C3S            24.0062479614       17.3352880435       15.9085337240  MEMB      50              0.0000000000
      5676        50  OSM       H3S            24.2461637904       18.3343513916       15.4858825526  MEMB      50              0.0000000000
      5677        50  OSM       O3             23.0728450996       17.5593428325       17.0035217358  MEMB      50              0.0000000000
      5678        50  OSM       HO3            23.6782835364       17.5202822556       17.7475098262  MEMB      50              0.0000000000
      5679        50  OSM       C4S            23.5421216590       16.3876498726       14.8469224696  MEMB      50              0.0000000000
      5680        50  OSM       H4S            23.2999946868       15.3440465124       15.0964557937  MEMB      50              0.0000000000
      5681        50  OSM       C5S            23.3874550271       16.7206678622       13.5062919716  MEMB      50              0.0000000000
      5682        50  OSM       H5S            23.7827655811       17.6749581603       13.1280596172  MEMB      50              0.0000000000
      5683        50  OSM       C6S            22.8039901531       15.7358942131       12.5425714532  MEMB      50              0.0000000000
      5684        50  OSM       H6S            22.3420252495       14.8246552340       12.9790949723  MEMB      50              0.0000000000
      5685        50  OSM       H6T            23.5053004290       15.3126656127       11.7919964196  MEMB      50              0.0000000000
      5686        50  OSM       C7S            21.7628506898       16.4404370566       11.7323047619  MEMB      50              0.0000000000
      5687        50  OSM       H7S            21.0931442798       16.9455842832       12.4607549780  MEMB      50              0.0000000000
      5688        50  OSM       H7T            21.1818359851       15.6713399814       11.1798254553  MEMB      50              0.0000000000
      5689        50  OSM       C8S            22.3157296753       17.5775461349       10.7110092270  MEMB      50              0.0000000000
      5690        50  OSM       H8S            23.0180205509       18.2152539200       11.2893151076  MEMB      50              0.0000000000
      5691        50  OSM       H8T            21.4682336979       18.2623798443       10.4940435793  MEMB      50              0.0000000000
      5692        50  OSM       C9S            22.8808636899       16.9881115070        9.3554087397  MEMB      50              0.0000000000
      5693        50  OSM       H9S            22.0099547269       16.4741693662        8.8952978411  MEMB      50              0.0000000000
      5694        50  OSM       H9T            23.7460559358       16.3123602544        9.5260650876  MEMB      50              0.0000000000
      5695        50  OSM       C10S           23.3604423135       18.0438008435        8.3034917332  MEMB      50              0.0000000000
      5696        50  OSM       H10S           23.9709304794       18.6993639516        8.9606538065  MEMB      50              0.0000000000
      5697        50  OSM       H10T           22.5073732396       18.6068625726        7.8681118610  MEMB      50              0.0000000000
      5698        50  OSM       C11S           24.2638003547       17.5801844244        7.1418529935  MEMB      50              0.0000000000
      5699        50  OSM       H11S           23.5375963490       17.2545275606        6.3666784000  MEMB      50              0.0000000000
      5700        50  OSM       H11T           24.9143434467       16.7194519453        7.4069078036  MEMB      50              0.0000000000
      5701        50  OSM       C12S           24.9109111086       18.8406144513        6.4769961447  MEMB      50              0.0000000000
      5702        50  OSM       H12S           25.7335945052       19.1381037897        7.1618416713  MEMB      50              0.0000000000
      5703        50  OSM       H12T           24.1191210048       19.6169648686        6.5453321345  MEMB      50              0.0000000000
      5704        50  OSM       C13S           25.4967248998       18.6403808186        5.0892991101  MEMB      50              0.0000000000
      5705        50  OSM       H13S           24.6864470567       18.1538932908        4.5052609439  MEMB      50              0.0000000000
      5706        50  OSM       H13T           26.1496961276       17.7421332192        5.1224697842  MEMB      50              0.0000000000
      5707        50  OSM       C14S           26.3022064278       19.8777342339        4.6316895227  MEMB      50              0.0000000000
      5708        50  OSM       H14S           26.9721981544       19.9786573524        5.5121709752  MEMB      50              0.0000000000
      5709        50  OSM       H14T           25.6028949186       20.7131824980        4.4141783503  MEMB      50              0.0000000000
      5710        50  OSM       C15S           27.0441191152       19.6333720559        3.2366727473  MEMB      50              0.0000000000
      5711        50  OSM       H15S           27.7323629437       20.4799787763        3.0271510503  MEMB      50              0.0000000000
      5712        50  OSM       H15T           26.2970964549       19.7749579606        2.4265906358  MEMB      50              0.0000000000
      5713        50  OSM       C16S           27.9187525550       18.3498388286        3.0487337812  MEMB      50              0.0000000000
      5714        50  OSM       H16S           27.2814857701       17.4404394484        3.0834469515  MEMB      50              0.0000000000
      5715        50  OSM       H16T           28.6152248788       18.2250359881        3.9052793958  MEMB      50              0.0000000000
      5716        50  OSM       C17S           28.8689717820       18.4481789534        1.8635240669  MEMB      50              0.0000000000
      5717        50  OSM       H17S           29.4776355203       19.3559685091        2.0629410481  MEMB      50              0.0000000000
      5718        50  OSM       H17T           28.2486307279       18.4134693231        0.9424956996  MEMB      50              0.0000000000
      5719        50  OSM       C18S           29.8236519771       17.2203011853        1.8282228947  MEMB      50              0.0000000000
      5720        50  OSM       H18S           29.2422858854       16.2737711804        1.8078386684  MEMB      50              0.0000000000
      5721        50  OSM       H18T           30.2722829819       17.3786021552        2.8322112724  MEMB      50              0.0000000000
      5722        50  OSM       H18U           30.5620871738       17.3346458149        1.0060555319  MEMB      50              0.0000000000
      5723        50  OSM       C1F            27.4339710254       15.9418999073       14.9481566620  MEMB      50              0.0000000000
      5724        50  OSM       OF             28.0795678552       15.3690439262       15.8069874278  MEMB      50              0.0000000000
      5725        50  OSM       C2F            28.0398587591       16.1034513857       13.6023074016  MEMB      50              0.0000000000
      5726        50  OSM       H2F            28.8636259494       16.8469618743       13.6563509598  MEMB      50              0.0000000000
      5727        50  OSM       H2G            27.2478778593       16.4498273958       12.9043743318  MEMB      50              0.0000000000
      5728        50  OSM       C3F            28.6705036112       14.7764556883       13.1378220083  MEMB      50              0.0000000000
      5729        50  OSM       H3F            29.5495575148       14.4720285213       13.7452009264  MEMB      50              0.0000000000
      5730        50  OSM       H3G            28.9744468683       14.9118344325       12.0778159688  MEMB      50              0.0000000000
      5731        50  OSM       C4F            27.7552159131       13.5322941093       13.2141245818  MEMB      50              0.0000000000
      5732        50  OSM       H4F            27.5046020104       13.2495594290       14.2589095309  MEMB      50              0.0000000000
      5733        50  OSM       H4G            28.2940985127       12.6542045728       12.7983308472  MEMB      50              0.0000000000
      5734        50  OSM       C5F            26.3580934547       13.7597717099       12.5357079433  MEMB      50              0.0000000000
      5735        50  OSM       H5F            26.5473081543       14.2075362889       11.5366948126  MEMB      50              0.0000000000
      5736        50  OSM       H5G            25.9041979052       14.6078287064       13.0916741855  MEMB      50              0.0000000000
      5737        50  OSM       C6F            25.3202948771       12.5844757796       12.4951299999  MEMB      50              0.0000000000
      5738        50  OSM       H6F            24.4729374802       13.1380819082       12.0370614501  MEMB      50              0.0000000000
      5739        50  OSM       H6G            25.0685688038       12.2114032729       13.5108912515  MEMB      50              0.0000000000
      5740        50  OSM       C7F            25.8637636253       11.3455152322       11.7289328712  MEMB      50              0.0000000000
      5741        50  OSM       H7F            25.2729544092       10.4075173470       11.8025906252  MEMB      50              0.0000000000
      5742        50  OSM       H7G            26.8810145912       11.0164972257       12.0310395621  MEMB      50              0.0000000000
      5743        50  OSM       C8F            25.9257437297       11.4327300738       10.1590682881  MEMB      50              0.0000000000
      5744        50  OSM       H8F            25.9132042400       10.3725119078        9.8272532719  MEMB      50              0.0000000000
      5745        50  OSM       H8G            26.9102355519       11.8670265674        9.8825128183  MEMB      50              0.0000000000
      5746        50  OSM       C9F            24.8260571992       12.1361918067        9.4101420135  MEMB      50              0.0000000000
      5747        50  OSM       H9F            23.8414222872       11.6661854710        9.5501002323  MEMB      50              0.0000000000
      5748        50  OSM       C10F           24.8530668753       13.2632560877        8.7103337875  MEMB      50              0.0000000000
      5749        50  OSM       H10F           23.9149560482       13.6605509994        8.2954784430  MEMB      50              0.0000000000
      5750        50  OSM       C11F           26.0372774409       14.1318593123        8.4215636179  MEMB      50              0.0000000000
      5751        50  OSM       H11F           26.8827630484       13.8202463716        9.0714654225  MEMB      50              0.0000000000
      5752        50  OSM       H11G           25.9215284116       15.1938722576        8.7266063015  MEMB      50              0.0000000000
      5753        50  OSM       C12F           26.5313772379       13.8426263595        7.0357513819  MEMB      50              0.0000000000
      5754        50  OSM       H12F           26.8393193748       12.7781394554        6.9559990811  MEMB      50              0.0000000000
      5755        50  OSM       H12G           27.4481435430       14.4657869358        6.9613770240  MEMB      50              0.0000000000
      5756        50  OSM       C13F           25.6332955631       14.3341706623        5.8562952900  MEMB      50              0.0000000000
      5757        50  OSM       H13F           25.8309891386       15.3937530629        5.5869936876  MEMB      50              0.0000000000
      5758        50  OSM       H13G           24.5441270940       14.3020585028        6.0730943987  MEMB      50              0.0000000000
      5759        50  OSM       C14F           25.8541225001       13.4505611821        4.6193574367  MEMB      50              0.0000000000
      5760        50  OSM       H14F           25.7768642878       12.3686545128        4.8598352854  MEMB      50              0.0000000000
      5761        50  OSM       H14G           26.8757363963       13.6692350119        4.2414577491  MEMB      50              0.0000000000
      5762        50  OSM       C15F           24.8413476411       13.8395678499        3.4361654626  MEMB      50              0.0000000000
      5763        50  OSM       H15F           23.8820980808       13.3247983539        3.6579167310  MEMB      50              0.0000000000
      5764        50  OSM       H15G           25.1742736382       13.5007086537        2.4318483374  MEMB      50              0.0000000000
      5765        50  OSM       C16F           24.6556353768       15.3339708451        3.3531886144  MEMB      50              0.0000000000
      5766        50  OSM       H16F           25.5815051667       15.8916310195        3.0960882717  MEMB      50              0.0000000000
      5767        50  OSM       H16G           24.2909638071       15.7152632084        4.3309168989  MEMB      50              0.0000000000
      5768        50  OSM       C17F           23.5740284146       15.7128213089        2.3438555805  MEMB      50              0.0000000000
      5769        50  OSM       H17F           23.2429495174       16.7612836838        2.5033379859  MEMB      50              0.0000000000
      5770        50  OSM       H17G           22.7261099838       15.0643853189        2.6518916371  MEMB      50              0.0000000000
      5771        50  OSM       C18F           23.8007490498       15.6111582622        0.7817433034  MEMB      50              0.0000000000
      5772        50  OSM       H18F           23.0515781015       16.2286752241        0.2416158135  MEMB      50              0.0000000000
      5773        50  OSM       H18G           23.7754861262       14.5539055560        0.4413027183  MEMB      50              0.0000000000
      5774        50  OSM       H18H           24.7582652804       16.0316836496        0.4067200140  MEMB      50              0.0000000000
      5775        51  SLPC      N              28.9682138699       -4.3995589892       18.2142578188  MEMB      51              0.0000000000
      5776        51  SLPC      C13            29.3662142789       -5.2071050445       19.3887767640  MEMB      51              0.0000000000
      5777        51  SLPC      H13A           30.4121545716       -5.1843215039       19.6568992688  MEMB      51              0.0000000000
      5778        51  SLPC      H13B           28.7441895139       -5.0492554730       20.2574357866  MEMB      51              0.0000000000
      5779        51  SLPC      H13C           29.1516617329       -6.2325960781       19.1266023813  MEMB      51              0.0000000000
      5780        51  SLPC      C14            29.0504663082       -3.0076030632       18.7065342615  MEMB      51              0.0000000000
      5781        51  SLPC      H14A           28.5660535372       -2.3873585883       17.9669120968  MEMB      51              0.0000000000
      5782        51  SLPC      H14B           28.4269940037       -2.8888142505       19.5803599555  MEMB      51              0.0000000000
      5783        51  SLPC      H14C           30.0868550411       -2.7625790729       18.8861492225  MEMB      51              0.0000000000
      5784        51  SLPC      C15            27.5752181109       -4.8002514936       17.8755592331  MEMB      51              0.0000000000
      5785        51  SLPC      H15A           27.5988795734       -5.7367342131       17.3381205332  MEMB      51              0.0000000000
      5786        51  SLPC      H15B           27.0571885170       -4.9508154738       18.8111743647  MEMB      51              0.0000000000
      5787        51  SLPC      H15C           27.2115896404       -4.0179726579       17.2257792150  MEMB      51              0.0000000000
      5788        51  SLPC      C12            29.8589660771       -4.6204953631       16.9993347176  MEMB      51              0.0000000000
      5789        51  SLPC      H12A           29.3531593429       -4.1175970945       16.1883767085  MEMB      51              0.0000000000
      5790        51  SLPC      H12B           29.6602714146       -5.6544114363       16.7586313557  MEMB      51              0.0000000000
      5791        51  SLPC      C11            31.3868813789       -4.2723304731       16.9636059549  MEMB      51              0.0000000000
      5792        51  SLPC      H11A           31.8014855083       -4.7388647431       16.0444922183  MEMB      51              0.0000000000
      5793        51  SLPC      H11B           31.8688989997       -4.7684094096       17.8330228141  MEMB      51              0.0000000000
      5794        51  SLPC      P              31.2880445894       -1.8862940897       15.7651078756  MEMB      51              0.0000000000
      5795        51  SLPC      O13            30.2135140540       -0.9477247441       16.1177653624  MEMB      51              0.0000000000
      5796        51  SLPC      O14            32.5882397690       -1.3511147533       15.2706915348  MEMB      51              0.0000000000
      5797        51  SLPC      O12            31.6166234201       -2.8525227585       16.9864181833  MEMB      51              0.0000000000
      5798        51  SLPC      O11            30.7825103404       -2.9511419658       14.7119482718  MEMB      51              0.0000000000
      5799        51  SLPC      C1             29.6354340695       -2.7161405998       13.8152542393  MEMB      51              0.0000000000
      5800        51  SLPC      HA             28.8610267715       -2.0436964615       14.2423762411  MEMB      51              0.0000000000
      5801        51  SLPC      HB             30.0438715841       -2.2135881503       12.9125135813  MEMB      51              0.0000000000
      5802        51  SLPC      C2             28.9648782035       -4.0144372943       13.3907810292  MEMB      51              0.0000000000
      5803        51  SLPC      HS             28.6477565861       -4.6411715006       14.2515708665  MEMB      51              0.0000000000
      5804        51  SLPC      O21            29.8498211372       -4.8024168815       12.5805216517  MEMB      51              0.0000000000
      5805        51  SLPC      C21            30.4684312596       -5.8419269062       13.2091784313  MEMB      51              0.0000000000
      5806        51  SLPC      O22            30.2791865080       -6.1645891512       14.3356231918  MEMB      51              0.0000000000
      5807        51  SLPC      C22            31.4070104512       -6.5017347151       12.1333594740  MEMB      51              0.0000000000
      5808        51  SLPC      H2R            32.4650635469       -6.2677907496       12.3785427791  MEMB      51              0.0000000000
      5809        51  SLPC      H2S            31.2752779057       -7.6011977054       12.2236295271  MEMB      51              0.0000000000
      5810        51  SLPC      C3             27.6890741994       -3.7484354160       12.6166796640  MEMB      51              0.0000000000
      5811        51  SLPC      HX             26.9464883346       -3.0933298861       13.1203896966  MEMB      51              0.0000000000
      5812        51  SLPC      HY             27.1764214278       -4.6850117689       12.3095422267  MEMB      51              0.0000000000
      5813        51  SLPC      O31            28.0819032340       -3.1291498571       11.3826620766  MEMB      51              0.0000000000
      5814        51  SLPC      C31            27.1517274499       -2.4223886996       10.7706214958  MEMB      51              0.0000000000
      5815        51  SLPC      O32            25.9547348165       -2.5140372852       10.9833748454  MEMB      51              0.0000000000
      5816        51  SLPC      C32            27.8339348087       -1.6209457357        9.7453717001  MEMB      51              0.0000000000
      5817        51  SLPC      H2X            28.9245219136       -1.5532317315        9.9462584192  MEMB      51              0.0000000000
      5818        51  SLPC      H2Y            27.5208397961       -0.5549934372        9.7515688382  MEMB      51              0.0000000000
      5819        51  SLPC      C23            31.3079695362       -6.1886989581       10.6201834010  MEMB      51              0.0000000000
      5820        51  SLPC      H3R            30.2992985187       -6.5388862149       10.3131439726  MEMB      51              0.0000000000
      5821        51  SLPC      H3S            31.9844883342       -6.8938974584       10.0916586053  MEMB      51              0.0000000000
      5822        51  SLPC      C24            31.8084279277       -4.8372350576       10.0915738794  MEMB      51              0.0000000000
      5823        51  SLPC      H4R            32.4927135543       -4.3840262463       10.8403569112  MEMB      51              0.0000000000
      5824        51  SLPC      H4S            30.8868355093       -4.2221790810       10.1733940585  MEMB      51              0.0000000000
      5825        51  SLPC      C25            32.5289538006       -4.9426546389        8.7154689990  MEMB      51              0.0000000000
      5826        51  SLPC      H5R            31.8104783491       -5.2544293639        7.9274900351  MEMB      51              0.0000000000
      5827        51  SLPC      H5S            33.2941458921       -5.7418284895        8.6148537687  MEMB      51              0.0000000000
      5828        51  SLPC      C26            33.1534827269       -3.6313892845        8.2134299210  MEMB      51              0.0000000000
      5829        51  SLPC      H6R            34.0247238908       -3.2541871087        8.7904730923  MEMB      51              0.0000000000
      5830        51  SLPC      H6S            32.3971020998       -2.8208610002        8.2859078102  MEMB      51              0.0000000000
      5831        51  SLPC      C27            33.6520243270       -3.6911651189        6.7145592512  MEMB      51              0.0000000000
      5832        51  SLPC      H7R            32.8683035320       -4.1948152013        6.1092173322  MEMB      51              0.0000000000
      5833        51  SLPC      H7S            34.5086444727       -4.3948844798        6.6417438740  MEMB      51              0.0000000000
      5834        51  SLPC      C28            33.9243081111       -2.3424418653        6.0625778794  MEMB      51              0.0000000000
      5835        51  SLPC      H8R            34.6615101776       -1.7636657801        6.6591293282  MEMB      51              0.0000000000
      5836        51  SLPC      H8S            32.9821583882       -1.8088931926        6.3115772493  MEMB      51              0.0000000000
      5837        51  SLPC      C29            34.2551409589       -2.1845392197        4.6131928561  MEMB      51              0.0000000000
      5838        51  SLPC      H9R            35.0941661246       -2.7613986727        4.1969348975  MEMB      51              0.0000000000
      5839        51  SLPC      C210           33.6935048908       -1.4951203200        3.6768371736  MEMB      51              0.0000000000
      5840        51  SLPC      H10R           34.2278456168       -1.2075737907        2.7593422433  MEMB      51              0.0000000000
      5841        51  SLPC      C211           32.5760521323       -0.5651916454        3.8797260976  MEMB      51              0.0000000000
      5842        51  SLPC      H11R           32.5885898259       -0.0450173542        4.8613480478  MEMB      51              0.0000000000
      5843        51  SLPC      H11S           31.6668712482       -1.1813126826        4.0473744280  MEMB      51              0.0000000000
      5844        51  SLPC      C212           32.2530651315        0.5221049455        2.8702173526  MEMB      51              0.0000000000
      5845        51  SLPC      H12R           32.8080320757        1.4631968969        2.9981157266  MEMB      51              0.0000000000
      5846        51  SLPC      C213           31.4718984304        0.4546468112        1.7538780965  MEMB      51              0.0000000000
      5847        51  SLPC      H13R           31.2929857110        1.4059459268        1.2313646218  MEMB      51              0.0000000000
      5848        51  SLPC      C214           30.7114715151       -0.7790448372        1.2626703850  MEMB      51              0.0000000000
      5849        51  SLPC      H14R           30.8169224527       -1.6765387863        1.9089723878  MEMB      51              0.0000000000
      5850        51  SLPC      H14S           30.9620856366       -1.0117186148        0.2056106243  MEMB      51              0.0000000000
      5851        51  SLPC      C215           29.1589542106       -0.5618350317        1.3469282890  MEMB      51              0.0000000000
      5852        51  SLPC      H15R           28.9664054603        0.3892220137        0.8058765752  MEMB      51              0.0000000000
      5853        51  SLPC      H15S           28.7383301829       -0.4900813917        2.3727200151  MEMB      51              0.0000000000
      5854        51  SLPC      C216           28.3367299973       -1.7323367377        0.7471783706  MEMB      51              0.0000000000
      5855        51  SLPC      H16R           28.7281210479       -2.6960906685        1.1374502068  MEMB      51              0.0000000000
      5856        51  SLPC      H16S           28.7045974612       -1.6462376559       -0.2976095016  MEMB      51              0.0000000000
      5857        51  SLPC      C217           26.8616154255       -1.7142864262        0.9465800592  MEMB      51              0.0000000000
      5858        51  SLPC      H17R           26.6545894963       -1.7277902712        2.0380367792  MEMB      51              0.0000000000
      5859        51  SLPC      H17S           26.4887634307       -2.6371141638        0.4529284770  MEMB      51              0.0000000000
      5860        51  SLPC      C218           26.1870785558       -0.4778356238        0.3219626711  MEMB      51              0.0000000000
      5861        51  SLPC      H18R           25.0978368932       -0.5211140208        0.5364408480  MEMB      51              0.0000000000
      5862        51  SLPC      H18S           26.3354879250       -0.4672146719       -0.7790281000  MEMB      51              0.0000000000
      5863        51  SLPC      H18T           26.7036517218        0.4556797758        0.6318377018  MEMB      51              0.0000000000
      5864        51  SLPC      C33            27.5281005487       -2.1430880226        8.3346494587  MEMB      51              0.0000000000
      5865        51  SLPC      H3X            26.4935249222       -1.9224276435        7.9951169072  MEMB      51              0.0000000000
      5866        51  SLPC      H3Y            27.6771789546       -3.2430865555        8.3804752057  MEMB      51              0.0000000000
      5867        51  SLPC      C34            28.3513960664       -1.4742444284        7.2248636592  MEMB      51              0.0000000000
      5868        51  SLPC      H4X            29.3754844490       -1.8998055488        7.2916592798  MEMB      51              0.0000000000
      5869        51  SLPC      H4Y            28.4806373779       -0.4359165372        7.5983509480  MEMB      51              0.0000000000
      5870        51  SLPC      C35            27.7290909047       -1.6737239713        5.8607317839  MEMB      51              0.0000000000
      5871        51  SLPC      H5X            28.2544317922       -0.9765314007        5.1735201095  MEMB      51              0.0000000000
      5872        51  SLPC      H5Y            26.6587286868       -1.4041329324        5.9870895649  MEMB      51              0.0000000000
      5873        51  SLPC      C36            27.8927304861       -3.1151536900        5.3626956827  MEMB      51              0.0000000000
      5874        51  SLPC      H6X            27.1548576615       -3.3887166816        4.5784586621  MEMB      51              0.0000000000
      5875        51  SLPC      H6Y            27.7104578395       -3.8374246659        6.1869666844  MEMB      51              0.0000000000
      5876        51  SLPC      C37            29.1380574785       -3.3127836258        4.5963828232  MEMB      51              0.0000000000
      5877        51  SLPC      H7X            29.9229978309       -2.9565183408        5.2972852287  MEMB      51              0.0000000000
      5878        51  SLPC      H7Y            29.2355928561       -2.6315485683        3.7241867983  MEMB      51              0.0000000000
      5879        51  SLPC      C38            29.6723635173       -4.7663542206        4.3398680517  MEMB      51              0.0000000000
      5880        51  SLPC      H8X            29.6813398073       -5.3273853147        5.2987655636  MEMB      51              0.0000000000
      5881        51  SLPC      H8Y            30.7066755274       -4.6753635673        3.9445959336  MEMB      51              0.0000000000
      5882        51  SLPC      C39            28.8044495286       -5.4205270037        3.3128587394  MEMB      51              0.0000000000
      5883        51  SLPC      H9X            28.8115282510       -4.7570701414        2.4217374582  MEMB      51              0.0000000000
      5884        51  SLPC      H9Y            27.7248154641       -5.4150780892        3.5749303371  MEMB      51              0.0000000000
      5885        51  SLPC      C310           29.2810067957       -6.8007230923        2.7051575382  MEMB      51              0.0000000000
      5886        51  SLPC      H10X           29.0458737973       -7.6086475438        3.4306170614  MEMB      51              0.0000000000
      5887        51  SLPC      H10Y           30.3907779698       -6.7947026509        2.6532655166  MEMB      51              0.0000000000
      5888        51  SLPC      C311           28.7702040759       -7.1757700318        1.2979397514  MEMB      51              0.0000000000
      5889        51  SLPC      H11X           27.6607065256       -7.2028724143        1.3489464826  MEMB      51              0.0000000000
      5890        51  SLPC      H11Y           29.2004251317       -8.1509251572        0.9844056369  MEMB      51              0.0000000000
      5891        51  SLPC      C312           29.2270865076       -6.2144854537        0.1936243878  MEMB      51              0.0000000000
      5892        51  SLPC      H12X           28.7722763806       -5.2382132027        0.4663169401  MEMB      51              0.0000000000
      5893        51  SLPC      H12Y           28.8223883937       -6.6236216031       -0.7567149244  MEMB      51              0.0000000000
      5894        51  SLPC      C313           30.7075325817       -6.1363705948       -0.0016876152  MEMB      51              0.0000000000
      5895        51  SLPC      H13X           30.9579682195       -7.2078572248       -0.1550495056  MEMB      51              0.0000000000
      5896        51  SLPC      H13Y           31.2279151768       -5.7011863637        0.8781626303  MEMB      51              0.0000000000
      5897        51  SLPC      C314           31.2486404063       -5.5265295157       -1.3442208300  MEMB      51              0.0000000000
      5898        51  SLPC      H14X           30.8045100467       -6.2043982653       -2.1041967938  MEMB      51              0.0000000000
      5899        51  SLPC      H14Y           32.3261618927       -5.7778965593       -1.4446367477  MEMB      51              0.0000000000
      5900        51  SLPC      C315           31.0561534108       -3.9885447074       -1.5929573804  MEMB      51              0.0000000000
      5901        51  SLPC      H15X           31.8347125176       -3.3065651207       -1.1891369775  MEMB      51              0.0000000000
      5902        51  SLPC      H15Y           30.2171173267       -3.5753337363       -0.9932942632  MEMB      51              0.0000000000
      5903        51  SLPC      C316           30.9496130727       -3.5476092938       -3.0526561763  MEMB      51              0.0000000000
      5904        51  SLPC      H16X           31.7749952534       -3.8553176051       -3.7296930473  MEMB      51              0.0000000000
      5905        51  SLPC      H16Y           30.9251125954       -2.4369778476       -3.0378714426  MEMB      51              0.0000000000
      5906        51  SLPC      C317           29.5766922680       -3.9725080268       -3.6222043123  MEMB      51              0.0000000000
      5907        51  SLPC      H17X           29.6368461865       -5.0779310053       -3.7157068295  MEMB      51              0.0000000000
      5908        51  SLPC      H17Y           29.5595792387       -3.5563040745       -4.6521567356  MEMB      51              0.0000000000
      5909        51  SLPC      C318           28.3030620179       -3.5198685510       -2.8954283802  MEMB      51              0.0000000000
      5910        51  SLPC      H18X           27.5615911999       -3.3377221274       -3.7024993111  MEMB      51              0.0000000000
      5911        51  SLPC      H18Y           28.3630145194       -2.5345336754       -2.3856802793  MEMB      51              0.0000000000
      5912        51  SLPC      H18Z           28.1029528333       -4.2862680796       -2.1163848707  MEMB      51              0.0000000000
      5913        52  CHL1      C3            -26.1067322277      -16.0987220272       17.2722350000  MEMB      52              0.0000000000
      5914        52  CHL1      H3            -25.0691012277      -16.2849734827       16.9215850000  MEMB      52              0.0000000000
      5915        52  CHL1      O3            -26.0837301723      -16.1692523728       18.7277650000  MEMB      52              0.0000000000
      5916        52  CHL1      H3'           -25.3077110266      -15.6487062971       18.9478250000  MEMB      52              0.0000000000
      5917        52  CHL1      C4            -26.5648094043      -14.6376419877       16.9025950000  MEMB      52              0.0000000000
      5918        52  CHL1      H4A           -27.5918512818      -14.5225360990       17.3103350000  MEMB      52              0.0000000000
      5919        52  CHL1      H4B           -25.9595109869      -13.8782677960       17.4423050000  MEMB      52              0.0000000000
      5920        52  CHL1      C5            -26.6185633752      -14.4427896079       15.4423050000  MEMB      52              0.0000000000
      5921        52  CHL1      C6            -26.0233915268      -13.3304911508       14.9530850000  MEMB      52              0.0000000000
      5922        52  CHL1      H6            -25.4183395279      -12.7202410638       15.6397550000  MEMB      52              0.0000000000
      5923        52  CHL1      C7            -25.9859000939      -13.0251079297       13.5022450000  MEMB      52              0.0000000000
      5924        52  CHL1      H7A           -26.2121481761      -11.9783449701       13.2065950000  MEMB      52              0.0000000000
      5925        52  CHL1      H7B           -25.0293633572      -13.3130002971       13.0159550000  MEMB      52              0.0000000000
      5926        52  CHL1      C8            -27.2354798883      -13.7849819565       12.7428950000  MEMB      52              0.0000000000
      5927        52  CHL1      H8            -28.1588966644      -13.2724867470       13.0878250000  MEMB      52              0.0000000000
      5928        52  CHL1      C14           -26.9557976920      -13.6812477904       11.2208150000  MEMB      52              0.0000000000
      5929        52  CHL1      H14           -25.9742335729      -14.1989574901       11.1675850000  MEMB      52              0.0000000000
      5930        52  CHL1      C15           -26.7653847585      -12.2873988625       10.6489650000  MEMB      52              0.0000000000
      5931        52  CHL1      H15A          -27.4459400041      -11.6366044371       11.2385650000  MEMB      52              0.0000000000
      5932        52  CHL1      H15B          -25.7500749246      -11.8513857077       10.7645350000  MEMB      52              0.0000000000
      5933        52  CHL1      C16           -27.2370704938      -12.3758124564        9.1890350000  MEMB      52              0.0000000000
      5934        52  CHL1      H16A          -28.2061307035      -11.8733200249        8.9822650000  MEMB      52              0.0000000000
      5935        52  CHL1      H16B          -26.4512933189      -12.0336520510        8.4820550000  MEMB      52              0.0000000000
      5936        52  CHL1      C17           -27.4652765840      -13.9190895389        8.9062950000  MEMB      52              0.0000000000
      5937        52  CHL1      H17           -26.4774604980      -14.3314533179        8.6087850000  MEMB      52              0.0000000000
      5938        52  CHL1      C13           -27.9516421309      -14.3706392728       10.2695850000  MEMB      52              0.0000000000
      5939        52  CHL1      C18           -29.3664683736      -13.8808948562       10.5622350000  MEMB      52              0.0000000000
      5940        52  CHL1      H18A          -29.5824535081      -13.9393190707       11.6504650000  MEMB      52              0.0000000000
      5941        52  CHL1      H18B          -29.4663911822      -12.7945146762       10.3521650000  MEMB      52              0.0000000000
      5942        52  CHL1      H18C          -30.1363347013      -14.4412976733        9.9898950000  MEMB      52              0.0000000000
      5943        52  CHL1      C12           -27.9396213189      -15.8466077496       10.6372650000  MEMB      52              0.0000000000
      5944        52  CHL1      H12A          -28.6794491689      -16.4203204259       10.0390650000  MEMB      52              0.0000000000
      5945        52  CHL1      H12B          -27.0370633741      -16.3792375477       10.2684650000  MEMB      52              0.0000000000
      5946        52  CHL1      C11           -28.1440310934      -16.1327234790       12.1399850000  MEMB      52              0.0000000000
      5947        52  CHL1      H11A          -29.2310979831      -15.9794211754       12.3105650000  MEMB      52              0.0000000000
      5948        52  CHL1      H11B          -28.0341665343      -17.2235098476       12.3200950000  MEMB      52              0.0000000000
      5949        52  CHL1      C9            -27.2594098905      -15.2566912470       13.0890350000  MEMB      52              0.0000000000
      5950        52  CHL1      H9            -26.2253950440      -15.6589973658       13.0317150000  MEMB      52              0.0000000000
      5951        52  CHL1      C10           -27.5147178391      -15.4129447291       14.6265350000  MEMB      52              0.0000000000
      5952        52  CHL1      C19           -29.0398158104      -15.1997116051       14.9512150000  MEMB      52              0.0000000000
      5953        52  CHL1      H19A          -29.5175522306      -16.1090562397       14.5279250000  MEMB      52              0.0000000000
      5954        52  CHL1      H19B          -29.3000293273      -15.3100723481       16.0256650000  MEMB      52              0.0000000000
      5955        52  CHL1      H19C          -29.5287672118      -14.2717009249       14.5850850000  MEMB      52              0.0000000000
      5956        52  CHL1      C1            -27.0563067649      -16.8900358340       15.0268350000  MEMB      52              0.0000000000
      5957        52  CHL1      H1A           -27.6481983115      -17.6672645576       14.4977750000  MEMB      52              0.0000000000
      5958        52  CHL1      H1B           -25.9943820435      -17.0366780191       14.7350650000  MEMB      52              0.0000000000
      5959        52  CHL1      C2            -27.0742502134      -17.1404999846       16.5628150000  MEMB      52              0.0000000000
      5960        52  CHL1      H2A           -26.6820265330      -18.1705345914       16.7024650000  MEMB      52              0.0000000000
      5961        52  CHL1      H2B           -28.0737689391      -17.0693308655       17.0426350000  MEMB      52              0.0000000000
      5962        52  CHL1      C20           -28.4413105510      -14.2241429870        7.7634150000  MEMB      52              0.0000000000
      5963        52  CHL1      H20           -29.3720723863      -13.7436233824        8.1336950000  MEMB      52              0.0000000000
      5964        52  CHL1      C21           -28.8549679069      -15.6545533405        7.5158250000  MEMB      52              0.0000000000
      5965        52  CHL1      H21A          -29.6726449408      -15.9896923571        8.1891850000  MEMB      52              0.0000000000
      5966        52  CHL1      H21B          -27.9339645584      -16.2385883142        7.7279150000  MEMB      52              0.0000000000
      5967        52  CHL1      H21C          -29.0856555289      -15.8001827782        6.4388350000  MEMB      52              0.0000000000
      5968        52  CHL1      C22           -27.9583114585      -13.4853655916        6.4993350000  MEMB      52              0.0000000000
      5969        52  CHL1      H22A          -27.6517096715      -12.4539401446        6.7758750000  MEMB      52              0.0000000000
      5970        52  CHL1      H22B          -27.1031186715      -13.9983269803        6.0095950000  MEMB      52              0.0000000000
      5971        52  CHL1      C23           -29.0944128444      -13.2739939228        5.3828850000  MEMB      52              0.0000000000
      5972        52  CHL1      H23A          -29.3276157090      -14.2601094913        4.9273450000  MEMB      52              0.0000000000
      5973        52  CHL1      H23B          -29.9542349086      -12.7842739173        5.8880650000  MEMB      52              0.0000000000
      5974        52  CHL1      C24           -28.8241997340      -12.3500694670        4.2230150000  MEMB      52              0.0000000000
      5975        52  CHL1      H24A          -28.4586425905      -11.3438797892        4.5201350000  MEMB      52              0.0000000000
      5976        52  CHL1      H24B          -28.1193903225      -12.7722358070        3.4751150000  MEMB      52              0.0000000000
      5977        52  CHL1      C25           -30.0927479015      -12.0788594725        3.2710050000  MEMB      52              0.0000000000
      5978        52  CHL1      H25           -30.9068915095      -11.7774132024        3.9642750000  MEMB      52              0.0000000000
      5979        52  CHL1      C26           -29.9327360753      -10.9760329761        2.2326350000  MEMB      52              0.0000000000
      5980        52  CHL1      H26A          -29.6699906874      -10.0248241306        2.7430150000  MEMB      52              0.0000000000
      5981        52  CHL1      H26B          -28.9918755403      -11.2424044048        1.7052350000  MEMB      52              0.0000000000
      5982        52  CHL1      H26C          -30.8401047703      -10.9218527782        1.5938250000  MEMB      52              0.0000000000
      5983        52  CHL1      C27           -30.6305285159      -13.3024252669        2.5224950000  MEMB      52              0.0000000000
      5984        52  CHL1      H27A          -31.6983996243      -13.1751429419        2.2436250000  MEMB      52              0.0000000000
      5985        52  CHL1      H27B          -30.0183993478      -13.4228082591        1.6031850000  MEMB      52              0.0000000000
      5986        52  CHL1      H27C          -30.4849560426      -14.2346604626        3.1090650000  MEMB      52              0.0000000000
      5987        53  SAPC      N              27.8666157747        8.4050450313       19.7360962894  MEMB      53              0.0000000000
      5988        53  SAPC      C12            28.1348724173        9.7248187624       19.1888507936  MEMB      53              0.0000000000
      5989        53  SAPC      H12A           27.8411075235       10.5157712432       19.8630142351  MEMB      53              0.0000000000
      5990        53  SAPC      H12B           27.4655107684        9.8227024289       18.3469638283  MEMB      53              0.0000000000
      5991        53  SAPC      C13            26.3519065102        8.2752194854       19.8718910800  MEMB      53              0.0000000000
      5992        53  SAPC      H13A           25.9522887437        8.1969339222       18.8716025589  MEMB      53              0.0000000000
      5993        53  SAPC      H13B           26.0928075565        7.3326704633       20.3310960202  MEMB      53              0.0000000000
      5994        53  SAPC      H13C           25.9144717566        9.1485705086       20.3326608777  MEMB      53              0.0000000000
      5995        53  SAPC      C14            28.3493423434        7.4062113043       18.7212237349  MEMB      53              0.0000000000
      5996        53  SAPC      H14A           27.9013142741        7.6238890050       17.7629506415  MEMB      53              0.0000000000
      5997        53  SAPC      H14B           29.3916779021        7.5941417089       18.5099924706  MEMB      53              0.0000000000
      5998        53  SAPC      H14C           28.0926444214        6.3913277563       18.9867752797  MEMB      53              0.0000000000
      5999        53  SAPC      C15            28.5523285027        8.1092309274       21.0360568755  MEMB      53              0.0000000000
      6000        53  SAPC      H15A           29.5135405866        8.6007139741       21.0057942575  MEMB      53              0.0000000000
      6001        53  SAPC      H15B           27.9548293626        8.6053740358       21.7865478461  MEMB      53              0.0000000000
      6002        53  SAPC      H15C           28.7483651692        7.0522005206       21.1392874922  MEMB      53              0.0000000000
      6003        53  SAPC      C11            29.6047707598       10.0563593752       18.7094899251  MEMB      53              0.0000000000
      6004        53  SAPC      H11A           29.5116848031       11.0278448171       18.1785738191  MEMB      53              0.0000000000
      6005        53  SAPC      H11B           29.9260945258        9.2499111470       18.0161550204  MEMB      53              0.0000000000
      6006        53  SAPC      P              30.8811600194       11.3486119582       20.6455783961  MEMB      53              0.0000000000
      6007        53  SAPC      O13            29.8133498403       11.5655216496       21.6178094227  MEMB      53              0.0000000000
      6008        53  SAPC      O14            32.2475576818       11.3154126548       21.1312288658  MEMB      53              0.0000000000
      6009        53  SAPC      O12            30.6157750936       10.0575517070       19.7279507645  MEMB      53              0.0000000000
      6010        53  SAPC      O11            30.7354161485       12.4515067205       19.6138238240  MEMB      53              0.0000000000
      6011        53  SAPC      C1             31.4148893521       13.7377588795       19.8328552158  MEMB      53              0.0000000000
      6012        53  SAPC      HA             30.7822788597       14.3283606008       20.5295003148  MEMB      53              0.0000000000
      6013        53  SAPC      HB             32.3630980193       13.7259385646       20.4117176908  MEMB      53              0.0000000000
      6014        53  SAPC      C2             31.3748210639       14.5577413760       18.5131987584  MEMB      53              0.0000000000
      6015        53  SAPC      HS             31.4710822312       15.6498887687       18.6928358441  MEMB      53              0.0000000000
      6016        53  SAPC      O21            30.2937386775       14.0583520767       17.6892504997  MEMB      53              0.0000000000
      6017        53  SAPC      C21            29.8275808151       14.9635853318       16.9169348112  MEMB      53              0.0000000000
      6018        53  SAPC      O22            30.2318797168       16.0838188815       16.8108222531  MEMB      53              0.0000000000
      6019        53  SAPC      C22            28.7640304432       14.3358571113       16.0303507500  MEMB      53              0.0000000000
      6020        53  SAPC      H2R            28.6391417243       13.2439177520       16.1928070806  MEMB      53              0.0000000000
      6021        53  SAPC      H2S            27.8356910808       14.8400236084       16.3743328401  MEMB      53              0.0000000000
      6022        53  SAPC      C3             32.7205296668       14.3141918283       17.7790805314  MEMB      53              0.0000000000
      6023        53  SAPC      HX             33.4514193223       14.6628995680       18.5396881578  MEMB      53              0.0000000000
      6024        53  SAPC      HY             32.8373434472       14.8205465339       16.7971028709  MEMB      53              0.0000000000
      6025        53  SAPC      O31            33.0081094313       12.9347697591       17.5743149589  MEMB      53              0.0000000000
      6026        53  SAPC      C31            32.3220454577       12.3358172371       16.5185319832  MEMB      53              0.0000000000
      6027        53  SAPC      O32            31.7436955524       12.9205130205       15.6494243707  MEMB      53              0.0000000000
      6028        53  SAPC      C32            32.4947297931       10.8592081476       16.5927166551  MEMB      53              0.0000000000
      6029        53  SAPC      H2X            32.1446496330       10.4827446564       17.5776227652  MEMB      53              0.0000000000
      6030        53  SAPC      H2Y            33.5243549609       10.5462683707       16.3165606606  MEMB      53              0.0000000000
      6031        53  SAPC      C23            29.0302732094       14.5871807361       14.5257170944  MEMB      53              0.0000000000
      6032        53  SAPC      H3R            30.1086215018       14.8039318014       14.3691762056  MEMB      53              0.0000000000
      6033        53  SAPC      H3S            28.5912889807       15.5891554736       14.3316548375  MEMB      53              0.0000000000
      6034        53  SAPC      C24            28.6303906191       13.4424846489       13.6136231861  MEMB      53              0.0000000000
      6035        53  SAPC      H4R            27.6155261985       13.1699740186       13.9743298231  MEMB      53              0.0000000000
      6036        53  SAPC      H4S            29.3332116073       12.6157168212       13.8519896759  MEMB      53              0.0000000000
      6037        53  SAPC      C25            28.5838010141       13.5326331701       12.0753933077  MEMB      53              0.0000000000
      6038        53  SAPC      H5R            27.5965614879       13.2678076375       11.6689137984  MEMB      53              0.0000000000
      6039        53  SAPC      C26            29.6629071445       13.6663496765       11.3047150219  MEMB      53              0.0000000000
      6040        53  SAPC      H6R            29.5802983838       13.8163842580       10.2181311416  MEMB      53              0.0000000000
      6041        53  SAPC      C27            31.1242514498       13.6851545548       11.8284741767  MEMB      53              0.0000000000
      6042        53  SAPC      H7R            31.5043834196       12.6475758950       11.7133602621  MEMB      53              0.0000000000
      6043        53  SAPC      H7S            31.2935726767       13.8829668164       12.9085302005  MEMB      53              0.0000000000
      6044        53  SAPC      C28            31.9480241436       14.6841268450       11.0573394866  MEMB      53              0.0000000000
      6045        53  SAPC      H8R            32.1892238543       15.6207055128       11.5814031514  MEMB      53              0.0000000000
      6046        53  SAPC      C29            32.3614647278       14.5127694384        9.7953149795  MEMB      53              0.0000000000
      6047        53  SAPC      H9R            33.0269911322       15.3210937164        9.4581405732  MEMB      53              0.0000000000
      6048        53  SAPC      C210           32.2008536473       13.3328157170        8.9139372924  MEMB      53              0.0000000000
      6049        53  SAPC      H10R           31.6251463583       12.5145296892        9.3969391994  MEMB      53              0.0000000000
      6050        53  SAPC      H10S           33.1634788455       12.7793027124        8.8779205344  MEMB      53              0.0000000000
      6051        53  SAPC      C211           31.7513409756       13.6473196542        7.5062195401  MEMB      53              0.0000000000
      6052        53  SAPC      H11R           30.7409690598       14.0802376908        7.5478206362  MEMB      53              0.0000000000
      6053        53  SAPC      C212           32.4272523344       13.3343403677        6.3658946463  MEMB      53              0.0000000000
      6054        53  SAPC      H12R           31.9674100013       13.8085479649        5.4863086199  MEMB      53              0.0000000000
      6055        53  SAPC      C213           33.7309011788       12.6867607125        6.0395570786  MEMB      53              0.0000000000
      6056        53  SAPC      H13R           34.5662563055       12.9479580537        6.7238662635  MEMB      53              0.0000000000
      6057        53  SAPC      H13S           34.0767442875       13.0543240741        5.0498042516  MEMB      53              0.0000000000
      6058        53  SAPC      C214           33.4958625376       11.1580492298        6.1366543320  MEMB      53              0.0000000000
      6059        53  SAPC      H14R           33.2341937770       10.7185316098        7.1104890880  MEMB      53              0.0000000000
      6060        53  SAPC      C215           33.6656998921       10.3011765777        5.1610384635  MEMB      53              0.0000000000
      6061        53  SAPC      H15R           33.5464574691        9.2230916875        5.3441092073  MEMB      53              0.0000000000
      6062        53  SAPC      C216           34.0624589458       10.6312259436        3.6961416589  MEMB      53              0.0000000000
      6063        53  SAPC      H16R           34.9687993739       10.0538001509        3.4142777386  MEMB      53              0.0000000000
      6064        53  SAPC      H16S           34.5139850899       11.6293412834        3.5111805441  MEMB      53              0.0000000000
      6065        53  SAPC      C217           33.0152604419       10.4929341487        2.6464692212  MEMB      53              0.0000000000
      6066        53  SAPC      H17R           33.4258177190       10.7519159260        1.6471240399  MEMB      53              0.0000000000
      6067        53  SAPC      H17S           32.1894053057       11.1993811965        2.8771578267  MEMB      53              0.0000000000
      6068        53  SAPC      C218           32.4832446395        8.9798322784        2.6438128172  MEMB      53              0.0000000000
      6069        53  SAPC      H18R           32.3451242371        8.6769319489        3.7037631925  MEMB      53              0.0000000000
      6070        53  SAPC      H18S           33.3017077457        8.4081187454        2.1563882237  MEMB      53              0.0000000000
      6071        53  SAPC      C219           31.1804332644        8.8169077480        1.7749403975  MEMB      53              0.0000000000
      6072        53  SAPC      H19R           30.8010702308        7.7728332025        1.7925937322  MEMB      53              0.0000000000
      6073        53  SAPC      H19S           31.4992430748        9.0086512317        0.7280799591  MEMB      53              0.0000000000
      6074        53  SAPC      C220           29.9663817106        9.7750475228        1.9056728790  MEMB      53              0.0000000000
      6075        53  SAPC      H20R           29.2565165215        9.5547932994        2.7314469661  MEMB      53              0.0000000000
      6076        53  SAPC      H20S           29.4108718494        9.9168420240        0.9540305261  MEMB      53              0.0000000000
      6077        53  SAPC      H20T           30.3057168646       10.8301045841        1.9833049201  MEMB      53              0.0000000000
      6078        53  SAPC      C33            31.6076760708       10.2186297352       15.4814071567  MEMB      53              0.0000000000
      6079        53  SAPC      H3X            30.5772520458       10.6318455305       15.4389794771  MEMB      53              0.0000000000
      6080        53  SAPC      H3Y            31.3761570928        9.1436006029       15.6396228924  MEMB      53              0.0000000000
      6081        53  SAPC      C34            32.3009653204       10.3189518136       14.0724549415  MEMB      53              0.0000000000
      6082        53  SAPC      H4X            33.3526946895        9.9838167582       14.1984348599  MEMB      53              0.0000000000
      6083        53  SAPC      H4Y            32.2459543885       11.3970573529       13.8098079596  MEMB      53              0.0000000000
      6084        53  SAPC      C35            31.5879673572        9.4468567416       13.0523677334  MEMB      53              0.0000000000
      6085        53  SAPC      H5X            30.5437675126        9.8252244796       13.0239836470  MEMB      53              0.0000000000
      6086        53  SAPC      H5Y            31.6685168624        8.4686588496       13.5729077936  MEMB      53              0.0000000000
      6087        53  SAPC      C36            32.1859166171        9.3851253784       11.6795501605  MEMB      53              0.0000000000
      6088        53  SAPC      H6X            33.2600642477        9.1606356336       11.8531367995  MEMB      53              0.0000000000
      6089        53  SAPC      H6Y            32.1424988798       10.3932619049       11.2146878375  MEMB      53              0.0000000000
      6090        53  SAPC      C37            31.4988930201        8.4824865763       10.7361812897  MEMB      53              0.0000000000
      6091        53  SAPC      H7X            31.5511549385        7.4861914809       11.2250425222  MEMB      53              0.0000000000
      6092        53  SAPC      H7Y            32.0376208531        8.4057659724        9.7675698616  MEMB      53              0.0000000000
      6093        53  SAPC      C38            30.0348475485        8.8456365488       10.3544391560  MEMB      53              0.0000000000
      6094        53  SAPC      H8X            29.4201097692        8.9636085221       11.2723179816  MEMB      53              0.0000000000
      6095        53  SAPC      H8Y            29.6262091947        8.0205814906        9.7326517025  MEMB      53              0.0000000000
      6096        53  SAPC      C39            30.0358522612       10.1991395104        9.6189031780  MEMB      53              0.0000000000
      6097        53  SAPC      H9X            31.0815069129       10.3786708421        9.2892116121  MEMB      53              0.0000000000
      6098        53  SAPC      H9Y            29.7222167466       10.9749505372       10.3497043438  MEMB      53              0.0000000000
      6099        53  SAPC      C310           29.0967785703       10.1507930017        8.4042816961  MEMB      53              0.0000000000
      6100        53  SAPC      H10X           28.0605074292       10.1172099962        8.8034505621  MEMB      53              0.0000000000
      6101        53  SAPC      H10Y           29.0935282396        9.1693482007        7.8836316347  MEMB      53              0.0000000000
      6102        53  SAPC      C311           29.2449393702       11.3534798503        7.4546956697  MEMB      53              0.0000000000
      6103        53  SAPC      H11X           30.3287709114       11.3118533146        7.2140758035  MEMB      53              0.0000000000
      6104        53  SAPC      H11Y           29.0544553832       12.3536536005        7.8993181351  MEMB      53              0.0000000000
      6105        53  SAPC      C312           28.4633447304       11.2056288626        6.1049320095  MEMB      53              0.0000000000
      6106        53  SAPC      H12X           27.3834968870       11.4610547123        6.1597706013  MEMB      53              0.0000000000
      6107        53  SAPC      H12Y           28.6154184448       10.1927448566        5.6745128254  MEMB      53              0.0000000000
      6108        53  SAPC      C313           29.0221222828       12.1079525921        4.9794717929  MEMB      53              0.0000000000
      6109        53  SAPC      H13X           28.5919745514       11.8750538486        3.9819489538  MEMB      53              0.0000000000
      6110        53  SAPC      H13Y           30.1328107164       12.0854651102        4.9931329423  MEMB      53              0.0000000000
      6111        53  SAPC      C314           28.5321200192       13.4602913503        5.1985143800  MEMB      53              0.0000000000
      6112        53  SAPC      H14X           28.7644406201       13.8999780368        6.1920050280  MEMB      53              0.0000000000
      6113        53  SAPC      H14Y           27.4241924545       13.3963478298        5.2507526051  MEMB      53              0.0000000000
      6114        53  SAPC      C315           29.0853969294       14.5653858073        4.1335390509  MEMB      53              0.0000000000
      6115        53  SAPC      H15X           28.9060704979       14.1231983089        3.1302278700  MEMB      53              0.0000000000
      6116        53  SAPC      H15Y           30.1761165096       14.4823122148        4.3278335608  MEMB      53              0.0000000000
      6117        53  SAPC      C316           28.4194310264       15.9155162044        4.3544324548  MEMB      53              0.0000000000
      6118        53  SAPC      H16X           28.7848602667       16.3541613045        5.3075188250  MEMB      53              0.0000000000
      6119        53  SAPC      H16Y           27.3301712798       15.7128623066        4.4366903323  MEMB      53              0.0000000000
      6120        53  SAPC      C317           28.8438885754       16.8976094407        3.2110090915  MEMB      53              0.0000000000
      6121        53  SAPC      H17X           28.3863939222       17.8890045890        3.4163267278  MEMB      53              0.0000000000
      6122        53  SAPC      H17Y           28.4756263001       16.5538106787        2.2208045448  MEMB      53              0.0000000000
      6123        53  SAPC      C318           30.3147238089       17.2981321380        3.1173342216  MEMB      53              0.0000000000
      6124        53  SAPC      H18X           30.6642264910       17.5801109701        4.1335318695  MEMB      53              0.0000000000
      6125        53  SAPC      H18Y           30.3469239050       18.0851831661        2.3338579986  MEMB      53              0.0000000000
      6126        53  SAPC      H18Z           30.9509806373       16.4637682058        2.7521831703  MEMB      53              0.0000000000
      6127        54  SAPS      N              10.0212543178       30.2387873962       21.2276352042  MEMB      54              0.0000000000
      6128        54  SAPS      HN1            10.4296435478       31.1701486937       21.4453150051  MEMB      54              0.0000000000
      6129        54  SAPS      HN2            10.4356742746       29.5407917630       21.8777570439  MEMB      54              0.0000000000
      6130        54  SAPS      HN3            10.3212159275       29.9724535596       20.2681096834  MEMB      54              0.0000000000
      6131        54  SAPS      C12             8.6056288869       30.4994982180       21.3700473608  MEMB      54              0.0000000000
      6132        54  SAPS      H12A            8.2238871458       29.8875106849       22.1738785161  MEMB      54              0.0000000000
      6133        54  SAPS      C13             8.2520974659       32.0066370246       21.7551764032  MEMB      54              0.0000000000
      6134        54  SAPS      O13A            9.1281923469       32.6861439191       22.3221009053  MEMB      54              0.0000000000
      6135        54  SAPS      O13B            7.0035264581       32.2768807468       21.7462281754  MEMB      54              0.0000000000
      6136        54  SAPS      C11             7.7836010490       30.1329788826       20.1204157012  MEMB      54              0.0000000000
      6137        54  SAPS      H11A            7.9414920883       30.8377288862       19.2761889087  MEMB      54              0.0000000000
      6138        54  SAPS      H11B            6.6982409534       30.2597052272       20.3210520878  MEMB      54              0.0000000000
      6139        54  SAPS      P               7.6210296162       28.2629682809       18.2887821486  MEMB      54              0.0000000000
      6140        54  SAPS      O13             7.2402162439       26.8327808625       18.2108240232  MEMB      54              0.0000000000
      6141        54  SAPS      O14             6.7003631818       29.2552004181       17.6716150548  MEMB      54              0.0000000000
      6142        54  SAPS      O12             7.9710423440       28.7366243070       19.7565900809  MEMB      54              0.0000000000
      6143        54  SAPS      O11             9.0251334349       28.3604665438       17.5305849709  MEMB      54              0.0000000000
      6144        54  SAPS      C1             10.2292115526       28.8281951957       18.0906237161  MEMB      54              0.0000000000
      6145        54  SAPS      HA             10.0482362471       29.6667737672       18.7965663394  MEMB      54              0.0000000000
      6146        54  SAPS      HB             10.6338803282       27.9561929857       18.6475585867  MEMB      54              0.0000000000
      6147        54  SAPS      C2             11.1401667261       29.3323248823       16.8596665483  MEMB      54              0.0000000000
      6148        54  SAPS      HS             11.9440841471       29.9521284868       17.3111986263  MEMB      54              0.0000000000
      6149        54  SAPS      O21            10.3666487678       30.1565455069       15.9428769974  MEMB      54              0.0000000000
      6150        54  SAPS      C21             9.8592922781       31.2816398659       16.4009341859  MEMB      54              0.0000000000
      6151        54  SAPS      O22            10.1196938294       31.8585547615       17.3867099737  MEMB      54              0.0000000000
      6152        54  SAPS      C22             8.8256588910       31.7244696059       15.3486910413  MEMB      54              0.0000000000
      6153        54  SAPS      H2R             9.3095688352       32.0209665158       14.3935773770  MEMB      54              0.0000000000
      6154        54  SAPS      H2S             8.0573024050       30.9732038999       15.0666464863  MEMB      54              0.0000000000
      6155        54  SAPS      C3             11.7246725266       28.1207570746       16.1173449531  MEMB      54              0.0000000000
      6156        54  SAPS      HX             12.3754060731       27.6049790120       16.8554775461  MEMB      54              0.0000000000
      6157        54  SAPS      HY             12.3918356684       28.4691383343       15.3001268551  MEMB      54              0.0000000000
      6158        54  SAPS      O31            10.7094566552       27.1675399728       15.7511190145  MEMB      54              0.0000000000
      6159        54  SAPS      C31            10.3154294189       27.2960925041       14.4422200931  MEMB      54              0.0000000000
      6160        54  SAPS      O32            10.8763571986       27.9588842674       13.5472832383  MEMB      54              0.0000000000
      6161        54  SAPS      C32             9.0764603619       26.4364106462       14.1761333204  MEMB      54              0.0000000000
      6162        54  SAPS      H2X             8.3625702273       26.3911907426       15.0262138499  MEMB      54              0.0000000000
      6163        54  SAPS      H2Y             9.3200105045       25.3791492235       13.9369636231  MEMB      54              0.0000000000
      6164        54  SAPS      C23             7.9734101684       32.8433629307       15.9788224395  MEMB      54              0.0000000000
      6165        54  SAPS      H3R             8.6632511211       33.7136461189       15.9464530041  MEMB      54              0.0000000000
      6166        54  SAPS      H3S             7.6654449988       32.6789303418       17.0335454809  MEMB      54              0.0000000000
      6167        54  SAPS      C24             6.6792678692       33.2713865265       15.1389193319  MEMB      54              0.0000000000
      6168        54  SAPS      H4R             6.8752950542       33.1447807831       14.0527029161  MEMB      54              0.0000000000
      6169        54  SAPS      H4S             6.4243367524       34.3383493173       15.3147650559  MEMB      54              0.0000000000
      6170        54  SAPS      C25             5.5420751340       32.3733632342       15.4982820311  MEMB      54              0.0000000000
      6171        54  SAPS      H5R             5.2035788937       32.5579421685       16.5285011379  MEMB      54              0.0000000000
      6172        54  SAPS      C26             4.8086976786       31.5161209119       14.6598418773  MEMB      54              0.0000000000
      6173        54  SAPS      H6R             3.9814431189       30.9114212307       15.0598268306  MEMB      54              0.0000000000
      6174        54  SAPS      C27             5.1129287517       31.2142210608       13.2079886478  MEMB      54              0.0000000000
      6175        54  SAPS      H7R             4.9390207790       32.1492136163       12.6336490415  MEMB      54              0.0000000000
      6176        54  SAPS      H7S             4.2594995604       30.6117101772       12.8298880862  MEMB      54              0.0000000000
      6177        54  SAPS      C28             6.3854144598       30.3913059787       13.0340668811  MEMB      54              0.0000000000
      6178        54  SAPS      H8R             6.5395867324       29.5979409684       13.7802591222  MEMB      54              0.0000000000
      6179        54  SAPS      C29             7.2992871066       30.6722985059       12.0779575745  MEMB      54              0.0000000000
      6180        54  SAPS      H9R             8.1884652481       30.0295377858       11.9990843027  MEMB      54              0.0000000000
      6181        54  SAPS      C210            7.2796177985       31.7651378195       11.0325372626  MEMB      54              0.0000000000
      6182        54  SAPS      H10R            6.3997868390       32.4258261728       11.1865158312  MEMB      54              0.0000000000
      6183        54  SAPS      H10S            7.1331914382       31.3068492604       10.0311118225  MEMB      54              0.0000000000
      6184        54  SAPS      C211            8.5474767432       32.5509544181       11.1442561370  MEMB      54              0.0000000000
      6185        54  SAPS      H11R            8.8767475684       32.9061629753       12.1318836075  MEMB      54              0.0000000000
      6186        54  SAPS      C212            9.3906087755       32.8907208000       10.1857183598  MEMB      54              0.0000000000
      6187        54  SAPS      H12R           10.3633753589       33.2598737705       10.5427214642  MEMB      54              0.0000000000
      6188        54  SAPS      C213            9.2523273397       32.5676936650        8.6820157481  MEMB      54              0.0000000000
      6189        54  SAPS      H13R            8.2001175873       32.4694277685        8.3392053172  MEMB      54              0.0000000000
      6190        54  SAPS      H13S            9.6209752892       31.5294511555        8.5389341883  MEMB      54              0.0000000000
      6191        54  SAPS      C214            9.9902796176       33.4977948647        7.7739900955  MEMB      54              0.0000000000
      6192        54  SAPS      H14R            9.8129783493       34.5681536050        7.9553638916  MEMB      54              0.0000000000
      6193        54  SAPS      C215           10.8545116110       33.1102785567        6.8179866482  MEMB      54              0.0000000000
      6194        54  SAPS      H15R           11.2582168416       33.8766273494        6.1399520232  MEMB      54              0.0000000000
      6195        54  SAPS      C216           11.2897790056       31.7604142101        6.4170671224  MEMB      54              0.0000000000
      6196        54  SAPS      H16R           11.0710726949       31.1062897475        7.2880500834  MEMB      54              0.0000000000
      6197        54  SAPS      H16S           12.3797698566       31.7821053115        6.2031264259  MEMB      54              0.0000000000
      6198        54  SAPS      C217           10.6100933407       30.9743788501        5.2469572487  MEMB      54              0.0000000000
      6199        54  SAPS      H17R            9.5007434135       31.0234277305        5.2824225589  MEMB      54              0.0000000000
      6200        54  SAPS      H17S           10.9159291023       29.9129391475        5.3658339809  MEMB      54              0.0000000000
      6201        54  SAPS      C218           10.9866664919       31.3681981991        3.8236186101  MEMB      54              0.0000000000
      6202        54  SAPS      H18R           10.4207894439       30.6910027411        3.1487039022  MEMB      54              0.0000000000
      6203        54  SAPS      H18S           12.0825964320       31.1968166247        3.7612710347  MEMB      54              0.0000000000
      6204        54  SAPS      C219           10.6031369480       32.6899895767        3.2328927024  MEMB      54              0.0000000000
      6205        54  SAPS      H19R           10.7945872087       33.5134903502        3.9536658312  MEMB      54              0.0000000000
      6206        54  SAPS      H19S            9.4983581858       32.7081838248        3.1169006398  MEMB      54              0.0000000000
      6207        54  SAPS      C220           11.2867591020       33.1037005787        1.8878161374  MEMB      54              0.0000000000
      6208        54  SAPS      H20R           12.3912036319       32.9862736250        1.8607183995  MEMB      54              0.0000000000
      6209        54  SAPS      H20S           10.9146025726       34.1451756396        1.7822210986  MEMB      54              0.0000000000
      6210        54  SAPS      H20T           10.8914533512       32.4717855461        1.0639600447  MEMB      54              0.0000000000
      6211        54  SAPS      C33             8.2459831306       26.9897829466       12.9142592067  MEMB      54              0.0000000000
      6212        54  SAPS      H3X             8.8147342622       26.8123235082       11.9765216060  MEMB      54              0.0000000000
      6213        54  SAPS      H3Y             8.1791893425       28.0776670670       13.1295913126  MEMB      54              0.0000000000
      6214        54  SAPS      C34             6.9144602931       26.2032063081       12.6557738683  MEMB      54              0.0000000000
      6215        54  SAPS      H4X             6.6111310856       25.9801578099       13.7010305264  MEMB      54              0.0000000000
      6216        54  SAPS      H4Y             7.0794174101       25.2135533634       12.1785975529  MEMB      54              0.0000000000
      6217        54  SAPS      C35             5.8885351150       26.9245112935       11.9203134583  MEMB      54              0.0000000000
      6218        54  SAPS      H5X             5.5098540478       27.8412835544       12.4207635095  MEMB      54              0.0000000000
      6219        54  SAPS      H5Y             5.0398479427       26.2083550519       11.8860833534  MEMB      54              0.0000000000
      6220        54  SAPS      C36             6.2017042001       27.3492125929       10.4677015690  MEMB      54              0.0000000000
      6221        54  SAPS      H6X             6.4748553832       26.4107960839        9.9394173194  MEMB      54              0.0000000000
      6222        54  SAPS      H6Y             7.1256242318       27.9650136033       10.4292045664  MEMB      54              0.0000000000
      6223        54  SAPS      C37             5.1765190329       28.1802171570        9.8446688967  MEMB      54              0.0000000000
      6224        54  SAPS      H7X             5.2509803136       29.1752475954       10.3332287814  MEMB      54              0.0000000000
      6225        54  SAPS      H7Y             4.1459447485       27.7747234971        9.9330607524  MEMB      54              0.0000000000
      6226        54  SAPS      C38             5.4923493088       28.4019222895        8.3331314215  MEMB      54              0.0000000000
      6227        54  SAPS      H8X             5.1650455558       27.5315359480        7.7251672843  MEMB      54              0.0000000000
      6228        54  SAPS      H8Y             6.5728441346       28.6237901994        8.2003665221  MEMB      54              0.0000000000
      6229        54  SAPS      C39             4.5888231802       29.5999663176        7.8224783047  MEMB      54              0.0000000000
      6230        54  SAPS      H9X             4.8810778989       30.4315557703        8.4987676433  MEMB      54              0.0000000000
      6231        54  SAPS      H9Y             3.5069831712       29.4575822006        8.0314514513  MEMB      54              0.0000000000
      6232        54  SAPS      C310            4.8640551435       29.9755068507        6.3451873475  MEMB      54              0.0000000000
      6233        54  SAPS      H10X            4.0722991204       30.6380458535        5.9347182190  MEMB      54              0.0000000000
      6234        54  SAPS      H10Y            4.7257730728       28.9951387968        5.8411263147  MEMB      54              0.0000000000
      6235        54  SAPS      C311            6.2701297760       30.5880641089        6.1493687154  MEMB      54              0.0000000000
      6236        54  SAPS      H11X            6.8809182906       29.6825080788        5.9463249675  MEMB      54              0.0000000000
      6237        54  SAPS      H11Y            6.6669244403       31.0593145863        7.0739215202  MEMB      54              0.0000000000
      6238        54  SAPS      C312            6.4213037752       31.2544274637        4.7818783430  MEMB      54              0.0000000000
      6239        54  SAPS      H12X            7.4002427492       31.0642229393        4.2921623107  MEMB      54              0.0000000000
      6240        54  SAPS      H12Y            6.2731869683       32.3516180152        4.8743741645  MEMB      54              0.0000000000
      6241        54  SAPS      C313            5.4967399870       30.7534816534        3.6307673120  MEMB      54              0.0000000000
      6242        54  SAPS      H13X            5.6601501433       31.5449922557        2.8684485463  MEMB      54              0.0000000000
      6243        54  SAPS      H13Y            4.4213648438       30.9164201822        3.8573512714  MEMB      54              0.0000000000
      6244        54  SAPS      C314            5.7857892399       29.3716941230        2.9426886955  MEMB      54              0.0000000000
      6245        54  SAPS      H14X            5.3424578462       28.6017437119        3.6097379501  MEMB      54              0.0000000000
      6246        54  SAPS      H14Y            6.8904215692       29.2910124879        2.8555150072  MEMB      54              0.0000000000
      6247        54  SAPS      C315            5.1920410988       29.2944919395        1.4985036402  MEMB      54              0.0000000000
      6248        54  SAPS      H15X            4.1583632992       29.6965498101        1.4338461511  MEMB      54              0.0000000000
      6249        54  SAPS      H15Y            5.1208378928       28.2336606938        1.1761863670  MEMB      54              0.0000000000
      6250        54  SAPS      C316            6.0801995583       29.9946129070        0.4457145053  MEMB      54              0.0000000000
      6251        54  SAPS      H16X            7.0669703224       29.4980569436        0.3272394921  MEMB      54              0.0000000000
      6252        54  SAPS      H16Y            6.3566796623       31.0009722367        0.8266612300  MEMB      54              0.0000000000
      6253        54  SAPS      C317            5.4476522170       30.1865048921       -0.9605642877  MEMB      54              0.0000000000
      6254        54  SAPS      H17X            4.4885930673       30.7152898390       -0.7737127214  MEMB      54              0.0000000000
      6255        54  SAPS      H17Y            5.2501279239       29.1447608695       -1.2923393667  MEMB      54              0.0000000000
      6256        54  SAPS      C318            6.3139125819       30.9888968332       -1.9150083232  MEMB      54              0.0000000000
      6257        54  SAPS      H18X            6.5678644903       32.0068156313       -1.5493990184  MEMB      54              0.0000000000
      6258        54  SAPS      H18Y            5.9090720468       31.0239315052       -2.9490286731  MEMB      54              0.0000000000
      6259        54  SAPS      H18Z            7.3198595141       30.5378001668       -2.0524984917  MEMB      54              0.0000000000
      6260        55  SLPC      N             -28.9180365953        4.1350120712       15.8405041983  MEMB      55              0.0000000000
      6261        55  SLPC      C13           -28.7987839512        2.7517636949       16.4174011873  MEMB      55              0.0000000000
      6262        55  SLPC      H13A          -29.1246669001        2.0172571433       15.6958054584  MEMB      55              0.0000000000
      6263        55  SLPC      H13B          -27.7425126064        2.6154503737       16.5965929396  MEMB      55              0.0000000000
      6264        55  SLPC      H13C          -29.4495929236        2.6006685021       17.2659399356  MEMB      55              0.0000000000
      6265        55  SLPC      C14           -27.9148269428        4.2525733081       14.6631119099  MEMB      55              0.0000000000
      6266        55  SLPC      H14A          -26.9337296483        3.9310171995       14.9800507985  MEMB      55              0.0000000000
      6267        55  SLPC      H14B          -28.3090375759        3.6885308283       13.8307334289  MEMB      55              0.0000000000
      6268        55  SLPC      H14C          -27.8978400832        5.2599296686       14.2740817376  MEMB      55              0.0000000000
      6269        55  SLPC      C15           -28.6577797643        5.2623048905       16.8288277181  MEMB      55              0.0000000000
      6270        55  SLPC      H15A          -27.7842818836        5.1448286568       17.4530079077  MEMB      55              0.0000000000
      6271        55  SLPC      H15B          -28.4479874797        6.0754043868       16.1496691324  MEMB      55              0.0000000000
      6272        55  SLPC      H15C          -29.5457950007        5.4516600776       17.4136127222  MEMB      55              0.0000000000
      6273        55  SLPC      C12           -30.3178495259        4.2477453410       15.2233605372  MEMB      55              0.0000000000
      6274        55  SLPC      H12A          -30.3706161840        3.4616905844       14.4846226813  MEMB      55              0.0000000000
      6275        55  SLPC      H12B          -30.3874126499        5.2256422434       14.7702835964  MEMB      55              0.0000000000
      6276        55  SLPC      C11           -31.5075444168        3.9395486946       16.1682730657  MEMB      55              0.0000000000
      6277        55  SLPC      H11A          -31.4535276029        2.8719657205       16.4710432402  MEMB      55              0.0000000000
      6278        55  SLPC      H11B          -32.4418158275        4.0992238150       15.5886509095  MEMB      55              0.0000000000
      6279        55  SLPC      P             -32.5114814975        4.7325345199       18.4804448238  MEMB      55              0.0000000000
      6280        55  SLPC      O13           -31.7403430636        4.2020160688       19.6326668911  MEMB      55              0.0000000000
      6281        55  SLPC      O14           -33.2584846121        6.0237634826       18.6632755752  MEMB      55              0.0000000000
      6282        55  SLPC      O12           -31.5539225815        4.8567780369       17.1819546062  MEMB      55              0.0000000000
      6283        55  SLPC      O11           -33.5471271266        3.6646265343       17.9001795038  MEMB      55              0.0000000000
      6284        55  SLPC      C1            -34.5201180722        3.1410120327       18.7701513276  MEMB      55              0.0000000000
      6285        55  SLPC      HA            -34.1516121744        2.5062061551       19.6041452396  MEMB      55              0.0000000000
      6286        55  SLPC      HB            -35.2534962331        3.8689838757       19.1782380375  MEMB      55              0.0000000000
      6287        55  SLPC      C2            -35.5135651971        2.2442592656       17.9405857860  MEMB      55              0.0000000000
      6288        55  SLPC      HS            -36.1008745969        1.6071894956       18.6359495005  MEMB      55              0.0000000000
      6289        55  SLPC      O21           -34.8673741893        1.3605266653       17.0121307514  MEMB      55              0.0000000000
      6290        55  SLPC      C21           -33.9380368448        0.4142415478       17.2740160538  MEMB      55              0.0000000000
      6291        55  SLPC      O22           -33.7006338643       -0.0777258731       18.3835541215  MEMB      55              0.0000000000
      6292        55  SLPC      C22           -33.2546777268       -0.0294088119       15.9773690129  MEMB      55              0.0000000000
      6293        55  SLPC      H2R           -33.5418256669       -1.0338829083       15.5993497977  MEMB      55              0.0000000000
      6294        55  SLPC      H2S           -33.4460189386        0.6880904843       15.1509886601  MEMB      55              0.0000000000
      6295        55  SLPC      C3            -36.5229103235        3.1283981323       17.1856573116  MEMB      55              0.0000000000
      6296        55  SLPC      HX            -37.1041030296        3.6420038038       17.9811103124  MEMB      55              0.0000000000
      6297        55  SLPC      HY            -37.1705996436        2.4862206084       16.5512853980  MEMB      55              0.0000000000
      6298        55  SLPC      O31           -35.9224309570        4.1378195132       16.3738452494  MEMB      55              0.0000000000
      6299        55  SLPC      C31           -35.9954755663        4.0346527982       15.0842590968  MEMB      55              0.0000000000
      6300        55  SLPC      O32           -36.4390501611        3.1159503829       14.4472704292  MEMB      55              0.0000000000
      6301        55  SLPC      C32           -35.3015632101        5.2911727320       14.5546654077  MEMB      55              0.0000000000
      6302        55  SLPC      H2X           -34.3877021194        5.4506654384       15.1660092066  MEMB      55              0.0000000000
      6303        55  SLPC      H2Y           -35.9740828892        6.1741294810       14.6039143111  MEMB      55              0.0000000000
      6304        55  SLPC      C23           -31.8112785588       -0.0967406359       16.1949862421  MEMB      55              0.0000000000
      6305        55  SLPC      H3R           -31.5455250420       -1.0702620834       16.6596929857  MEMB      55              0.0000000000
      6306        55  SLPC      H3S           -31.3967753159        0.6868581466       16.8646733601  MEMB      55              0.0000000000
      6307        55  SLPC      C24           -30.9468631973        0.1612347567       14.9289362549  MEMB      55              0.0000000000
      6308        55  SLPC      H4R           -29.9494264200        0.3523818782       15.3793846886  MEMB      55              0.0000000000
      6309        55  SLPC      H4S           -31.1700266408        1.1201027538       14.4140662001  MEMB      55              0.0000000000
      6310        55  SLPC      C25           -30.8978812356       -0.9372897962       13.8163734032  MEMB      55              0.0000000000
      6311        55  SLPC      H5R           -30.8286528705       -1.9871976609       14.1730548576  MEMB      55              0.0000000000
      6312        55  SLPC      H5S           -30.0030853586       -0.8249140343       13.1675029506  MEMB      55              0.0000000000
      6313        55  SLPC      C26           -32.1373774286       -1.0211041984       12.9495527897  MEMB      55              0.0000000000
      6314        55  SLPC      H6R           -33.0137908732       -1.3368629043       13.5549593155  MEMB      55              0.0000000000
      6315        55  SLPC      H6S           -31.9654850149       -1.8850743079       12.2725526202  MEMB      55              0.0000000000
      6316        55  SLPC      C27           -32.3549944075        0.1929480989       11.9803877533  MEMB      55              0.0000000000
      6317        55  SLPC      H7R           -31.3895251410        0.4584968088       11.4990626372  MEMB      55              0.0000000000
      6318        55  SLPC      H7S           -32.6899029677        1.0101574065       12.6544248698  MEMB      55              0.0000000000
      6319        55  SLPC      C28           -33.2973070946       -0.0363388085       10.8579270645  MEMB      55              0.0000000000
      6320        55  SLPC      H8R           -34.1426536212       -0.5495047074       11.3642578813  MEMB      55              0.0000000000
      6321        55  SLPC      H8S           -33.1492739865       -0.8785406979       10.1486291886  MEMB      55              0.0000000000
      6322        55  SLPC      C29           -33.8490551430        1.1461130052       10.0926863495  MEMB      55              0.0000000000
      6323        55  SLPC      H9R           -34.2808182549        1.8645021732       10.8050752695  MEMB      55              0.0000000000
      6324        55  SLPC      C210          -33.9174165579        1.4323496173        8.7960830348  MEMB      55              0.0000000000
      6325        55  SLPC      H10R          -34.3355578309        2.3779503964        8.4205874245  MEMB      55              0.0000000000
      6326        55  SLPC      C211          -33.4527704835        0.6172721643        7.5352791693  MEMB      55              0.0000000000
      6327        55  SLPC      H11R          -32.7234752687       -0.1732953859        7.8135821007  MEMB      55              0.0000000000
      6328        55  SLPC      H11S          -32.9552664897        1.3572518992        6.8725271727  MEMB      55              0.0000000000
      6329        55  SLPC      C212          -34.6806599998       -0.0497690066        6.8872897777  MEMB      55              0.0000000000
      6330        55  SLPC      H12R          -34.9522741878       -1.0578046343        7.2338287736  MEMB      55              0.0000000000
      6331        55  SLPC      C213          -35.3994475594        0.3518029259        5.8728357406  MEMB      55              0.0000000000
      6332        55  SLPC      H13R          -36.2844159491       -0.1932969258        5.5127018655  MEMB      55              0.0000000000
      6333        55  SLPC      C214          -35.1094511090        1.6056320976        5.1279496289  MEMB      55              0.0000000000
      6334        55  SLPC      H14R          -34.8592821695        2.3707963958        5.8936257292  MEMB      55              0.0000000000
      6335        55  SLPC      H14S          -36.0330665462        1.8996768204        4.5850011280  MEMB      55              0.0000000000
      6336        55  SLPC      C215          -33.8397056366        1.5855945393        4.1647661734  MEMB      55              0.0000000000
      6337        55  SLPC      H15R          -33.0100947836        1.1051314635        4.7262131492  MEMB      55              0.0000000000
      6338        55  SLPC      H15S          -33.5207484866        2.6296716400        3.9586343131  MEMB      55              0.0000000000
      6339        55  SLPC      C216          -34.0796290130        1.0282104345        2.7468513221  MEMB      55              0.0000000000
      6340        55  SLPC      H16R          -33.1638416815        1.2383483146        2.1539799527  MEMB      55              0.0000000000
      6341        55  SLPC      H16S          -35.0243552550        1.3683357154        2.2713222748  MEMB      55              0.0000000000
      6342        55  SLPC      C217          -34.1570394031       -0.5725946617        2.6762654971  MEMB      55              0.0000000000
      6343        55  SLPC      H17R          -34.8233875284       -0.8407542311        3.5238456069  MEMB      55              0.0000000000
      6344        55  SLPC      H17S          -33.1283330253       -0.9680608107        2.8165880614  MEMB      55              0.0000000000
      6345        55  SLPC      C218          -34.9592172565       -1.1848799794        1.4704088808  MEMB      55              0.0000000000
      6346        55  SLPC      H18R          -35.0527620092       -2.2917736146        1.4893132696  MEMB      55              0.0000000000
      6347        55  SLPC      H18S          -34.4266513035       -0.9596581251        0.5217415650  MEMB      55              0.0000000000
      6348        55  SLPC      H18T          -35.9243827509       -0.6362289151        1.4284731668  MEMB      55              0.0000000000
      6349        55  SLPC      C33           -34.9250741380        5.1360561548       13.0448112872  MEMB      55              0.0000000000
      6350        55  SLPC      H3X           -34.6158603371        6.1113338010       12.6117509231  MEMB      55              0.0000000000
      6351        55  SLPC      H3Y           -35.8600657939        4.7868953166       12.5567555521  MEMB      55              0.0000000000
      6352        55  SLPC      C34           -33.7184087957        4.1035749667       12.8001782013  MEMB      55              0.0000000000
      6353        55  SLPC      H4X           -33.8527888284        3.6691658388       11.7864955012  MEMB      55              0.0000000000
      6354        55  SLPC      H4Y           -33.7510639061        3.3017472484       13.5685051994  MEMB      55              0.0000000000
      6355        55  SLPC      C35           -32.2854614679        4.6569944156       12.7740006347  MEMB      55              0.0000000000
      6356        55  SLPC      H5X           -31.5875303148        3.8171364633       12.9785777149  MEMB      55              0.0000000000
      6357        55  SLPC      H5Y           -32.2531310960        5.3467227236       13.6443746424  MEMB      55              0.0000000000
      6358        55  SLPC      C36           -31.7876112544        5.2376596913       11.4926533068  MEMB      55              0.0000000000
      6359        55  SLPC      H6X           -32.1264994104        6.2781390743       11.3006161945  MEMB      55              0.0000000000
      6360        55  SLPC      H6Y           -31.9916370938        4.6721433675       10.5583699779  MEMB      55              0.0000000000
      6361        55  SLPC      C37           -30.2038959826        5.3035893220       11.5406755383  MEMB      55              0.0000000000
      6362        55  SLPC      H7X           -29.7596775591        4.2853084084       11.5504198862  MEMB      55              0.0000000000
      6363        55  SLPC      H7Y           -29.8992892335        5.7717353440       12.5010792669  MEMB      55              0.0000000000
      6364        55  SLPC      C38           -29.5305461174        6.1018712812       10.3798803606  MEMB      55              0.0000000000
      6365        55  SLPC      H8X           -28.4897714702        6.0030638491       10.7558405487  MEMB      55              0.0000000000
      6366        55  SLPC      H8Y           -29.7431112763        7.1912287191       10.4292537482  MEMB      55              0.0000000000
      6367        55  SLPC      C39           -29.7508889385        5.7539947811        8.9233660281  MEMB      55              0.0000000000
      6368        55  SLPC      H9X           -28.8655195006        6.1348201315        8.3707232464  MEMB      55              0.0000000000
      6369        55  SLPC      H9Y           -30.7215944521        6.2582229084        8.7289287582  MEMB      55              0.0000000000
      6370        55  SLPC      C310          -29.7506825730        4.2403878548        8.6461117040  MEMB      55              0.0000000000
      6371        55  SLPC      H10X          -30.6419161668        3.7363400550        9.0773417972  MEMB      55              0.0000000000
      6372        55  SLPC      H10Y          -28.8354640088        3.8016764716        9.0980280097  MEMB      55              0.0000000000
      6373        55  SLPC      C311          -29.6551391483        3.8082785201        7.1706208051  MEMB      55              0.0000000000
      6374        55  SLPC      H11X          -30.6616997994        4.0733952387        6.7822013409  MEMB      55              0.0000000000
      6375        55  SLPC      H11Y          -29.5626368887        2.7015147806        7.1416680771  MEMB      55              0.0000000000
      6376        55  SLPC      C312          -28.6818995375        4.5490998173        6.2221299422  MEMB      55              0.0000000000
      6377        55  SLPC      H12X          -27.6706312521        4.5880632731        6.6805398642  MEMB      55              0.0000000000
      6378        55  SLPC      H12Y          -28.9951193123        5.6147179996        6.2480611628  MEMB      55              0.0000000000
      6379        55  SLPC      C313          -28.6915957733        4.0844795952        4.7306325995  MEMB      55              0.0000000000
      6380        55  SLPC      H13X          -28.3448434511        3.0294993435        4.6974574447  MEMB      55              0.0000000000
      6381        55  SLPC      H13Y          -27.8853410284        4.6935620421        4.2687963823  MEMB      55              0.0000000000
      6382        55  SLPC      C314          -29.8910079296        4.2687592365        3.8422435404  MEMB      55              0.0000000000
      6383        55  SLPC      H14X          -30.7883341780        3.9242962728        4.3994431036  MEMB      55              0.0000000000
      6384        55  SLPC      H14Y          -29.7684074260        3.7368274155        2.8745968687  MEMB      55              0.0000000000
      6385        55  SLPC      C315          -30.2934823057        5.7190193097        3.4919390370  MEMB      55              0.0000000000
      6386        55  SLPC      H15X          -29.3323645226        6.1932394326        3.1992120423  MEMB      55              0.0000000000
      6387        55  SLPC      H15Y          -30.6426913919        6.2155442648        4.4224425042  MEMB      55              0.0000000000
      6388        55  SLPC      C316          -31.3190914381        5.8291322302        2.3507004737  MEMB      55              0.0000000000
      6389        55  SLPC      H16X          -31.0009756271        5.3933356150        1.3795126592  MEMB      55              0.0000000000
      6390        55  SLPC      H16Y          -31.4279506712        6.9323999160        2.2780984395  MEMB      55              0.0000000000
      6391        55  SLPC      C317          -32.7004056445        5.1923966633        2.8223112080  MEMB      55              0.0000000000
      6392        55  SLPC      H17X          -32.9782865602        5.5665678755        3.8308246229  MEMB      55              0.0000000000
      6393        55  SLPC      H17Y          -32.4965068721        4.1043825022        2.9170295455  MEMB      55              0.0000000000
      6394        55  SLPC      C318          -33.8393931793        5.4541000540        1.7929629276  MEMB      55              0.0000000000
      6395        55  SLPC      H18X          -33.9711393767        6.5556532173        1.7334301792  MEMB      55              0.0000000000
      6396        55  SLPC      H18Y          -34.8429661595        5.1395342607        2.1510285458  MEMB      55              0.0000000000
      6397        55  SLPC      H18Z          -33.6371097296        5.0461581726        0.7795606164  MEMB      55              0.0000000000
      6398        56  SOPE      N              19.3171312314       25.9126754201       22.4912499982  MEMB      56              0.0000000000
      6399        56  SOPE      HN1            19.0513610252       26.2888405083       23.4237016778  MEMB      56              0.0000000000
      6400        56  SOPE      HN2            20.2941946035       26.1722248087       22.2471574045  MEMB      56              0.0000000000
      6401        56  SOPE      HN3            18.6912117979       26.4440318665       21.8529043331  MEMB      56              0.0000000000
      6402        56  SOPE      C12            18.9286929450       24.4673432491       22.6378114821  MEMB      56              0.0000000000
      6403        56  SOPE      H12A           17.8182498225       24.5015555353       22.6296449514  MEMB      56              0.0000000000
      6404        56  SOPE      H12B           19.3421715019       24.0073683188       23.5607303083  MEMB      56              0.0000000000
      6405        56  SOPE      C11            19.3108101424       23.6128387870       21.4130251583  MEMB      56              0.0000000000
      6406        56  SOPE      H11A           18.7095205862       23.9377452670       20.5371212669  MEMB      56              0.0000000000
      6407        56  SOPE      H11B           19.0088151658       22.6448176296       21.8669580666  MEMB      56              0.0000000000
      6408        56  SOPE      P              21.4684560407       22.5466634445       20.2960704664  MEMB      56              0.0000000000
      6409        56  SOPE      O13            21.9586039961       21.6323707264       21.4015484111  MEMB      56              0.0000000000
      6410        56  SOPE      O14            22.4873407960       23.1704610079       19.3914271267  MEMB      56              0.0000000000
      6411        56  SOPE      O12            20.6161021893       23.6887065990       21.0086848888  MEMB      56              0.0000000000
      6412        56  SOPE      O11            20.4508426743       21.7500295544       19.3601824656  MEMB      56              0.0000000000
      6413        56  SOPE      C1             19.7579678822       22.1483091007       18.2722463518  MEMB      56              0.0000000000
      6414        56  SOPE      HA             19.9345162972       23.2302485702       18.0918061233  MEMB      56              0.0000000000
      6415        56  SOPE      HB             18.6677548077       22.0936046833       18.4790413173  MEMB      56              0.0000000000
      6416        56  SOPE      C2             20.2334605599       21.3675826147       16.9817896297  MEMB      56              0.0000000000
      6417        56  SOPE      HS             20.2002439775       20.2894041790       17.2477763183  MEMB      56              0.0000000000
      6418        56  SOPE      O21            21.5415096416       21.8244637826       16.7207004566  MEMB      56              0.0000000000
      6419        56  SOPE      C21            22.2984043172       20.9581542045       16.0237826726  MEMB      56              0.0000000000
      6420        56  SOPE      O22            21.9094425788       19.9526154010       15.4658671788  MEMB      56              0.0000000000
      6421        56  SOPE      C22            23.6992274941       21.4378054702       16.0332761487  MEMB      56              0.0000000000
      6422        56  SOPE      H2R            24.2806922916       21.0545553604       16.8989196974  MEMB      56              0.0000000000
      6423        56  SOPE      H2S            23.7987662764       22.5436906063       15.9954434921  MEMB      56              0.0000000000
      6424        56  SOPE      C3             19.3430479243       21.6613084495       15.7535061571  MEMB      56              0.0000000000
      6425        56  SOPE      HX             18.3105574039       21.5626765215       16.1516979284  MEMB      56              0.0000000000
      6426        56  SOPE      HY             19.6063726091       20.9388478338       14.9516136816  MEMB      56              0.0000000000
      6427        56  SOPE      O31            19.6053777795       23.0631597479       15.4424676999  MEMB      56              0.0000000000
      6428        56  SOPE      C31            19.6781582868       23.3680947029       14.1555926380  MEMB      56              0.0000000000
      6429        56  SOPE      O32            19.3039183644       22.6983333943       13.2239469639  MEMB      56              0.0000000000
      6430        56  SOPE      C32            20.3309680657       24.7466871492       14.0719748201  MEMB      56              0.0000000000
      6431        56  SOPE      H2X            21.1105641744       24.9214610473       14.8439882902  MEMB      56              0.0000000000
      6432        56  SOPE      H2Y            19.4871084722       25.4349717058       14.2921712556  MEMB      56              0.0000000000
      6433        56  SOPE      C23            24.4124437950       20.8885346955       14.8491896851  MEMB      56              0.0000000000
      6434        56  SOPE      H3R            24.3438532971       19.7836626816       14.7549874833  MEMB      56              0.0000000000
      6435        56  SOPE      H3S            25.5132689138       20.9294638415       14.9935143820  MEMB      56              0.0000000000
      6436        56  SOPE      C24            24.0942684152       21.5403575628       13.5030177794  MEMB      56              0.0000000000
      6437        56  SOPE      H4R            23.0063982853       21.4720290630       13.2880977357  MEMB      56              0.0000000000
      6438        56  SOPE      H4S            24.3179327392       22.6273988074       13.4516697685  MEMB      56              0.0000000000
      6439        56  SOPE      C25            24.8952337866       20.8189348035       12.3722130768  MEMB      56              0.0000000000
      6440        56  SOPE      H5R            25.9382071235       21.1824148929       12.4922542469  MEMB      56              0.0000000000
      6441        56  SOPE      H5S            24.8555320627       19.7191280897       12.5244290575  MEMB      56              0.0000000000
      6442        56  SOPE      C26            24.2880976763       21.0671113053       10.9934073571  MEMB      56              0.0000000000
      6443        56  SOPE      H6R            23.2044554338       20.8367400852       10.9099222999  MEMB      56              0.0000000000
      6444        56  SOPE      H6S            24.3606999855       22.1631921057       10.8271039906  MEMB      56              0.0000000000
      6445        56  SOPE      C27            25.0604112565       20.1650619967        9.8780902809  MEMB      56              0.0000000000
      6446        56  SOPE      H7R            26.1240751487       20.4777826818        9.8063560744  MEMB      56              0.0000000000
      6447        56  SOPE      H7S            24.8647999335       19.0920668470       10.0896053004  MEMB      56              0.0000000000
      6448        56  SOPE      C28            24.5960793617       20.4952809253        8.4567784245  MEMB      56              0.0000000000
      6449        56  SOPE      H8R            24.7609940279       21.5636313812        8.2003565276  MEMB      56              0.0000000000
      6450        56  SOPE      H8S            25.1954394159       19.7950177246        7.8365198465  MEMB      56              0.0000000000
      6451        56  SOPE      C29            23.0593824066       20.3216695641        8.1331436097  MEMB      56              0.0000000000
      6452        56  SOPE      H91            22.3434738087       20.4670283909        8.9555457806  MEMB      56              0.0000000000
      6453        56  SOPE      C210           22.4831080481       20.0778397453        6.9746623949  MEMB      56              0.0000000000
      6454        56  SOPE      H101           21.4009597342       19.8868076772        7.0242795687  MEMB      56              0.0000000000
      6455        56  SOPE      C211           23.0670112355       19.8138131693        5.5701151680  MEMB      56              0.0000000000
      6456        56  SOPE      H11R           23.1582830677       18.7344167210        5.3233489267  MEMB      56              0.0000000000
      6457        56  SOPE      H11S           24.0015556356       20.4135600340        5.5347484377  MEMB      56              0.0000000000
      6458        56  SOPE      C212           22.2953112629       20.3880426405        4.3179011418  MEMB      56              0.0000000000
      6459        56  SOPE      H12R           22.4794531135       21.4819497928        4.2564227628  MEMB      56              0.0000000000
      6460        56  SOPE      H12S           21.1979308857       20.2399507573        4.4081577358  MEMB      56              0.0000000000
      6461        56  SOPE      C213           22.6515761223       19.7474700680        2.9646638629  MEMB      56              0.0000000000
      6462        56  SOPE      H13R           22.3105583485       18.6931007134        3.0442469409  MEMB      56              0.0000000000
      6463        56  SOPE      H13S           23.7403090130       19.8163892661        2.7543525392  MEMB      56              0.0000000000
      6464        56  SOPE      C214           21.9351917748       20.4275868489        1.7638274603  MEMB      56              0.0000000000
      6465        56  SOPE      H14R           20.8605065417       20.2583903036        1.9890948517  MEMB      56              0.0000000000
      6466        56  SOPE      H14S           22.1651275161       19.7848642389        0.8872679790  MEMB      56              0.0000000000
      6467        56  SOPE      C215           22.2073773435       21.9085021284        1.5110849468  MEMB      56              0.0000000000
      6468        56  SOPE      H15R           23.2986341844       21.9671909847        1.3109986276  MEMB      56              0.0000000000
      6469        56  SOPE      H15S           22.0179051836       22.4782353360        2.4458706099  MEMB      56              0.0000000000
      6470        56  SOPE      C216           21.5470970290       22.4897340458        0.1579875193  MEMB      56              0.0000000000
      6471        56  SOPE      H16R           20.4448661437       22.3599731805        0.1072897177  MEMB      56              0.0000000000
      6472        56  SOPE      H16S           21.8378061110       21.7181016901       -0.5865890491  MEMB      56              0.0000000000
      6473        56  SOPE      C217           21.8669938443       23.9259482806       -0.1471163996  MEMB      56              0.0000000000
      6474        56  SOPE      H17R           22.8939017251       24.2228723331        0.1555673603  MEMB      56              0.0000000000
      6475        56  SOPE      H17S           21.2296822185       24.5122482732        0.5488780054  MEMB      56              0.0000000000
      6476        56  SOPE      C218           21.6899302094       24.1570538112       -1.6446266269  MEMB      56              0.0000000000
      6477        56  SOPE      H18R           20.6287201532       23.8985071623       -1.8478698383  MEMB      56              0.0000000000
      6478        56  SOPE      H18S           22.0853706833       23.3310528095       -2.2736503196  MEMB      56              0.0000000000
      6479        56  SOPE      H18T           22.1959126702       25.0582371576       -2.0522677867  MEMB      56              0.0000000000
      6480        56  SOPE      C33            20.8007653676       24.8566793813       12.6152074780  MEMB      56              0.0000000000
      6481        56  SOPE      H3X            19.8039883254       24.7991332631       12.1279238001  MEMB      56              0.0000000000
      6482        56  SOPE      H3Y            21.3790128419       23.9622448498       12.2990775146  MEMB      56              0.0000000000
      6483        56  SOPE      C34            21.4314286480       26.1882190823       12.3992372622  MEMB      56              0.0000000000
      6484        56  SOPE      H4X            22.2033934164       26.1887494481       13.1982312274  MEMB      56              0.0000000000
      6485        56  SOPE      H4Y            20.7347988438       27.0503216690       12.4754413402  MEMB      56              0.0000000000
      6486        56  SOPE      C35            22.1988473484       26.2002067171       11.0269171252  MEMB      56              0.0000000000
      6487        56  SOPE      H5X            22.6784198452       27.1852894115       10.8426811950  MEMB      56              0.0000000000
      6488        56  SOPE      H5Y            21.3521296817       26.0850009421       10.3169051593  MEMB      56              0.0000000000
      6489        56  SOPE      C36            23.2916758258       25.1018338624       10.8650359807  MEMB      56              0.0000000000
      6490        56  SOPE      H6X            22.8975130940       24.0631540246       10.8750756551  MEMB      56              0.0000000000
      6491        56  SOPE      H6Y            24.0349775010       25.1951885204       11.6854673202  MEMB      56              0.0000000000
      6492        56  SOPE      C37            23.9553713063       25.3148173927        9.4836016201  MEMB      56              0.0000000000
      6493        56  SOPE      H7X            24.9353288020       24.7992885433        9.5743440807  MEMB      56              0.0000000000
      6494        56  SOPE      H7Y            24.2004077151       26.3946081270        9.3923330529  MEMB      56              0.0000000000
      6495        56  SOPE      C38            23.1122730243       24.8077743002        8.2934231502  MEMB      56              0.0000000000
      6496        56  SOPE      H8X            22.3742234755       25.6099227567        8.0785704780  MEMB      56              0.0000000000
      6497        56  SOPE      H8Y            22.6733404811       23.8044316694        8.4804066790  MEMB      56              0.0000000000
      6498        56  SOPE      C39            24.0394884518       24.7057871491        7.0414960109  MEMB      56              0.0000000000
      6499        56  SOPE      H9X            23.4612883815       24.0195913581        6.3864072700  MEMB      56              0.0000000000
      6500        56  SOPE      H9Y            24.9183229186       24.0614255510        7.2577575222  MEMB      56              0.0000000000
      6501        56  SOPE      C310           24.5130000862       26.0641970717        6.4779788790  MEMB      56              0.0000000000
      6502        56  SOPE      H10X           25.0814693238       26.5852212692        7.2777903291  MEMB      56              0.0000000000
      6503        56  SOPE      H10Y           23.5851873750       26.6247730339        6.2345884041  MEMB      56              0.0000000000
      6504        56  SOPE      C311           25.4779819864       26.0684389244        5.1979856941  MEMB      56              0.0000000000
      6505        56  SOPE      H11X           26.4160778098       25.6028362189        5.5688113194  MEMB      56              0.0000000000
      6506        56  SOPE      H11Y           25.7704167591       27.0994007747        4.9048632925  MEMB      56              0.0000000000
      6507        56  SOPE      C312           24.9156224702       25.4579782065        3.9660245060  MEMB      56              0.0000000000
      6508        56  SOPE      H12X           23.8250818641       25.2482269295        3.9983757562  MEMB      56              0.0000000000
      6509        56  SOPE      H12Y           25.2563139292       24.4361746188        3.6936878835  MEMB      56              0.0000000000
      6510        56  SOPE      C313           25.1200848301       26.3729761360        2.6894731180  MEMB      56              0.0000000000
      6511        56  SOPE      H13X           25.5787474727       25.6126822199        2.0217142852  MEMB      56              0.0000000000
      6512        56  SOPE      H13Y           25.8518824954       27.2060047812        2.7591631176  MEMB      56              0.0000000000
      6513        56  SOPE      C314           23.8033329838       26.8850994712        2.1468843701  MEMB      56              0.0000000000
      6514        56  SOPE      H14X           23.7101642959       27.9187560458        2.5433625177  MEMB      56              0.0000000000
      6515        56  SOPE      H14Y           22.9497958617       26.2712824335        2.5060840784  MEMB      56              0.0000000000
      6516        56  SOPE      C315           23.7578575414       27.0457106213        0.5673697681  MEMB      56              0.0000000000
      6517        56  SOPE      H15X           23.5606537543       26.0958410889        0.0259080349  MEMB      56              0.0000000000
      6518        56  SOPE      H15Y           24.7675098731       27.2871138086        0.1715817990  MEMB      56              0.0000000000
      6519        56  SOPE      C316           22.6911880944       28.0119293345        0.1786614312  MEMB      56              0.0000000000
      6520        56  SOPE      H16X           22.9467891754       28.9600350094        0.6983579657  MEMB      56              0.0000000000
      6521        56  SOPE      H16Y           21.7869341794       27.5316047129        0.6098608811  MEMB      56              0.0000000000
      6522        56  SOPE      C317           22.5606098662       28.2579293496       -1.3532587632  MEMB      56              0.0000000000
      6523        56  SOPE      H17X           21.6869008942       28.8956190165       -1.6068453267  MEMB      56              0.0000000000
      6524        56  SOPE      H17Y           22.3460687410       27.3795099329       -1.9987606460  MEMB      56              0.0000000000
      6525        56  SOPE      C318           23.8160433146       28.9129607308       -2.0366396974  MEMB      56              0.0000000000
      6526        56  SOPE      H18X           23.6369781826       29.0741284349       -3.1212047963  MEMB      56              0.0000000000
      6527        56  SOPE      H18Y           24.6828972638       28.2210583111       -1.9721699124  MEMB      56              0.0000000000
      6528        56  SOPE      H18Z           24.0132981196       29.8657812530       -1.5004072475  MEMB      56              0.0000000000
      6529        57  SAPC      N             -28.3415725509       -9.5498057910       20.9287047436  MEMB      57              0.0000000000
      6530        57  SAPC      C12           -29.3717027391       -8.4441275948       20.9347824803  MEMB      57              0.0000000000
      6531        57  SAPC      H12A          -28.9514036653       -7.5329376388       21.3341335261  MEMB      57              0.0000000000
      6532        57  SAPC      H12B          -30.1095795332       -8.6192781136       21.7037169566  MEMB      57              0.0000000000
      6533        57  SAPC      C13           -27.6828434980       -9.5882151778       22.3245182731  MEMB      57              0.0000000000
      6534        57  SAPC      H13A          -27.0979119880       -8.6803399675       22.3202846508  MEMB      57              0.0000000000
      6535        57  SAPC      H13B          -28.4146321965       -9.6269037830       23.1178583727  MEMB      57              0.0000000000
      6536        57  SAPC      H13C          -27.0113060979      -10.4328574911       22.3694299551  MEMB      57              0.0000000000
      6537        57  SAPC      C14           -29.0042305251      -10.8624886171       20.6485436384  MEMB      57              0.0000000000
      6538        57  SAPC      H14A          -28.2542454033      -11.6375407248       20.5918307225  MEMB      57              0.0000000000
      6539        57  SAPC      H14B          -29.7462632646      -11.1358493484       21.3841124972  MEMB      57              0.0000000000
      6540        57  SAPC      H14C          -29.4694010866      -10.8486788182       19.6739536595  MEMB      57              0.0000000000
      6541        57  SAPC      C15           -27.2930915291       -9.2571107134       19.8968323184  MEMB      57              0.0000000000
      6542        57  SAPC      H15A          -27.6987282196       -8.9687810960       18.9383309447  MEMB      57              0.0000000000
      6543        57  SAPC      H15B          -26.5595704628       -8.6146101253       20.3610949451  MEMB      57              0.0000000000
      6544        57  SAPC      H15C          -26.7911741857      -10.1884051591       19.6796467988  MEMB      57              0.0000000000
      6545        57  SAPC      C11           -30.0368277886       -8.0901521288       19.6087708968  MEMB      57              0.0000000000
      6546        57  SAPC      H11A          -29.2371730660       -7.8128957176       18.8890471659  MEMB      57              0.0000000000
      6547        57  SAPC      H11B          -30.5391204061       -7.0991915733       19.6042827291  MEMB      57              0.0000000000
      6548        57  SAPC      P             -32.4326499987       -9.0097518042       19.1914477292  MEMB      57              0.0000000000
      6549        57  SAPC      O13           -32.8206756048      -10.4336371516       19.1659448398  MEMB      57              0.0000000000
      6550        57  SAPC      O14           -32.8559318966       -8.1750842201       20.2893963099  MEMB      57              0.0000000000
      6551        57  SAPC      O12           -30.8406469011       -9.0935345606       19.0735687926  MEMB      57              0.0000000000
      6552        57  SAPC      O11           -32.9493011623       -8.2609874618       17.9374899802  MEMB      57              0.0000000000
      6553        57  SAPC      C1            -33.2845721724       -8.9323523327       16.7516531943  MEMB      57              0.0000000000
      6554        57  SAPC      HA            -33.6128979266       -9.9718560017       16.9660249978  MEMB      57              0.0000000000
      6555        57  SAPC      HB            -34.2582874390       -8.5951671737       16.3363148582  MEMB      57              0.0000000000
      6556        57  SAPC      C2            -32.2087914991       -8.8507600833       15.6911171178  MEMB      57              0.0000000000
      6557        57  SAPC      HS            -32.6215033626       -9.2943947663       14.7598928770  MEMB      57              0.0000000000
      6558        57  SAPC      O21           -31.1388817892       -9.6509854803       16.1733188322  MEMB      57              0.0000000000
      6559        57  SAPC      C21           -31.2439215178      -10.9792481380       15.9750772236  MEMB      57              0.0000000000
      6560        57  SAPC      O22           -32.1186506884      -11.5469004499       15.3491999847  MEMB      57              0.0000000000
      6561        57  SAPC      C22           -30.1294472231      -11.6468055195       16.8284248720  MEMB      57              0.0000000000
      6562        57  SAPC      H2R           -29.6332974899      -10.9831037629       17.5684630190  MEMB      57              0.0000000000
      6563        57  SAPC      H2S           -30.6678842094      -12.4206394498       17.4162919084  MEMB      57              0.0000000000
      6564        57  SAPC      C3            -31.7889798451       -7.3431087753       15.4843457761  MEMB      57              0.0000000000
      6565        57  SAPC      HX            -31.4227921706       -6.9818683375       16.4690958430  MEMB      57              0.0000000000
      6566        57  SAPC      HY            -32.6669003679       -6.7245118255       15.1998914524  MEMB      57              0.0000000000
      6567        57  SAPC      O31           -30.7783264869       -7.1551369410       14.5691594560  MEMB      57              0.0000000000
      6568        57  SAPC      C31           -30.9680006101       -6.5751724796       13.4522702543  MEMB      57              0.0000000000
      6569        57  SAPC      O32           -32.0317631114       -6.3786210529       12.8828577591  MEMB      57              0.0000000000
      6570        57  SAPC      C32           -29.5875351960       -6.4092942687       12.7685603051  MEMB      57              0.0000000000
      6571        57  SAPC      H2X           -29.1125271187       -7.3919495608       12.5610104710  MEMB      57              0.0000000000
      6572        57  SAPC      H2Y           -28.9747098576       -5.9326751173       13.5632930773  MEMB      57              0.0000000000
      6573        57  SAPC      C23           -29.0941995305      -12.4317955053       15.9384393204  MEMB      57              0.0000000000
      6574        57  SAPC      H3R           -29.6406714740      -12.9764520783       15.1390401313  MEMB      57              0.0000000000
      6575        57  SAPC      H3S           -28.7083439011      -13.2666135477       16.5617489698  MEMB      57              0.0000000000
      6576        57  SAPC      C24           -28.0331966609      -11.5439391217       15.4288028830  MEMB      57              0.0000000000
      6577        57  SAPC      H4R           -27.3641958691      -12.2432379000       14.8831473284  MEMB      57              0.0000000000
      6578        57  SAPC      H4S           -27.4997333904      -11.0771344359       16.2842740090  MEMB      57              0.0000000000
      6579        57  SAPC      C25           -28.3241064725      -10.4209733243       14.5028669051  MEMB      57              0.0000000000
      6580        57  SAPC      H5R           -28.1828261829       -9.4759672843       15.0478470541  MEMB      57              0.0000000000
      6581        57  SAPC      C26           -28.6102358227      -10.5268388783       13.1841841552  MEMB      57              0.0000000000
      6582        57  SAPC      H6R           -28.8921411432       -9.5941277398       12.6737145556  MEMB      57              0.0000000000
      6583        57  SAPC      C27           -28.6743203525      -11.6969765081       12.3317827004  MEMB      57              0.0000000000
      6584        57  SAPC      H7R           -27.8846416969      -12.4037032585       12.6653475065  MEMB      57              0.0000000000
      6585        57  SAPC      H7S           -28.6178537769      -11.4684832546       11.2459997275  MEMB      57              0.0000000000
      6586        57  SAPC      C28           -29.9068286671      -12.5574547802       12.5504422511  MEMB      57              0.0000000000
      6587        57  SAPC      H8R           -29.8888151787      -13.4938449066       13.1273727033  MEMB      57              0.0000000000
      6588        57  SAPC      C29           -31.0885767039      -12.1574871143       12.1801463311  MEMB      57              0.0000000000
      6589        57  SAPC      H9R           -31.8738697990      -12.8921652055       12.4115822466  MEMB      57              0.0000000000
      6590        57  SAPC      C210          -31.5159055068      -10.8920201949       11.4599629539  MEMB      57              0.0000000000
      6591        57  SAPC      H10R          -31.5910905162      -11.1549809602       10.3831530385  MEMB      57              0.0000000000
      6592        57  SAPC      H10S          -30.8948805324       -9.9780647675       11.5754373590  MEMB      57              0.0000000000
      6593        57  SAPC      C211          -32.8512137801      -10.4629380337       11.9124624899  MEMB      57              0.0000000000
      6594        57  SAPC      H11R          -33.3245514036      -11.0109642007       12.7404838702  MEMB      57              0.0000000000
      6595        57  SAPC      C212          -33.5709410920       -9.4362061533       11.4353685067  MEMB      57              0.0000000000
      6596        57  SAPC      H12R          -34.6322433897       -9.4910052171       11.7193313374  MEMB      57              0.0000000000
      6597        57  SAPC      C213          -33.2576485047       -8.4296962830       10.3376108820  MEMB      57              0.0000000000
      6598        57  SAPC      H13R          -32.2357200976       -8.5778866447        9.9277050189  MEMB      57              0.0000000000
      6599        57  SAPC      H13S          -33.2150524790       -7.4042934218       10.7631168998  MEMB      57              0.0000000000
      6600        57  SAPC      C214          -34.3745314703       -8.4120879106        9.2913549279  MEMB      57              0.0000000000
      6601        57  SAPC      H14R          -35.3508295829       -8.0389454614        9.6342936057  MEMB      57              0.0000000000
      6602        57  SAPC      C215          -34.3797134242       -8.9886829596        8.0254923658  MEMB      57              0.0000000000
      6603        57  SAPC      H15R          -35.2933885696       -9.0902755129        7.4214421355  MEMB      57              0.0000000000
      6604        57  SAPC      C216          -33.1586971595       -9.7003016823        7.4960196805  MEMB      57              0.0000000000
      6605        57  SAPC      H16R          -33.4301376522      -10.6961588867        7.0850342798  MEMB      57              0.0000000000
      6606        57  SAPC      H16S          -32.4231300565       -9.8301607342        8.3184543375  MEMB      57              0.0000000000
      6607        57  SAPC      C217          -32.5527805869       -8.9076214082        6.3093721310  MEMB      57              0.0000000000
      6608        57  SAPC      H17R          -31.5926203403       -9.3281582404        5.9411849529  MEMB      57              0.0000000000
      6609        57  SAPC      H17S          -32.2975713167       -7.9504269174        6.8123311414  MEMB      57              0.0000000000
      6610        57  SAPC      C218          -33.5183866441       -8.6633945151        5.1334907244  MEMB      57              0.0000000000
      6611        57  SAPC      H18R          -34.3523683980       -8.0134559022        5.4746287492  MEMB      57              0.0000000000
      6612        57  SAPC      H18S          -33.9228797352       -9.6468209793        4.8116540985  MEMB      57              0.0000000000
      6613        57  SAPC      C219          -32.8895525970       -7.9707200180        3.9018735652  MEMB      57              0.0000000000
      6614        57  SAPC      H19R          -32.1567131237       -8.7497820378        3.6013249863  MEMB      57              0.0000000000
      6615        57  SAPC      H19S          -32.3516212256       -7.0252049070        4.1275992549  MEMB      57              0.0000000000
      6616        57  SAPC      C220          -33.8406700955       -7.6953565383        2.7421682411  MEMB      57              0.0000000000
      6617        57  SAPC      H20R          -34.3538703976       -6.7140144204        2.8311300043  MEMB      57              0.0000000000
      6618        57  SAPC      H20S          -34.6606471292       -8.4353371290        2.6222205754  MEMB      57              0.0000000000
      6619        57  SAPC      H20T          -33.2867548093       -7.6828948851        1.7791819058  MEMB      57              0.0000000000
      6620        57  SAPC      C33           -29.7326101798       -5.5443443692       11.4347309556  MEMB      57              0.0000000000
      6621        57  SAPC      H3X           -30.1678257111       -4.5562007892       11.6964193876  MEMB      57              0.0000000000
      6622        57  SAPC      H3Y           -30.3404644493       -6.0988546811       10.6881709797  MEMB      57              0.0000000000
      6623        57  SAPC      C34           -28.3338589932       -5.3824168172       10.8366577927  MEMB      57              0.0000000000
      6624        57  SAPC      H4X           -27.5681589482       -5.0347538901       11.5627123592  MEMB      57              0.0000000000
      6625        57  SAPC      H4Y           -28.5453549402       -4.6614272002       10.0182665881  MEMB      57              0.0000000000
      6626        57  SAPC      C35           -27.7431907105       -6.6132425105       10.1851269180  MEMB      57              0.0000000000
      6627        57  SAPC      H5X           -27.0504415245       -7.2177048995       10.8088605388  MEMB      57              0.0000000000
      6628        57  SAPC      H5Y           -27.0773218567       -6.2186102140        9.3881288931  MEMB      57              0.0000000000
      6629        57  SAPC      C36           -28.7601303220       -7.4788703795        9.4850965048  MEMB      57              0.0000000000
      6630        57  SAPC      H6X           -29.3691414237       -6.8977071972        8.7600615854  MEMB      57              0.0000000000
      6631        57  SAPC      H6Y           -29.4408448963       -7.9338029468       10.2360860641  MEMB      57              0.0000000000
      6632        57  SAPC      C37           -27.9479489552       -8.5888279161        8.7533511576  MEMB      57              0.0000000000
      6633        57  SAPC      H7X           -27.3626861468       -9.1732407387        9.4951402949  MEMB      57              0.0000000000
      6634        57  SAPC      H7Y           -27.1896842771       -8.1722674716        8.0563339119  MEMB      57              0.0000000000
      6635        57  SAPC      C38           -28.8390738446       -9.5205098973        7.9775558116  MEMB      57              0.0000000000
      6636        57  SAPC      H8X           -29.7060997359       -8.8832358922        7.7010255475  MEMB      57              0.0000000000
      6637        57  SAPC      H8Y           -29.1740084557      -10.2830589781        8.7128505465  MEMB      57              0.0000000000
      6638        57  SAPC      C39           -28.2313944674      -10.2790422940        6.8063901673  MEMB      57              0.0000000000
      6639        57  SAPC      H9X           -28.9413528976      -11.0349522116        6.4077921751  MEMB      57              0.0000000000
      6640        57  SAPC      H9Y           -27.3671230052      -10.8430170137        7.2178371747  MEMB      57              0.0000000000
      6641        57  SAPC      C310          -27.7903431844       -9.5212237144        5.5623919538  MEMB      57              0.0000000000
      6642        57  SAPC      H10X          -26.9970430302       -8.8354189899        5.9293628456  MEMB      57              0.0000000000
      6643        57  SAPC      H10Y          -28.6929103477       -8.9206626776        5.3194517511  MEMB      57              0.0000000000
      6644        57  SAPC      C311          -27.2915413060      -10.3746536401        4.4419958160  MEMB      57              0.0000000000
      6645        57  SAPC      H11X          -27.9742247016      -11.2277999495        4.2409844018  MEMB      57              0.0000000000
      6646        57  SAPC      H11Y          -26.2723698717      -10.7254546121        4.7113461151  MEMB      57              0.0000000000
      6647        57  SAPC      C312          -27.0596374548       -9.5307408557        3.1297739494  MEMB      57              0.0000000000
      6648        57  SAPC      H12X          -26.4434103317      -10.1350513818        2.4302065602  MEMB      57              0.0000000000
      6649        57  SAPC      H12Y          -26.4695221140       -8.5975161657        3.2529668750  MEMB      57              0.0000000000
      6650        57  SAPC      C313          -28.3620428015       -9.1163408562        2.3795953080  MEMB      57              0.0000000000
      6651        57  SAPC      H13X          -28.9306766593       -8.4795111791        3.0905273962  MEMB      57              0.0000000000
      6652        57  SAPC      H13Y          -29.0007628674       -9.9695827063        2.0660101047  MEMB      57              0.0000000000
      6653        57  SAPC      C314          -28.0335778329       -8.3455385739        1.1725186140  MEMB      57              0.0000000000
      6654        57  SAPC      H14X          -27.8550540152       -8.9732103891        0.2733653603  MEMB      57              0.0000000000
      6655        57  SAPC      H14Y          -26.9964957092       -7.9941694922        1.3604584287  MEMB      57              0.0000000000
      6656        57  SAPC      C315          -28.9952267885       -7.2161490344        0.9317167746  MEMB      57              0.0000000000
      6657        57  SAPC      H15X          -30.0435360243       -7.5252563685        1.1312705415  MEMB      57              0.0000000000
      6658        57  SAPC      H15Y          -28.8234615653       -7.0917818305       -0.1588556901  MEMB      57              0.0000000000
      6659        57  SAPC      C316          -28.5274480771       -5.9561271487        1.6277068959  MEMB      57              0.0000000000
      6660        57  SAPC      H16X          -27.7489632600       -5.3935499904        1.0693258587  MEMB      57              0.0000000000
      6661        57  SAPC      H16Y          -28.1168658935       -6.2211689938        2.6254517302  MEMB      57              0.0000000000
      6662        57  SAPC      C317          -29.7314405139       -5.0085608774        1.5669448598  MEMB      57              0.0000000000
      6663        57  SAPC      H17X          -30.6477979267       -5.5059537185        1.9506250494  MEMB      57              0.0000000000
      6664        57  SAPC      H17Y          -29.9682045488       -4.8051185967        0.5007015874  MEMB      57              0.0000000000
      6665        57  SAPC      C318          -29.4718636522       -3.6290831663        2.1792802264  MEMB      57              0.0000000000
      6666        57  SAPC      H18X          -29.0156700606       -3.7628181223        3.1834344118  MEMB      57              0.0000000000
      6667        57  SAPC      H18Y          -30.4558920870       -3.1159103477        2.2308805663  MEMB      57              0.0000000000
      6668        57  SAPC      H18Z          -28.7246817530       -3.0924434742        1.5563374929  MEMB      57              0.0000000000
      6669        58  OSM       N             -22.4252311093      -21.1974724693       21.3082302743  MEMB      58              0.0000000000
      6670        58  OSM       C15           -22.4708479055      -20.1496505328       22.4204843402  MEMB      58              0.0000000000
      6671        58  OSM       H15A          -23.2240672027      -20.4786024549       23.1210921390  MEMB      58              0.0000000000
      6672        58  OSM       H15B          -22.7587572638      -19.2007316255       21.9926280923  MEMB      58              0.0000000000
      6673        58  OSM       H15C          -21.5021776775      -20.2071573790       22.8945845257  MEMB      58              0.0000000000
      6674        58  OSM       C14           -23.7347210024      -21.2254398081       20.5735442552  MEMB      58              0.0000000000
      6675        58  OSM       H14A          -23.9121928792      -20.2502150688       20.1447782249  MEMB      58              0.0000000000
      6676        58  OSM       H14B          -24.5382872596      -21.5133169214       21.2352147737  MEMB      58              0.0000000000
      6677        58  OSM       H14C          -23.7673385869      -21.9866994612       19.8081556469  MEMB      58              0.0000000000
      6678        58  OSM       C13           -21.2774591432      -20.8593956777       20.3706825675  MEMB      58              0.0000000000
      6679        58  OSM       H13A          -20.3071359131      -20.8495837065       20.8447883880  MEMB      58              0.0000000000
      6680        58  OSM       H13B          -21.5160114992      -19.8340648975       20.1294572056  MEMB      58              0.0000000000
      6681        58  OSM       H13C          -21.2434773737      -21.4929750284       19.4967132422  MEMB      58              0.0000000000
      6682        58  OSM       C12           -22.1275884076      -22.5915515442       21.8998657958  MEMB      58              0.0000000000
      6683        58  OSM       H12A          -22.9291114409      -22.7371591600       22.6089211037  MEMB      58              0.0000000000
      6684        58  OSM       H12B          -21.2138324329      -22.6986471919       22.4655340653  MEMB      58              0.0000000000
      6685        58  OSM       C11           -21.9483834083      -23.8444095739       21.0047982785  MEMB      58              0.0000000000
      6686        58  OSM       H11A          -22.8119147770      -23.8973532807       20.3077821108  MEMB      58              0.0000000000
      6687        58  OSM       H11B          -22.0062375286      -24.7504039595       21.6452263074  MEMB      58              0.0000000000
      6688        58  OSM       P             -19.4936445009      -24.5811306159       20.7741563897  MEMB      58              0.0000000000
      6689        58  OSM       O13           -18.7696520907      -23.8752971939       21.8516723313  MEMB      58              0.0000000000
      6690        58  OSM       O14           -19.9274551049      -25.9762256699       20.9972347588  MEMB      58              0.0000000000
      6691        58  OSM       O11           -18.5154098936      -24.6767573995       19.5236250468  MEMB      58              0.0000000000
      6692        58  OSM       O12           -20.7769698356      -23.8023317595       20.2757059586  MEMB      58              0.0000000000
      6693        58  OSM       C1S           -18.2561472070      -23.4090758865       18.8425191415  MEMB      58              0.0000000000
      6694        58  OSM       H1S           -17.1780073748      -23.1925842343       19.0008444202  MEMB      58              0.0000000000
      6695        58  OSM       H1T           -18.7663649255      -22.5745184035       19.3693139320  MEMB      58              0.0000000000
      6696        58  OSM       NF            -20.0105278440      -23.4040772059       17.1741509361  MEMB      58              0.0000000000
      6697        58  OSM       HNF           -20.4594752868      -24.2426589337       16.8754269772  MEMB      58              0.0000000000
      6698        58  OSM       C2S           -18.5397229572      -23.4413039179       17.2963629147  MEMB      58              0.0000000000
      6699        58  OSM       H2S           -18.0597778055      -22.5708807594       16.8000392457  MEMB      58              0.0000000000
      6700        58  OSM       C3S           -17.8841590096      -24.6869326832       16.6842943275  MEMB      58              0.0000000000
      6701        58  OSM       H3S           -18.2128478292      -25.5811177549       17.2558868108  MEMB      58              0.0000000000
      6702        58  OSM       O3            -16.5024507416      -24.6470364238       16.8331879809  MEMB      58              0.0000000000
      6703        58  OSM       HO3           -16.2386335465      -23.7654238269       17.1066108572  MEMB      58              0.0000000000
      6704        58  OSM       C4S           -18.3236539559      -24.7549551933       15.2175088186  MEMB      58              0.0000000000
      6705        58  OSM       H4S           -17.9809204894      -24.0596007991       14.4371137862  MEMB      58              0.0000000000
      6706        58  OSM       C5S           -19.1942842897      -25.6594698307       14.7675203756  MEMB      58              0.0000000000
      6707        58  OSM       H5S           -19.7021217180      -26.3817290191       15.4236017284  MEMB      58              0.0000000000
      6708        58  OSM       C6S           -19.7402247718      -25.7861225908       13.3671707302  MEMB      58              0.0000000000
      6709        58  OSM       H6S           -19.7480080410      -24.7999366707       12.8556066772  MEMB      58              0.0000000000
      6710        58  OSM       H6T           -20.7943412881      -26.1366648819       13.3504524508  MEMB      58              0.0000000000
      6711        58  OSM       C7S           -18.8796440723      -26.7650110750       12.5656932044  MEMB      58              0.0000000000
      6712        58  OSM       H7S           -18.9422484069      -27.8024697512       12.9582245555  MEMB      58              0.0000000000
      6713        58  OSM       H7T           -17.8353072931      -26.4047182096       12.6834676864  MEMB      58              0.0000000000
      6714        58  OSM       C8S           -19.3449630767      -26.8222812937       11.0889038066  MEMB      58              0.0000000000
      6715        58  OSM       H8S           -19.5556559009      -25.8082489087       10.6868244041  MEMB      58              0.0000000000
      6716        58  OSM       H8T           -20.3156573713      -27.3622873207       11.1105129936  MEMB      58              0.0000000000
      6717        58  OSM       C9S           -18.2641120636      -27.4386507602       10.2080170951  MEMB      58              0.0000000000
      6718        58  OSM       H9S           -18.1327101459      -28.4473704008       10.6547146955  MEMB      58              0.0000000000
      6719        58  OSM       H9T           -17.2917281118      -27.0330553282       10.5605545809  MEMB      58              0.0000000000
      6720        58  OSM       C10S          -18.3990279926      -27.3860157566        8.6583212085  MEMB      58              0.0000000000
      6721        58  OSM       H10S          -19.3640913894      -27.8483188758        8.3595748540  MEMB      58              0.0000000000
      6722        58  OSM       H10T          -17.4616753629      -27.8028678729        8.2317941574  MEMB      58              0.0000000000
      6723        58  OSM       C11S          -18.5569541399      -26.0646799171        8.0789329666  MEMB      58              0.0000000000
      6724        58  OSM       H11S          -17.6402717858      -25.5066591249        8.3663833075  MEMB      58              0.0000000000
      6725        58  OSM       H11T          -19.4333427840      -25.4692416285        8.4131751378  MEMB      58              0.0000000000
      6726        58  OSM       C12S          -18.6438678965      -26.1106284218        6.5285628054  MEMB      58              0.0000000000
      6727        58  OSM       H12S          -19.6420138141      -26.5350980672        6.2880403599  MEMB      58              0.0000000000
      6728        58  OSM       H12T          -17.8726171061      -26.7041937524        5.9926769653  MEMB      58              0.0000000000
      6729        58  OSM       C13S          -18.5626218856      -24.6789360048        5.8556125541  MEMB      58              0.0000000000
      6730        58  OSM       H13S          -17.5122876147      -24.3590587633        6.0253110205  MEMB      58              0.0000000000
      6731        58  OSM       H13T          -19.2691640517      -24.0522824532        6.4407827117  MEMB      58              0.0000000000
      6732        58  OSM       C14S          -18.9554488093      -24.6494572947        4.3819838000  MEMB      58              0.0000000000
      6733        58  OSM       H14S          -20.0387193676      -24.8628130146        4.2581881531  MEMB      58              0.0000000000
      6734        58  OSM       H14T          -18.5463368451      -25.4220937847        3.6964313068  MEMB      58              0.0000000000
      6735        58  OSM       C15S          -18.6136982629      -23.3352448952        3.6510098927  MEMB      58              0.0000000000
      6736        58  OSM       H15S          -17.5195380268      -23.1426503656        3.6445368248  MEMB      58              0.0000000000
      6737        58  OSM       H15T          -19.0148463003      -22.4445101851        4.1801541952  MEMB      58              0.0000000000
      6738        58  OSM       C16S          -19.1177354367      -23.2392190513        2.1541007578  MEMB      58              0.0000000000
      6739        58  OSM       H16S          -20.2054119750      -23.4452770067        2.0601817422  MEMB      58              0.0000000000
      6740        58  OSM       H16T          -18.6502980119      -24.0363669558        1.5373533407  MEMB      58              0.0000000000
      6741        58  OSM       C17S          -18.8846833915      -22.0212311405        1.3843251433  MEMB      58              0.0000000000
      6742        58  OSM       H17S          -19.5950215723      -21.2306111346        1.7078386628  MEMB      58              0.0000000000
      6743        58  OSM       H17T          -19.1422432437      -22.2650152050        0.3314467123  MEMB      58              0.0000000000
      6744        58  OSM       C18S          -17.3860676554      -21.5279290366        1.3057134603  MEMB      58              0.0000000000
      6745        58  OSM       H18S          -17.1207216915      -21.2316580510        2.3430841343  MEMB      58              0.0000000000
      6746        58  OSM       H18T          -17.2996307572      -20.6395499505        0.6441769538  MEMB      58              0.0000000000
      6747        58  OSM       H18U          -16.7116546728      -22.3466164094        0.9752000608  MEMB      58              0.0000000000
      6748        58  OSM       C1F           -20.7491266994      -22.2273927038       17.3464308760  MEMB      58              0.0000000000
      6749        58  OSM       OF            -20.2724523970      -21.0901307106       17.5216392528  MEMB      58              0.0000000000
      6750        58  OSM       C2F           -22.2548617329      -22.1349842231       17.1983875157  MEMB      58              0.0000000000
      6751        58  OSM       H2F           -22.6891263224      -21.1297998989       17.0103995872  MEMB      58              0.0000000000
      6752        58  OSM       H2G           -22.7205487787      -22.3734840216       18.1784764497  MEMB      58              0.0000000000
      6753        58  OSM       C3F           -22.7881613412      -23.1756050979       16.1885161908  MEMB      58              0.0000000000
      6754        58  OSM       H3F           -23.8970044324      -23.1930762049       16.1215630416  MEMB      58              0.0000000000
      6755        58  OSM       H3G           -22.5467239567      -24.2048200952       16.5301966069  MEMB      58              0.0000000000
      6756        58  OSM       C4F           -22.3930980282      -23.1533479909       14.7373690461  MEMB      58              0.0000000000
      6757        58  OSM       H4F           -22.7389469320      -24.1456480570       14.3767446612  MEMB      58              0.0000000000
      6758        58  OSM       H4G           -21.2875027989      -23.2057141612       14.6412546115  MEMB      58              0.0000000000
      6759        58  OSM       C5F           -23.0768545394      -22.0551368295       13.9253519308  MEMB      58              0.0000000000
      6760        58  OSM       H5F           -22.5422810924      -21.1660217965       14.3228779208  MEMB      58              0.0000000000
      6761        58  OSM       H5G           -24.1259043030      -21.9873657202       14.2848272752  MEMB      58              0.0000000000
      6762        58  OSM       C6F           -22.9411521724      -22.2146496580       12.4628437959  MEMB      58              0.0000000000
      6763        58  OSM       H6F           -23.2713329000      -23.2559906532       12.2605805082  MEMB      58              0.0000000000
      6764        58  OSM       H6G           -21.9476793975      -22.1458041694       11.9703068585  MEMB      58              0.0000000000
      6765        58  OSM       C7F           -23.8392076529      -21.2485981003       11.7059937172  MEMB      58              0.0000000000
      6766        58  OSM       H7F           -23.4237579618      -20.2391861221       11.9128999653  MEMB      58              0.0000000000
      6767        58  OSM       H7G           -24.8607800737      -21.2895105291       12.1407777845  MEMB      58              0.0000000000
      6768        58  OSM       C8F           -23.9929760387      -21.5894779018       10.2052607023  MEMB      58              0.0000000000
      6769        58  OSM       H8F           -24.5943909367      -20.8079964582        9.6934913581  MEMB      58              0.0000000000
      6770        58  OSM       H8G           -24.5993012180      -22.5088986834       10.0591238633  MEMB      58              0.0000000000
      6771        58  OSM       C9F           -22.6945958348      -21.5486125062        9.4435661126  MEMB      58              0.0000000000
      6772        58  OSM       H9F           -22.3492696908      -20.5255475952        9.2335938713  MEMB      58              0.0000000000
      6773        58  OSM       C10F          -21.9365669985      -22.5400973990        8.9548457761  MEMB      58              0.0000000000
      6774        58  OSM       H10F          -20.9923311054      -22.2940341210        8.4470348469  MEMB      58              0.0000000000
      6775        58  OSM       C11F          -22.2162924799      -24.0110900672        9.0987493701  MEMB      58              0.0000000000
      6776        58  OSM       H11F          -23.1104858478      -24.1670112214        9.7393949725  MEMB      58              0.0000000000
      6777        58  OSM       H11G          -21.2939394240      -24.4574092787        9.5281498236  MEMB      58              0.0000000000
      6778        58  OSM       C12F          -22.6147820776      -24.7834519615        7.8610085218  MEMB      58              0.0000000000
      6779        58  OSM       H12F          -22.7562520126      -25.8598306882        8.0970508744  MEMB      58              0.0000000000
      6780        58  OSM       H12G          -21.7883246888      -24.6828784045        7.1253624751  MEMB      58              0.0000000000
      6781        58  OSM       C13F          -23.8290381618      -24.3131629270        7.0121789277  MEMB      58              0.0000000000
      6782        58  OSM       H13F          -24.6866804387      -24.1796631798        7.7056827381  MEMB      58              0.0000000000
      6783        58  OSM       H13G          -23.9089383907      -25.1636922909        6.3018711411  MEMB      58              0.0000000000
      6784        58  OSM       C14F          -23.6617410290      -23.1612594073        6.0223066803  MEMB      58              0.0000000000
      6785        58  OSM       H14F          -23.3860671049      -22.2697507790        6.6252467364  MEMB      58              0.0000000000
      6786        58  OSM       H14G          -24.6565862586      -23.0899036060        5.5329062660  MEMB      58              0.0000000000
      6787        58  OSM       C15F          -22.8134534866      -23.4309843597        4.7548016896  MEMB      58              0.0000000000
      6788        58  OSM       H15F          -23.3679377095      -24.2321283940        4.2209139570  MEMB      58              0.0000000000
      6789        58  OSM       H15G          -21.8118046696      -23.8943512304        4.8825196939  MEMB      58              0.0000000000
      6790        58  OSM       C16F          -22.5919075361      -22.2720090202        3.8501474359  MEMB      58              0.0000000000
      6791        58  OSM       H16F          -22.0277211884      -22.5725194383        2.9414629026  MEMB      58              0.0000000000
      6792        58  OSM       H16G          -21.9916897238      -21.5338600365        4.4239026873  MEMB      58              0.0000000000
      6793        58  OSM       C17F          -23.8696253589      -21.5949073338        3.2787631272  MEMB      58              0.0000000000
      6794        58  OSM       H17F          -24.4171566389      -20.8805940139        3.9301355744  MEMB      58              0.0000000000
      6795        58  OSM       H17G          -24.4979146578      -22.4851729900        3.0619668531  MEMB      58              0.0000000000
      6796        58  OSM       C18F          -23.6650735757      -20.8447852508        1.9456824027  MEMB      58              0.0000000000
      6797        58  OSM       H18F          -24.5140841721      -20.1701166281        1.7041770404  MEMB      58              0.0000000000
      6798        58  OSM       H18G          -23.4569518068      -21.5187701611        1.0873401565  MEMB      58              0.0000000000
      6799        58  OSM       H18H          -22.7691821103      -20.1982213832        2.0625342450  MEMB      58              0.0000000000
      6800        59  CHL1      C3            -18.1109156934       26.3865121619       17.3643750000  MEMB      59              0.0000000000
      6801        59  CHL1      H3            -17.1311150097       26.9010398757       17.4622550000  MEMB      59              0.0000000000
      6802        59  CHL1      O3            -18.4012297066       25.8826812381       18.6356250000  MEMB      59              0.0000000000
      6803        59  CHL1      H3'           -17.5943759548       25.4534419207       18.9294950000  MEMB      59              0.0000000000
      6804        59  CHL1      C4            -19.2621536830       27.3726721444       16.9236950000  MEMB      59              0.0000000000
      6805        59  CHL1      H4A           -20.2709980195       26.9864999336       17.1833450000  MEMB      59              0.0000000000
      6806        59  CHL1      H4B           -19.1376347945       28.2195590600       17.6319350000  MEMB      59              0.0000000000
      6807        59  CHL1      C5            -19.1380542994       27.7161842215       15.4509350000  MEMB      59              0.0000000000
      6808        59  CHL1      C6            -19.1591238118       28.9768589344       15.0653550000  MEMB      59              0.0000000000
      6809        59  CHL1      H6            -19.1709013214       29.7345216024       15.8627350000  MEMB      59              0.0000000000
      6810        59  CHL1      C7            -19.2088782898       29.3736354734       13.5931750000  MEMB      59              0.0000000000
      6811        59  CHL1      H7A           -19.9574583394       30.1861100270       13.4755550000  MEMB      59              0.0000000000
      6812        59  CHL1      H7B           -18.1856716936       29.6688303514       13.2765850000  MEMB      59              0.0000000000
      6813        59  CHL1      C8            -19.6183045064       28.1753936826       12.6209050000  MEMB      59              0.0000000000
      6814        59  CHL1      H8            -20.7151720836       28.0289312485       12.7197250000  MEMB      59              0.0000000000
      6815        59  CHL1      C14           -19.3032354940       28.5774753949       11.1183350000  MEMB      59              0.0000000000
      6816        59  CHL1      H14           -18.1943669555       28.6202507019       11.0643850000  MEMB      59              0.0000000000
      6817        59  CHL1      C15           -19.8185786030       29.8805866699       10.5371050000  MEMB      59              0.0000000000
      6818        59  CHL1      H15A          -20.8998518340       29.9450388850       10.7841250000  MEMB      59              0.0000000000
      6819        59  CHL1      H15B          -19.2362880728       30.7373852830       10.9385550000  MEMB      59              0.0000000000
      6820        59  CHL1      C16           -19.7201000108       29.6933408104        9.0743450000  MEMB      59              0.0000000000
      6821        59  CHL1      H16A          -20.7202796856       29.9860600264        8.6892750000  MEMB      59              0.0000000000
      6822        59  CHL1      H16B          -18.9543702561       30.4037707162        8.6958550000  MEMB      59              0.0000000000
      6823        59  CHL1      C17           -19.3177880457       28.2507045281        8.8039750000  MEMB      59              0.0000000000
      6824        59  CHL1      H17           -18.2121173673       28.1641576630        8.8697150000  MEMB      59              0.0000000000
      6825        59  CHL1      C13           -19.6178507383       27.4915090566       10.0970750000  MEMB      59              0.0000000000
      6826        59  CHL1      C18           -21.0019194185       26.9947940614       10.0947150000  MEMB      59              0.0000000000
      6827        59  CHL1      H18A          -21.6716813921       27.7987473835        9.7213450000  MEMB      59              0.0000000000
      6828        59  CHL1      H18B          -21.0915137764       26.1494177967        9.3794250000  MEMB      59              0.0000000000
      6829        59  CHL1      H18C          -21.3879447959       26.5919391307       11.0554550000  MEMB      59              0.0000000000
      6830        59  CHL1      C12           -18.6123218291       26.3649324597       10.4941150000  MEMB      59              0.0000000000
      6831        59  CHL1      H12A          -18.8693605479       25.5526102240        9.7810950000  MEMB      59              0.0000000000
      6832        59  CHL1      H12B          -17.5379553640       26.6217949140       10.3755150000  MEMB      59              0.0000000000
      6833        59  CHL1      C11           -18.8700751246       25.8646568357       11.9729850000  MEMB      59              0.0000000000
      6834        59  CHL1      H11A          -19.9021894098       25.4571415959       12.0277150000  MEMB      59              0.0000000000
      6835        59  CHL1      H11B          -18.1760699235       25.0363933015       12.2311450000  MEMB      59              0.0000000000
      6836        59  CHL1      C9            -18.7953967063       26.9869221057       13.0096950000  MEMB      59              0.0000000000
      6837        59  CHL1      H9            -17.7450049217       27.3445925473       13.0653050000  MEMB      59              0.0000000000
      6838        59  CHL1      C10           -19.0880940183       26.5520748227       14.4974350000  MEMB      59              0.0000000000
      6839        59  CHL1      C19           -20.4217030346       25.7716061761       14.5932450000  MEMB      59              0.0000000000
      6840        59  CHL1      H19A          -20.6248361239       25.3860625898       15.6152050000  MEMB      59              0.0000000000
      6841        59  CHL1      H19B          -21.2420071291       26.3955377463       14.1783450000  MEMB      59              0.0000000000
      6842        59  CHL1      H19C          -20.3144728573       24.7738923887       14.1163950000  MEMB      59              0.0000000000
      6843        59  CHL1      C1            -17.8976628934       25.7015836227       14.9850050000  MEMB      59              0.0000000000
      6844        59  CHL1      H1A           -17.9813449194       24.8059488747       14.3329550000  MEMB      59              0.0000000000
      6845        59  CHL1      H1B           -16.9368244657       26.2463891394       14.8654250000  MEMB      59              0.0000000000
      6846        59  CHL1      C2            -17.8905224678       25.2111091699       16.4112250000  MEMB      59              0.0000000000
      6847        59  CHL1      H2A           -16.9912007136       24.5860755774       16.5979550000  MEMB      59              0.0000000000
      6848        59  CHL1      H2B           -18.7010240651       24.4687845214       16.5736250000  MEMB      59              0.0000000000
      6849        59  CHL1      C20           -19.6556962778       27.6802936559        7.3865750000  MEMB      59              0.0000000000
      6850        59  CHL1      H20           -19.1322852813       28.3492613487        6.6704450000  MEMB      59              0.0000000000
      6851        59  CHL1      C21           -21.1305483937       27.6945122181        6.9079550000  MEMB      59              0.0000000000
      6852        59  CHL1      H21A          -21.5540551965       28.7061861923        7.0853450000  MEMB      59              0.0000000000
      6853        59  CHL1      H21B          -21.7144107594       26.9573317313        7.4995650000  MEMB      59              0.0000000000
      6854        59  CHL1      H21C          -21.1680575328       27.4926522446        5.8160950000  MEMB      59              0.0000000000
      6855        59  CHL1      C22           -19.0144954090       26.2861967749        7.0627850000  MEMB      59              0.0000000000
      6856        59  CHL1      H22A          -17.9413429318       26.3805953786        7.3343750000  MEMB      59              0.0000000000
      6857        59  CHL1      H22B          -19.5317745429       25.5226435416        7.6822450000  MEMB      59              0.0000000000
      6858        59  CHL1      C23           -19.0345400288       25.9470992342        5.5879550000  MEMB      59              0.0000000000
      6859        59  CHL1      H23A          -18.6394405228       24.9092734208        5.6216050000  MEMB      59              0.0000000000
      6860        59  CHL1      H23B          -20.0785467546       25.9939192488        5.2108650000  MEMB      59              0.0000000000
      6861        59  CHL1      C24           -18.1402298002       26.7775236574        4.6891250000  MEMB      59              0.0000000000
      6862        59  CHL1      H24A          -18.3848948216       27.8582814629        4.6090450000  MEMB      59              0.0000000000
      6863        59  CHL1      H24B          -17.1272923143       26.7176324672        5.1415550000  MEMB      59              0.0000000000
      6864        59  CHL1      C25           -17.9179901095       26.1194140629        3.3162650000  MEMB      59              0.0000000000
      6865        59  CHL1      H25           -17.8032593728       25.0221992423        3.4476950000  MEMB      59              0.0000000000
      6866        59  CHL1      C26           -19.1593883898       26.1949801503        2.4173550000  MEMB      59              0.0000000000
      6867        59  CHL1      H26A          -19.3694762940       27.2484895766        2.1339750000  MEMB      59              0.0000000000
      6868        59  CHL1      H26B          -19.0814623550       25.4502611844        1.5965950000  MEMB      59              0.0000000000
      6869        59  CHL1      H26C          -20.0208995667       25.9305385678        3.0671250000  MEMB      59              0.0000000000
      6870        59  CHL1      C27           -16.7720501487       26.7128804334        2.5398350000  MEMB      59              0.0000000000
      6871        59  CHL1      H27A          -16.7146563185       26.1229736246        1.6001350000  MEMB      59              0.0000000000
      6872        59  CHL1      H27B          -17.0281084340       27.7664596161        2.2975050000  MEMB      59              0.0000000000
      6873        59  CHL1      H27C          -15.8228092052       26.7190173023        3.1170950000  MEMB      59              0.0000000000
      6874        60  SLPC      N              -1.9355537216      -30.2549943616       18.6128411490  MEMB      60              0.0000000000
      6875        60  SLPC      C13            -1.1611388068      -31.5620697592       18.8360100816  MEMB      60              0.0000000000
      6876        60  SLPC      H13A           -0.4137491892      -31.4260108674       19.6036668012  MEMB      60              0.0000000000
      6877        60  SLPC      H13B           -1.7613364272      -32.4542386218       18.9369925303  MEMB      60              0.0000000000
      6878        60  SLPC      H13C           -0.5921548329      -31.7072743986       17.9296035643  MEMB      60              0.0000000000
      6879        60  SLPC      C14            -1.0736110825      -29.1190661764       18.1639238825  MEMB      60              0.0000000000
      6880        60  SLPC      H14A           -0.8127564694      -28.5536091684       19.0463144639  MEMB      60              0.0000000000
      6881        60  SLPC      H14B           -0.1325388231      -29.4667378147       17.7640392476  MEMB      60              0.0000000000
      6882        60  SLPC      H14C           -1.5742117889      -28.4193096298       17.5111303233  MEMB      60              0.0000000000
      6883        60  SLPC      C15            -2.5681022412      -29.8665502921       19.9296838945  MEMB      60              0.0000000000
      6884        60  SLPC      H15A           -3.2023312895      -29.0049935433       19.7817875590  MEMB      60              0.0000000000
      6885        60  SLPC      H15B           -3.2126695589      -30.6710798806       20.2516545777  MEMB      60              0.0000000000
      6886        60  SLPC      H15C           -1.8308736926      -29.6676966984       20.6934582775  MEMB      60              0.0000000000
      6887        60  SLPC      C12            -2.9997114947      -30.5352836571       17.5265971077  MEMB      60              0.0000000000
      6888        60  SLPC      H12A           -3.4015624093      -29.6046468430       17.1539964641  MEMB      60              0.0000000000
      6889        60  SLPC      H12B           -3.7714306056      -31.0765672411       18.0537230738  MEMB      60              0.0000000000
      6890        60  SLPC      C11            -2.7335308470      -31.3952950177       16.2853917966  MEMB      60              0.0000000000
      6891        60  SLPC      H11A           -1.7987598913      -31.1072414175       15.7585622194  MEMB      60              0.0000000000
      6892        60  SLPC      H11B           -3.5674760369      -31.1568465873       15.5911304218  MEMB      60              0.0000000000
      6893        60  SLPC      P              -2.0360900019      -33.7266678625       15.5583005413  MEMB      60              0.0000000000
      6894        60  SLPC      O13            -0.6938628831      -33.2756634646       15.2166641190  MEMB      60              0.0000000000
      6895        60  SLPC      O14            -2.1832251197      -35.2050497382       15.9008804661  MEMB      60              0.0000000000
      6896        60  SLPC      O12            -2.6660208305      -32.7643648351       16.6354267032  MEMB      60              0.0000000000
      6897        60  SLPC      O11            -3.0316207069      -33.4957260027       14.3342802556  MEMB      60              0.0000000000
      6898        60  SLPC      C1             -4.2854045698      -34.1551896722       14.4831854510  MEMB      60              0.0000000000
      6899        60  SLPC      HA             -4.5228364683      -34.3518667758       15.5505491922  MEMB      60              0.0000000000
      6900        60  SLPC      HB             -4.9803204357      -33.3687809381       14.1185289859  MEMB      60              0.0000000000
      6901        60  SLPC      C2             -4.4220348265      -35.4122798745       13.5454014102  MEMB      60              0.0000000000
      6902        60  SLPC      HS             -4.2990459703      -36.3612369357       14.1099147195  MEMB      60              0.0000000000
      6903        60  SLPC      O21            -3.4831374885      -35.3866398856       12.4678584023  MEMB      60              0.0000000000
      6904        60  SLPC      C21            -3.1613754202      -36.5354496670       11.8817593071  MEMB      60              0.0000000000
      6905        60  SLPC      O22            -3.7102161851      -37.6268597111       11.9845087579  MEMB      60              0.0000000000
      6906        60  SLPC      C22            -1.8317028613      -36.3469165998       11.0903390327  MEMB      60              0.0000000000
      6907        60  SLPC      H2R            -1.9491835311      -35.4558668826       10.4372314507  MEMB      60              0.0000000000
      6908        60  SLPC      H2S            -1.0670063592      -36.0825029904       11.8516839283  MEMB      60              0.0000000000
      6909        60  SLPC      C3             -5.8244086900      -35.4053612436       12.8484846025  MEMB      60              0.0000000000
      6910        60  SLPC      HX             -6.4539209601      -35.4474128215       13.7629611178  MEMB      60              0.0000000000
      6911        60  SLPC      HY             -5.9500525238      -36.3205830009       12.2313106791  MEMB      60              0.0000000000
      6912        60  SLPC      O31            -5.9849321754      -34.1622840459       12.0729396402  MEMB      60              0.0000000000
      6913        60  SLPC      C31            -6.0544472134      -34.3096908169       10.6690328518  MEMB      60              0.0000000000
      6914        60  SLPC      O32            -6.2170949754      -35.4330070246       10.1567140943  MEMB      60              0.0000000000
      6915        60  SLPC      C32            -5.7427676389      -32.9868891254       10.0942957885  MEMB      60              0.0000000000
      6916        60  SLPC      H2X            -6.5473510603      -32.3075444703       10.4484950628  MEMB      60              0.0000000000
      6917        60  SLPC      H2Y            -5.6451228896      -33.0570372304        8.9898203893  MEMB      60              0.0000000000
      6918        60  SLPC      C23            -1.3154852852      -37.6614834457       10.4216066038  MEMB      60              0.0000000000
      6919        60  SLPC      H3R            -1.5283385525      -38.5210992392       11.0924829245  MEMB      60              0.0000000000
      6920        60  SLPC      H3S            -0.2192012471      -37.5382722438       10.2900736540  MEMB      60              0.0000000000
      6921        60  SLPC      C24            -1.8857429053      -37.9784033604        9.0762812918  MEMB      60              0.0000000000
      6922        60  SLPC      H4R            -2.8670309130      -38.4988421317        9.0994819342  MEMB      60              0.0000000000
      6923        60  SLPC      H4S            -1.2186647535      -38.7574568505        8.6491945090  MEMB      60              0.0000000000
      6924        60  SLPC      C25            -1.9904742121      -36.8423552019        7.9522475275  MEMB      60              0.0000000000
      6925        60  SLPC      H5R            -2.7086295964      -36.0638950527        8.2877668973  MEMB      60              0.0000000000
      6926        60  SLPC      H5S            -2.3964290359      -37.2478179548        7.0008690641  MEMB      60              0.0000000000
      6927        60  SLPC      C26            -0.5612994462      -36.1558833096        7.7452718234  MEMB      60              0.0000000000
      6928        60  SLPC      H6R             0.1337310083      -36.9386083414        7.3729876891  MEMB      60              0.0000000000
      6929        60  SLPC      H6S            -0.2050457277      -35.7094511485        8.6982162094  MEMB      60              0.0000000000
      6930        60  SLPC      C27            -0.5429816434      -35.1341396416        6.5810592385  MEMB      60              0.0000000000
      6931        60  SLPC      H7R            -1.1019194741      -34.2754961052        7.0107573795  MEMB      60              0.0000000000
      6932        60  SLPC      H7S            -0.9012811990      -35.5034357957        5.5963958949  MEMB      60              0.0000000000
      6933        60  SLPC      C28             0.9152930723      -34.6771376605        6.4532070559  MEMB      60              0.0000000000
      6934        60  SLPC      H8R             1.5906439187      -35.5094437574        6.1608224026  MEMB      60              0.0000000000
      6935        60  SLPC      H8S             1.1741921540      -34.4292580643        7.5048005308  MEMB      60              0.0000000000
      6936        60  SLPC      C29             0.9642786943      -33.4042318045        5.7119367774  MEMB      60              0.0000000000
      6937        60  SLPC      H9R             0.3526628874      -32.6312902343        6.2002883373  MEMB      60              0.0000000000
      6938        60  SLPC      C210            1.4730910058      -33.1562981931        4.5009624949  MEMB      60              0.0000000000
      6939        60  SLPC      H10R            1.2561771294      -32.1890285813        4.0241625630  MEMB      60              0.0000000000
      6940        60  SLPC      C211            2.1206663784      -34.1980554743        3.6280349345  MEMB      60              0.0000000000
      6941        60  SLPC      H11R            2.7245674680      -35.0066065979        4.0926527072  MEMB      60              0.0000000000
      6942        60  SLPC      H11S            2.8945569248      -33.6171672124        3.0821568673  MEMB      60              0.0000000000
      6943        60  SLPC      C212            1.1210209678      -34.8289760094        2.6790888822  MEMB      60              0.0000000000
      6944        60  SLPC      H12R            0.6115561166      -35.7474746664        3.0059000382  MEMB      60              0.0000000000
      6945        60  SLPC      C213            0.7881755895      -34.2870960575        1.4796932912  MEMB      60              0.0000000000
      6946        60  SLPC      H13R            0.0186714813      -34.8319250005        0.9131020835  MEMB      60              0.0000000000
      6947        60  SLPC      C214            1.3927039455      -33.0251625424        0.8439366995  MEMB      60              0.0000000000
      6948        60  SLPC      H14R            2.3171964612      -32.7462292547        1.3933280324  MEMB      60              0.0000000000
      6949        60  SLPC      H14S            0.7948187086      -32.1156940541        1.0669193328  MEMB      60              0.0000000000
      6950        60  SLPC      C215            1.5917568378      -33.0326061661       -0.6867991090  MEMB      60              0.0000000000
      6951        60  SLPC      H15R            2.2282095490      -33.8664323405       -1.0528356011  MEMB      60              0.0000000000
      6952        60  SLPC      H15S            2.0843181950      -32.0942947117       -1.0203794878  MEMB      60              0.0000000000
      6953        60  SLPC      C216            0.2613278182      -33.1274522985       -1.5406142652  MEMB      60              0.0000000000
      6954        60  SLPC      H16R           -0.2495273821      -34.0493848923       -1.1893484551  MEMB      60              0.0000000000
      6955        60  SLPC      H16S            0.5324556744      -33.1860410531       -2.6164307943  MEMB      60              0.0000000000
      6956        60  SLPC      C217           -0.6078956624      -31.8905017710       -1.3360654971  MEMB      60              0.0000000000
      6957        60  SLPC      H17R           -0.1412797309      -31.1041860232       -1.9671745255  MEMB      60              0.0000000000
      6958        60  SLPC      H17S           -0.6563506272      -31.4708159345       -0.3085253128  MEMB      60              0.0000000000
      6959        60  SLPC      C218           -2.0932878405      -31.9712988763       -1.7674328062  MEMB      60              0.0000000000
      6960        60  SLPC      H18R           -2.6987691603      -31.0565530629       -1.5914986354  MEMB      60              0.0000000000
      6961        60  SLPC      H18S           -2.6722593684      -32.8313976814       -1.3682551237  MEMB      60              0.0000000000
      6962        60  SLPC      H18T           -2.1905311345      -32.1843582941       -2.8534674743  MEMB      60              0.0000000000
      6963        60  SLPC      C33            -4.4293835343      -32.4342164133       10.6990156119  MEMB      60              0.0000000000
      6964        60  SLPC      H3X            -3.6839128346      -33.2467418976       10.5633808963  MEMB      60              0.0000000000
      6965        60  SLPC      H3Y            -4.5701878224      -32.4757468152       11.8002738078  MEMB      60              0.0000000000
      6966        60  SLPC      C34            -4.0847591442      -31.0637731418       10.1736933093  MEMB      60              0.0000000000
      6967        60  SLPC      H4X            -3.0816635779      -30.8153995701       10.5816526614  MEMB      60              0.0000000000
      6968        60  SLPC      H4Y            -4.7416954036      -30.2721659236       10.5933523132  MEMB      60              0.0000000000
      6969        60  SLPC      C35            -4.1150028108      -31.0935237458        8.6399054147  MEMB      60              0.0000000000
      6970        60  SLPC      H5X            -5.1236474169      -31.0485102190        8.1762992620  MEMB      60              0.0000000000
      6971        60  SLPC      H5Y            -3.5404464669      -31.9556337202        8.2386917416  MEMB      60              0.0000000000
      6972        60  SLPC      C36            -3.3131666694      -29.9473688102        8.1618479444  MEMB      60              0.0000000000
      6973        60  SLPC      H6X            -2.3505098524      -29.9542401483        8.7164339322  MEMB      60              0.0000000000
      6974        60  SLPC      H6Y            -3.8299291598      -29.0210964443        8.4924500506  MEMB      60              0.0000000000
      6975        60  SLPC      C37            -3.0611056990      -30.0388072766        6.6145002400  MEMB      60              0.0000000000
      6976        60  SLPC      H7X            -2.5307658135      -30.9874355302        6.3839237938  MEMB      60              0.0000000000
      6977        60  SLPC      H7Y            -2.3721619308      -29.2080006489        6.3509901809  MEMB      60              0.0000000000
      6978        60  SLPC      C38            -4.3413809061      -30.0443792494        5.7372862284  MEMB      60              0.0000000000
      6979        60  SLPC      H8X            -4.8762077733      -29.1389183392        6.0956444960  MEMB      60              0.0000000000
      6980        60  SLPC      H8Y            -5.0138159531      -30.9155199214        5.8898190581  MEMB      60              0.0000000000
      6981        60  SLPC      C39            -3.9644392944      -29.8256135817        4.2730916318  MEMB      60              0.0000000000
      6982        60  SLPC      H9X            -3.7056718558      -28.7504572164        4.1663264887  MEMB      60              0.0000000000
      6983        60  SLPC      H9Y            -4.7815304441      -29.8188173474        3.5203385989  MEMB      60              0.0000000000
      6984        60  SLPC      C310           -2.9854139188      -30.7628651367        3.6289451669  MEMB      60              0.0000000000
      6985        60  SLPC      H10X           -2.0004196538      -30.4087805766        4.0014125950  MEMB      60              0.0000000000
      6986        60  SLPC      H10Y           -2.9639964286      -30.6064571152        2.5292186931  MEMB      60              0.0000000000
      6987        60  SLPC      C311           -3.4089113782      -32.2679127646        3.9421210858  MEMB      60              0.0000000000
      6988        60  SLPC      H11X           -4.3322992529      -32.7211602063        3.5223081283  MEMB      60              0.0000000000
      6989        60  SLPC      H11Y           -3.3185615392      -32.5963640647        4.9996080654  MEMB      60              0.0000000000
      6990        60  SLPC      C312           -2.2916790567      -33.1797609478        3.3014689058  MEMB      60              0.0000000000
      6991        60  SLPC      H12X           -1.3261857136      -32.9801363934        3.8136148326  MEMB      60              0.0000000000
      6992        60  SLPC      H12Y           -2.1208389045      -32.9140063745        2.2363348209  MEMB      60              0.0000000000
      6993        60  SLPC      C313           -2.4864923260      -34.7218943639        3.4424085412  MEMB      60              0.0000000000
      6994        60  SLPC      H13X           -2.8827145793      -34.8517189315        4.4722011754  MEMB      60              0.0000000000
      6995        60  SLPC      H13Y           -1.4322297507      -35.0615037597        3.3557081356  MEMB      60              0.0000000000
      6996        60  SLPC      C314           -3.4053872613      -35.3206928691        2.3494316340  MEMB      60              0.0000000000
      6997        60  SLPC      H14X           -4.3406676034      -34.7611012493        2.1339575436  MEMB      60              0.0000000000
      6998        60  SLPC      H14Y           -3.7384027484      -36.3074247707        2.7364482952  MEMB      60              0.0000000000
      6999        60  SLPC      C315           -2.6826399927      -35.6502190855        1.0694622211  MEMB      60              0.0000000000
      7000        60  SLPC      H15X           -1.8616243856      -36.3639748212        1.2948666154  MEMB      60              0.0000000000
      7001        60  SLPC      H15Y           -2.1769426108      -34.7648905552        0.6281182964  MEMB      60              0.0000000000
      7002        60  SLPC      C316           -3.6344270913      -36.3745811550        0.0847372395  MEMB      60              0.0000000000
      7003        60  SLPC      H16X           -4.5675395083      -35.8231863662       -0.1593655903  MEMB      60              0.0000000000
      7004        60  SLPC      H16Y           -3.9163317560      -37.4045019764        0.3915172958  MEMB      60              0.0000000000
      7005        60  SLPC      C317           -2.6963063380      -36.5343858046       -1.1485853570  MEMB      60              0.0000000000
      7006        60  SLPC      H17X           -1.8507231597      -37.2287042117       -0.9556293585  MEMB      60              0.0000000000
      7007        60  SLPC      H17Y           -2.1487989143      -35.6303863525       -1.4911370076  MEMB      60              0.0000000000
      7008        60  SLPC      C318           -3.4741376169      -37.1427239266       -2.3321285435  MEMB      60              0.0000000000
      7009        60  SLPC      H18X           -2.8145943594      -37.3194402479       -3.2085383819  MEMB      60              0.0000000000
      7010        60  SLPC      H18Y           -4.3673336157      -36.5481784537       -2.6202907779  MEMB      60              0.0000000000
      7011        60  SLPC      H18Z           -3.8394305751      -38.1743804336       -2.1409039687  MEMB      60              0.0000000000
      7012        61  CHL1      C3              6.0229051801      -31.5722760853       17.3018050000  MEMB      61              0.0000000000
      7013        61  CHL1      H3              5.0240368544      -32.0262264592       17.1271150000  MEMB      61              0.0000000000
      7014        61  CHL1      O3              6.0183392399      -31.3483971147       18.6981950000  MEMB      61              0.0000000000
      7015        61  CHL1      H3'             5.2346504363      -30.8028080446       18.7970950000  MEMB      61              0.0000000000
      7016        61  CHL1      C4              7.2172827353      -32.4407333910       16.8003250000  MEMB      61              0.0000000000
      7017        61  CHL1      H4A             8.1798013903      -32.2947159710       17.3356450000  MEMB      61              0.0000000000
      7018        61  CHL1      H4B             6.8765186451      -33.3923096277       17.2615450000  MEMB      61              0.0000000000
      7019        61  CHL1      C5              7.4160111044      -32.5259960752       15.2827550000  MEMB      61              0.0000000000
      7020        61  CHL1      C6              7.5836773055      -33.6370548984       14.6702750000  MEMB      61              0.0000000000
      7021        61  CHL1      H6              7.7074153649      -34.5897111100       15.2061250000  MEMB      61              0.0000000000
      7022        61  CHL1      C7              7.9324896918      -33.5992087141       13.2017550000  MEMB      61              0.0000000000
      7023        61  CHL1      H7A             8.9289330379      -34.0515943210       13.0099350000  MEMB      61              0.0000000000
      7024        61  CHL1      H7B             7.2154852744      -34.2420858846       12.6477250000  MEMB      61              0.0000000000
      7025        61  CHL1      C8              7.8809348471      -32.2690401327       12.3722550000  MEMB      61              0.0000000000
      7026        61  CHL1      H8              8.8718772223      -31.7707714521       12.3083850000  MEMB      61              0.0000000000
      7027        61  CHL1      C14             7.5347596944      -32.5797845552       10.9151750000  MEMB      61              0.0000000000
      7028        61  CHL1      H14             6.4375297634      -32.7335033932       10.9975650000  MEMB      61              0.0000000000
      7029        61  CHL1      C15             8.0989300916      -33.8318893104       10.2157150000  MEMB      61              0.0000000000
      7030        61  CHL1      H15A            9.1588561928      -33.9445930591       10.5290250000  MEMB      61              0.0000000000
      7031        61  CHL1      H15B            7.4695095470      -34.7205419668       10.4358150000  MEMB      61              0.0000000000
      7032        61  CHL1      C16             8.0597087088      -33.4034736426        8.6464550000  MEMB      61              0.0000000000
      7033        61  CHL1      H16A            9.1270524463      -33.2353905732        8.3878750000  MEMB      61              0.0000000000
      7034        61  CHL1      H16B            7.6041390617      -34.1392053457        7.9496950000  MEMB      61              0.0000000000
      7035        61  CHL1      C17             7.4254593779      -31.9423354375        8.6165050000  MEMB      61              0.0000000000
      7036        61  CHL1      H17             6.3471186771      -32.1752272146        8.4851550000  MEMB      61              0.0000000000
      7037        61  CHL1      C13             7.7110991284      -31.3533959233       10.0539750000  MEMB      61              0.0000000000
      7038        61  CHL1      C18             9.1294041517      -30.8231367969       10.0761850000  MEMB      61              0.0000000000
      7039        61  CHL1      H18A            9.8464139600      -31.6504323749        9.8869850000  MEMB      61              0.0000000000
      7040        61  CHL1      H18B            9.3714676008      -30.0504180005        9.3155150000  MEMB      61              0.0000000000
      7041        61  CHL1      H18C            9.3822737366      -30.3377866061       11.0430350000  MEMB      61              0.0000000000
      7042        61  CHL1      C12             6.6514083819      -30.3128185538       10.6319650000  MEMB      61              0.0000000000
      7043        61  CHL1      H12A            6.7106910708      -29.3910649016       10.0145750000  MEMB      61              0.0000000000
      7044        61  CHL1      H12B            5.6051631477      -30.6368912473       10.4457450000  MEMB      61              0.0000000000
      7045        61  CHL1      C11             6.7576357319      -30.0598820101       12.1194950000  MEMB      61              0.0000000000
      7046        61  CHL1      H11A            7.7104037725      -29.4895781244       12.1556950000  MEMB      61              0.0000000000
      7047        61  CHL1      H11B            5.9328001514      -29.3832920237       12.4296850000  MEMB      61              0.0000000000
      7048        61  CHL1      C9              6.8840379049      -31.3198164727       13.0192250000  MEMB      61              0.0000000000
      7049        61  CHL1      H9              5.8820958974      -31.7878954516       12.9127850000  MEMB      61              0.0000000000
      7050        61  CHL1      C10             7.1239192087      -31.1315537262       14.5112050000  MEMB      61              0.0000000000
      7051        61  CHL1      C19             8.3708447444      -30.3998304481       14.7739050000  MEMB      61              0.0000000000
      7052        61  CHL1      H19A            9.2804776292      -30.9533553505       14.4569150000  MEMB      61              0.0000000000
      7053        61  CHL1      H19B            8.3504440008      -29.4975771696       14.1259450000  MEMB      61              0.0000000000
      7054        61  CHL1      H19C            8.4739152568      -29.9060790391       15.7638150000  MEMB      61              0.0000000000
      7055        61  CHL1      C1              5.9507647099      -30.3842624466       15.0894350000  MEMB      61              0.0000000000
      7056        61  CHL1      H1A             5.9460433523      -29.4065663729       14.5617850000  MEMB      61              0.0000000000
      7057        61  CHL1      H1B             4.9695706045      -30.8044598230       14.7811750000  MEMB      61              0.0000000000
      7058        61  CHL1      C2              5.9794734548      -30.1529837572       16.5999750000  MEMB      61              0.0000000000
      7059        61  CHL1      H2A             5.0486014203      -29.6149559552       16.8797850000  MEMB      61              0.0000000000
      7060        61  CHL1      H2B             6.8416748240      -29.5476383557       16.9528150000  MEMB      61              0.0000000000
      7061        61  CHL1      C20             7.8729389367      -31.1450732820        7.3534250000  MEMB      61              0.0000000000
      7062        61  CHL1      H20             8.9758699120      -31.1356167045        7.4867650000  MEMB      61              0.0000000000
      7063        61  CHL1      C21             7.2205616610      -29.7843376831        7.2324450000  MEMB      61              0.0000000000
      7064        61  CHL1      H21A            7.5033111424      -29.2749109750        6.2864750000  MEMB      61              0.0000000000
      7065        61  CHL1      H21B            7.5656546199      -29.1761892200        8.0957950000  MEMB      61              0.0000000000
      7066        61  CHL1      H21C            6.1128009553      -29.8279611189        7.3051050000  MEMB      61              0.0000000000
      7067        61  CHL1      C22             7.5702251542      -31.8543608246        5.9884450000  MEMB      61              0.0000000000
      7068        61  CHL1      H22A            7.5619680203      -32.9630200220        6.0599850000  MEMB      61              0.0000000000
      7069        61  CHL1      H22B            6.5356446121      -31.5569121623        5.7137050000  MEMB      61              0.0000000000
      7070        61  CHL1      C23             8.5456619605      -31.4915732628        4.8791150000  MEMB      61              0.0000000000
      7071        61  CHL1      H23A            8.8312021987      -30.4185711846        4.8410350000  MEMB      61              0.0000000000
      7072        61  CHL1      H23B            9.4248036631      -32.1401489154        5.0810350000  MEMB      61              0.0000000000
      7073        61  CHL1      C24             7.9972386530      -31.8831679823        3.4930050000  MEMB      61              0.0000000000
      7074        61  CHL1      H24A            7.6690098454      -32.9167594548        3.7343850000  MEMB      61              0.0000000000
      7075        61  CHL1      H24B            7.0571657205      -31.3400883416        3.2570550000  MEMB      61              0.0000000000
      7076        61  CHL1      C25             8.9730183691      -31.7939900508        2.3281250000  MEMB      61              0.0000000000
      7077        61  CHL1      H25             9.3799114564      -30.7617653638        2.2709550000  MEMB      61              0.0000000000
      7078        61  CHL1      C26            10.1166373092      -32.8356152851        2.5769750000  MEMB      61              0.0000000000
      7079        61  CHL1      H26A           10.8095265652      -32.8845534604        1.7098850000  MEMB      61              0.0000000000
      7080        61  CHL1      H26B           10.7362155718      -32.4138072711        3.3970650000  MEMB      61              0.0000000000
      7081        61  CHL1      H26C            9.8108112407      -33.8666120352        2.8559550000  MEMB      61              0.0000000000
      7082        61  CHL1      C27             8.2726321730      -32.2229339936        0.9904150000  MEMB      61              0.0000000000
      7083        61  CHL1      H27A            7.4604016450      -31.5229758419        0.6995150000  MEMB      61              0.0000000000
      7084        61  CHL1      H27B            8.9696397922      -32.0216190011        0.1489950000  MEMB      61              0.0000000000
      7085        61  CHL1      H27C            7.8003771114      -33.2273940701        1.0390050000  MEMB      61              0.0000000000
      7086        62  SAPI      C12            12.7516161850      -28.0227412242       22.7663315828  MEMB      62              0.0000000000
      7087        62  SAPI      H2             12.4164285140      -27.4990535748       21.8456136817  MEMB      62              0.0000000000
      7088        62  SAPI      O2             14.0300226596      -27.4547921207       23.0692541311  MEMB      62              0.0000000000
      7089        62  SAPI      HO2            14.3238355039      -27.8999247871       23.8674589342  MEMB      62              0.0000000000
      7090        62  SAPI      C13            11.7272669465      -27.8059480320       23.8300178016  MEMB      62              0.0000000000
      7091        62  SAPI      H3             10.8114213660      -28.2652684349       23.4003989123  MEMB      62              0.0000000000
      7092        62  SAPI      O3             11.6339749653      -26.3970647197       24.2192589134  MEMB      62              0.0000000000
      7093        62  SAPI      HO3            12.5122337727      -26.0269719542       24.3345539463  MEMB      62              0.0000000000
      7094        62  SAPI      C14            11.9975883949      -28.5868919578       25.0542670204  MEMB      62              0.0000000000
      7095        62  SAPI      H4             13.0324149652      -28.3215658619       25.3593199684  MEMB      62              0.0000000000
      7096        62  SAPI      O4             11.1835741211      -28.3027428668       26.1551289195  MEMB      62              0.0000000000
      7097        62  SAPI      HO4            11.6779477093      -28.7480129316       26.8471765387  MEMB      62              0.0000000000
      7098        62  SAPI      C15            12.0189418312      -30.0903968053       24.8082801635  MEMB      62              0.0000000000
      7099        62  SAPI      H5             11.0054467230      -30.4461304813       24.5243751286  MEMB      62              0.0000000000
      7100        62  SAPI      O5             12.3075400018      -30.8733352407       25.9767227369  MEMB      62              0.0000000000
      7101        62  SAPI      HO5            12.0556900602      -31.7843475962       25.8087108731  MEMB      62              0.0000000000
      7102        62  SAPI      C16            13.1497805420      -30.3354503308       23.7611776593  MEMB      62              0.0000000000
      7103        62  SAPI      H6             14.1446856408      -30.0350279055       24.1539003679  MEMB      62              0.0000000000
      7104        62  SAPI      O6             13.1209969492      -31.7364390618       23.4993282622  MEMB      62              0.0000000000
      7105        62  SAPI      HO6            13.8682409500      -31.9854529883       22.9504945131  MEMB      62              0.0000000000
      7106        62  SAPI      C11            12.7786875030      -29.5197608081       22.4982778603  MEMB      62              0.0000000000
      7107        62  SAPI      H1             11.8330841319      -29.9328495413       22.0865583168  MEMB      62              0.0000000000
      7108        62  SAPI      P              13.8079168335      -29.2853480118       20.0558020107  MEMB      62              0.0000000000
      7109        62  SAPI      O13            14.0388119041      -27.8115837112       19.9953805626  MEMB      62              0.0000000000
      7110        62  SAPI      O14            12.7302518076      -29.8198051537       19.2277490647  MEMB      62              0.0000000000
      7111        62  SAPI      O12            13.7749927203      -29.8351726768       21.6060828003  MEMB      62              0.0000000000
      7112        62  SAPI      O11            15.0926108649      -30.0752691326       19.5924946439  MEMB      62              0.0000000000
      7113        62  SAPI      C1             16.3798831347      -29.9538207596       20.3220969906  MEMB      62              0.0000000000
      7114        62  SAPI      HA             16.6908858495      -28.8922572731       20.4254463455  MEMB      62              0.0000000000
      7115        62  SAPI      HB             16.3656959546      -30.4298046776       21.3258693546  MEMB      62              0.0000000000
      7116        62  SAPI      C2             17.4987439682      -30.5791043634       19.5122603654  MEMB      62              0.0000000000
      7117        62  SAPI      HS             18.5331133684      -30.3852874453       19.8684005500  MEMB      62              0.0000000000
      7118        62  SAPI      O21            17.3975140964      -30.1919414505       18.0735110748  MEMB      62              0.0000000000
      7119        62  SAPI      C21            18.1724145768      -29.1597534772       17.6957533836  MEMB      62              0.0000000000
      7120        62  SAPI      O22            18.9513586759      -28.5212626540       18.3837233359  MEMB      62              0.0000000000
      7121        62  SAPI      C22            17.9209388203      -28.9097962173       16.2226072189  MEMB      62              0.0000000000
      7122        62  SAPI      H2R            18.8646604001      -28.4949032748       15.8083914653  MEMB      62              0.0000000000
      7123        62  SAPI      H2S            17.6889747416      -29.8875982529       15.7488807209  MEMB      62              0.0000000000
      7124        62  SAPI      C3             17.5320927401      -32.1162801993       19.6881335442  MEMB      62              0.0000000000
      7125        62  SAPI      HX             17.5912329211      -32.3444456874       20.7738425406  MEMB      62              0.0000000000
      7126        62  SAPI      HY             18.3992493010      -32.6064069622       19.1960598172  MEMB      62              0.0000000000
      7127        62  SAPI      O31            16.3025541946      -32.6796503736       19.1913324112  MEMB      62              0.0000000000
      7128        62  SAPI      C31            16.2626155209      -33.9175200488       19.0746614268  MEMB      62              0.0000000000
      7129        62  SAPI      O32            17.1312363229      -34.6458234339       19.5187399957  MEMB      62              0.0000000000
      7130        62  SAPI      C32            14.9254875245      -34.4604543185       18.5545389096  MEMB      62              0.0000000000
      7131        62  SAPI      H2X            14.3758749034      -34.9285407508       19.3990162107  MEMB      62              0.0000000000
      7132        62  SAPI      H2Y            15.0700131548      -35.2268454491       17.7632883268  MEMB      62              0.0000000000
      7133        62  SAPI      C23            16.7702263576      -27.9681449672       15.9035713782  MEMB      62              0.0000000000
      7134        62  SAPI      H3R            16.9906392461      -27.4452003456       14.9484442775  MEMB      62              0.0000000000
      7135        62  SAPI      H3S            16.8873899080      -27.1113576137       16.6010734366  MEMB      62              0.0000000000
      7136        62  SAPI      C24            15.3286233508      -28.5744892134       15.9130154719  MEMB      62              0.0000000000
      7137        62  SAPI      H4R            14.9389725125      -28.9377266898       16.8879777313  MEMB      62              0.0000000000
      7138        62  SAPI      H4S            15.4554873267      -29.5353512537       15.3699034828  MEMB      62              0.0000000000
      7139        62  SAPI      C25            14.3691050506      -27.5680287116       15.2890954866  MEMB      62              0.0000000000
      7140        62  SAPI      H5R            14.1334294939      -26.6806616014       15.8949311551  MEMB      62              0.0000000000
      7141        62  SAPI      C26            13.6901772846      -27.6132308682       14.1081694717  MEMB      62              0.0000000000
      7142        62  SAPI      H6R            13.1293371193      -26.6987901999       13.8647428467  MEMB      62              0.0000000000
      7143        62  SAPI      C27            13.7185480460      -28.6671683152       13.0488132537  MEMB      62              0.0000000000
      7144        62  SAPI      H7R            13.0249433645      -29.4600746046       13.4017063062  MEMB      62              0.0000000000
      7145        62  SAPI      H7S            14.7355962566      -29.1041562356       12.9540737146  MEMB      62              0.0000000000
      7146        62  SAPI      C28            13.2822298398      -28.1963434253       11.7249940732  MEMB      62              0.0000000000
      7147        62  SAPI      H8R            13.6993292696      -27.2053535632       11.4926864740  MEMB      62              0.0000000000
      7148        62  SAPI      C29            12.5959907330      -28.8104265094       10.7546762144  MEMB      62              0.0000000000
      7149        62  SAPI      H9R            12.2207756291      -28.2634003187        9.8771935804  MEMB      62              0.0000000000
      7150        62  SAPI      C210           12.0967584056      -30.2747057272       10.8357367843  MEMB      62              0.0000000000
      7151        62  SAPI      H10R           12.0154815301      -30.6081722308       11.8923899567  MEMB      62              0.0000000000
      7152        62  SAPI      H10S           12.9119443340      -30.9178704853       10.4406012874  MEMB      62              0.0000000000
      7153        62  SAPI      C211           10.7563664598      -30.5758085929       10.2219764490  MEMB      62              0.0000000000
      7154        62  SAPI      H11R            9.9020781130      -30.4186156096       10.8968701718  MEMB      62              0.0000000000
      7155        62  SAPI      C212           10.4357399846      -31.0564853837        9.0595810376  MEMB      62              0.0000000000
      7156        62  SAPI      H12R            9.3856186744      -31.3431728224        8.9012930511  MEMB      62              0.0000000000
      7157        62  SAPI      C213           11.3463563498      -31.3770315669        7.9304169511  MEMB      62              0.0000000000
      7158        62  SAPI      H13R           12.3527966493      -31.5917362534        8.3491065961  MEMB      62              0.0000000000
      7159        62  SAPI      H13S           11.4111143173      -30.4832380279        7.2737121427  MEMB      62              0.0000000000
      7160        62  SAPI      C214           10.8371281711      -32.4252408675        6.9417720164  MEMB      62              0.0000000000
      7161        62  SAPI      H14R            9.9769545222      -32.9939297897        7.3247788978  MEMB      62              0.0000000000
      7162        62  SAPI      C215           11.3251050297      -32.6677380180        5.6562818802  MEMB      62              0.0000000000
      7163        62  SAPI      H15R           10.8153079620      -33.4970405093        5.1440665660  MEMB      62              0.0000000000
      7164        62  SAPI      C216           12.4581345442      -31.8931573502        5.1133608375  MEMB      62              0.0000000000
      7165        62  SAPI      H16R           12.8937132659      -31.2089057046        5.8725654744  MEMB      62              0.0000000000
      7166        62  SAPI      H16S           12.0108822757      -31.2464420145        4.3284748950  MEMB      62              0.0000000000
      7167        62  SAPI      C217           13.6602591948      -32.7415139179        4.6362749550  MEMB      62              0.0000000000
      7168        62  SAPI      H17R           13.3088638238      -33.5615597432        3.9741822372  MEMB      62              0.0000000000
      7169        62  SAPI      H17S           14.3140804839      -33.1151792375        5.4531056539  MEMB      62              0.0000000000
      7170        62  SAPI      C218           14.5855068669      -31.8845116102        3.6970811419  MEMB      62              0.0000000000
      7171        62  SAPI      H18R           15.0870567875      -31.1468630086        4.3593830572  MEMB      62              0.0000000000
      7172        62  SAPI      H18S           13.9723892917      -31.3331366677        2.9525049821  MEMB      62              0.0000000000
      7173        62  SAPI      C219           15.6370121412      -32.7012180101        2.9982454387  MEMB      62              0.0000000000
      7174        62  SAPI      H19R           15.1406491647      -33.5719657507        2.5189294783  MEMB      62              0.0000000000
      7175        62  SAPI      H19S           16.2200358366      -33.0797669998        3.8649078411  MEMB      62              0.0000000000
      7176        62  SAPI      C220           16.5218576874      -31.8550890845        2.0814337210  MEMB      62              0.0000000000
      7177        62  SAPI      H20R           15.8632697572      -31.3011432594        1.3787762547  MEMB      62              0.0000000000
      7178        62  SAPI      H20S           17.2528583321      -32.5363307210        1.5957701430  MEMB      62              0.0000000000
      7179        62  SAPI      H20T           16.9499148610      -31.0140636829        2.6677479885  MEMB      62              0.0000000000
      7180        62  SAPI      C33            14.0986672476      -33.4406620203       17.8602064173  MEMB      62              0.0000000000
      7181        62  SAPI      H3X            13.8155450307      -32.6785358951       18.6173898035  MEMB      62              0.0000000000
      7182        62  SAPI      H3Y            13.2030286697      -33.9626482009       17.4606027622  MEMB      62              0.0000000000
      7183        62  SAPI      C34            14.7359969273      -32.6188596471       16.6886947620  MEMB      62              0.0000000000
      7184        62  SAPI      H4X            15.5667864477      -31.9554328754       17.0111455227  MEMB      62              0.0000000000
      7185        62  SAPI      H4Y            13.9351108447      -31.8787972420       16.4760677986  MEMB      62              0.0000000000
      7186        62  SAPI      C35            15.0240636584      -33.2666510854       15.3955395733  MEMB      62              0.0000000000
      7187        62  SAPI      H5X            14.0548710946      -33.7840016521       15.2302062874  MEMB      62              0.0000000000
      7188        62  SAPI      H5Y            15.7415571818      -34.1063905501       15.5153789662  MEMB      62              0.0000000000
      7189        62  SAPI      C36            15.3293901363      -32.3187261611       14.2738291181  MEMB      62              0.0000000000
      7190        62  SAPI      H6X            16.3004290277      -31.9497140850       14.6678276291  MEMB      62              0.0000000000
      7191        62  SAPI      H6Y            14.5252068219      -31.5532813848       14.3151165594  MEMB      62              0.0000000000
      7192        62  SAPI      C37            15.6639364677      -32.9112351643       12.9234168289  MEMB      62              0.0000000000
      7193        62  SAPI      H7X            14.7724904931      -33.4320533247       12.5130588012  MEMB      62              0.0000000000
      7194        62  SAPI      H7Y            16.3220989500      -33.8056047720       12.9587206246  MEMB      62              0.0000000000
      7195        62  SAPI      C38            16.0424143625      -31.9719878811       11.7465550374  MEMB      62              0.0000000000
      7196        62  SAPI      H8X            17.0466284950      -31.5321111586       11.9265096025  MEMB      62              0.0000000000
      7197        62  SAPI      H8Y            15.3826296338      -31.0793331162       11.6999435432  MEMB      62              0.0000000000
      7198        62  SAPI      C39            15.9083745002      -32.8207184010       10.4089927743  MEMB      62              0.0000000000
      7199        62  SAPI      H9X            14.8985623583      -33.2713591100       10.3016468564  MEMB      62              0.0000000000
      7200        62  SAPI      H9Y            16.6283654827      -33.6660734642       10.4451723666  MEMB      62              0.0000000000
      7201        62  SAPI      C310           16.2622391983      -31.9117122156        9.1586048956  MEMB      62              0.0000000000
      7202        62  SAPI      H10X           16.1292966048      -32.5135026678        8.2342160027  MEMB      62              0.0000000000
      7203        62  SAPI      H10Y           17.3262605566      -31.6153542734        9.2784032427  MEMB      62              0.0000000000
      7204        62  SAPI      C311           15.3814934591      -30.6956130767        8.9415792156  MEMB      62              0.0000000000
      7205        62  SAPI      H11X           15.4275793877      -29.9746192370        9.7855969496  MEMB      62              0.0000000000
      7206        62  SAPI      H11Y           14.3527099539      -31.1145523496        8.9619602557  MEMB      62              0.0000000000
      7207        62  SAPI      C312           15.5066152165      -29.9904574484        7.6154964773  MEMB      62              0.0000000000
      7208        62  SAPI      H12X           15.6226553622      -30.6853932010        6.7564740647  MEMB      62              0.0000000000
      7209        62  SAPI      H12Y           16.3913916227      -29.3185645207        7.6083075323  MEMB      62              0.0000000000
      7210        62  SAPI      C313           14.2759430737      -29.0149975415        7.3880869999  MEMB      62              0.0000000000
      7211        62  SAPI      H13X           14.0839953988      -28.5865697657        8.3950261194  MEMB      62              0.0000000000
      7212        62  SAPI      H13Y           13.3323445230      -29.5904024430        7.2747198328  MEMB      62              0.0000000000
      7213        62  SAPI      C314           14.3366063060      -27.9145404337        6.2495371712  MEMB      62              0.0000000000
      7214        62  SAPI      H14X           13.4187920096      -27.3165995750        6.4350222758  MEMB      62              0.0000000000
      7215        62  SAPI      H14Y           14.0474210091      -28.4433700870        5.3162464055  MEMB      62              0.0000000000
      7216        62  SAPI      C315           15.6620395030      -27.1990038492        6.0930903972  MEMB      62              0.0000000000
      7217        62  SAPI      H15X           16.3973131179      -27.9482639618        5.7293555341  MEMB      62              0.0000000000
      7218        62  SAPI      H15Y           16.0820907209      -26.9000653744        7.0772214389  MEMB      62              0.0000000000
      7219        62  SAPI      C316           15.5173280786      -25.9108161953        5.1691391768  MEMB      62              0.0000000000
      7220        62  SAPI      H16X           16.5230646150      -25.4622599692        5.0221269709  MEMB      62              0.0000000000
      7221        62  SAPI      H16Y           14.8008283228      -25.2082769124        5.6459911807  MEMB      62              0.0000000000
      7222        62  SAPI      C317           15.1771402927      -26.2346080772        3.6884520467  MEMB      62              0.0000000000
      7223        62  SAPI      H17X           14.3171309747      -26.9379205862        3.6809494566  MEMB      62              0.0000000000
      7224        62  SAPI      H17Y           16.0654836704      -26.7610672629        3.2785657704  MEMB      62              0.0000000000
      7225        62  SAPI      C318           15.0069217099      -24.9941988797        2.8530074788  MEMB      62              0.0000000000
      7226        62  SAPI      H18X           15.8961518643      -24.3313889839        2.7876341916  MEMB      62              0.0000000000
      7227        62  SAPI      H18Y           14.1798609520      -24.3852566586        3.2766594986  MEMB      62              0.0000000000
      7228        62  SAPI      H18Z           14.6748966833      -25.2665789080        1.8283656540  MEMB      62              0.0000000000
      7229        63  CHL1      C3            -10.1003384110      -32.1574124457       17.2938650000  MEMB      63              0.0000000000
      7230        63  CHL1      H3            -10.6170219515      -31.2234241640       16.9856050000  MEMB      63              0.0000000000
      7231        63  CHL1      O3             -9.9439575890      -32.4345223543       18.7061350000  MEMB      63              0.0000000000
      7232        63  CHL1      H3'           -10.8309559819      -32.6166225210       19.0249950000  MEMB      63              0.0000000000
      7233        63  CHL1      C4            -10.8689712014      -33.3238370312       16.6908950000  MEMB      63              0.0000000000
      7234        63  CHL1      H4A           -10.2379398920      -34.1880241214       16.9897350000  MEMB      63              0.0000000000
      7235        63  CHL1      H4B           -11.8209962530      -33.5511286336       17.2165450000  MEMB      63              0.0000000000
      7236        63  CHL1      C5            -11.0353992597      -33.1247530391       15.1777150000  MEMB      63              0.0000000000
      7237        63  CHL1      C6            -12.2685749642      -33.0165802491       14.6656150000  MEMB      63              0.0000000000
      7238        63  CHL1      H6            -13.1569051898      -33.1948380830       15.2893950000  MEMB      63              0.0000000000
      7239        63  CHL1      C7            -12.5524008858      -32.6338609211       13.2590850000  MEMB      63              0.0000000000
      7240        63  CHL1      H7A           -13.4567220808      -33.0852024907       12.7977750000  MEMB      63              0.0000000000
      7241        63  CHL1      H7B           -12.8169749168      -31.5578206781       13.3396250000  MEMB      63              0.0000000000
      7242        63  CHL1      C8            -11.3408975323      -32.7492748714       12.3056850000  MEMB      63              0.0000000000
      7243        63  CHL1      H8            -11.1673108933      -33.8430977209       12.2177050000  MEMB      63              0.0000000000
      7244        63  CHL1      C14           -11.6880399838      -32.1388426635       10.9734450000  MEMB      63              0.0000000000
      7245        63  CHL1      H14           -12.0831997622      -31.1299847270       11.2191750000  MEMB      63              0.0000000000
      7246        63  CHL1      C15           -12.8509164927      -32.8433942733       10.2378750000  MEMB      63              0.0000000000
      7247        63  CHL1      H15A          -12.5866209513      -33.9219935091       10.2049050000  MEMB      63              0.0000000000
      7248        63  CHL1      H15B          -13.8370702889      -32.5283115625       10.6410350000  MEMB      63              0.0000000000
      7249        63  CHL1      C16           -12.6917986965      -32.4472039447        8.7541150000  MEMB      63              0.0000000000
      7250        63  CHL1      H16A          -12.6874224006      -33.3163154379        8.0620550000  MEMB      63              0.0000000000
      7251        63  CHL1      H16B          -13.5384489467      -31.7440343421        8.6023150000  MEMB      63              0.0000000000
      7252        63  CHL1      C17           -11.3598693266      -31.6736492691        8.6874850000  MEMB      63              0.0000000000
      7253        63  CHL1      H17           -11.5419693200      -30.6050841391        8.9310450000  MEMB      63              0.0000000000
      7254        63  CHL1      C13           -10.5205929001      -32.1638254792        9.9536050000  MEMB      63              0.0000000000
      7255        63  CHL1      C18            -9.8814763164      -33.5862828113        9.6760650000  MEMB      63              0.0000000000
      7256        63  CHL1      H18A          -10.5543274022      -34.3234364572        9.1880150000  MEMB      63              0.0000000000
      7257        63  CHL1      H18B           -8.8876520496      -33.5071436628        9.1857950000  MEMB      63              0.0000000000
      7258        63  CHL1      H18C           -9.6069678412      -33.9778731253       10.6788750000  MEMB      63              0.0000000000
      7259        63  CHL1      C12            -9.4484337519      -31.2768011948       10.6184750000  MEMB      63              0.0000000000
      7260        63  CHL1      H12A           -8.6362805967      -31.3208244498        9.8616550000  MEMB      63              0.0000000000
      7261        63  CHL1      H12B           -9.7850299033      -30.2180710405       10.6286550000  MEMB      63              0.0000000000
      7262        63  CHL1      C11            -9.0164537798      -31.7453056679       12.0313250000  MEMB      63              0.0000000000
      7263        63  CHL1      H11A           -8.5237993482      -32.7329753628       11.9043650000  MEMB      63              0.0000000000
      7264        63  CHL1      H11B           -8.3082420583      -30.9917341432       12.4374050000  MEMB      63              0.0000000000
      7265        63  CHL1      C9            -10.1639807172      -32.0389584459       12.9857850000  MEMB      63              0.0000000000
      7266        63  CHL1      H9            -10.6388610220      -31.0732649409       13.2618950000  MEMB      63              0.0000000000
      7267        63  CHL1      C10            -9.7613033109      -32.7364318194       14.3645650000  MEMB      63              0.0000000000
      7268        63  CHL1      C19            -9.1161657121      -34.1422726092       14.1038650000  MEMB      63              0.0000000000
      7269        63  CHL1      H19A           -9.8036435350      -34.8109673670       13.5430150000  MEMB      63              0.0000000000
      7270        63  CHL1      H19B           -8.1594411128      -34.0306028985       13.5502150000  MEMB      63              0.0000000000
      7271        63  CHL1      H19C           -8.7756316626      -34.6025514487       15.0559650000  MEMB      63              0.0000000000
      7272        63  CHL1      C1             -8.6942906142      -31.8931827156       15.1353250000  MEMB      63              0.0000000000
      7273        63  CHL1      H1A            -7.7250459803      -32.0318545956       14.6103050000  MEMB      63              0.0000000000
      7274        63  CHL1      H1B            -8.9067473271      -30.8044862151       15.0726050000  MEMB      63              0.0000000000
      7275        63  CHL1      C2             -8.6374992073      -32.0706953039       16.6477050000  MEMB      63              0.0000000000
      7276        63  CHL1      H2A            -8.0589661178      -31.2251766046       17.0774850000  MEMB      63              0.0000000000
      7277        63  CHL1      H2B            -8.2725155122      -33.1058772999       16.8194850000  MEMB      63              0.0000000000
      7278        63  CHL1      C20           -10.6804070519      -31.6426959021        7.3060250000  MEMB      63              0.0000000000
      7279        63  CHL1      H20           -10.2791556871      -32.6591141742        7.1054650000  MEMB      63              0.0000000000
      7280        63  CHL1      C21            -9.4843816011      -30.6425501040        7.1941850000  MEMB      63              0.0000000000
      7281        63  CHL1      H21A           -9.7717693725      -29.5918939160        7.4129650000  MEMB      63              0.0000000000
      7282        63  CHL1      H21B           -9.1273822621      -30.7076897175        6.1441250000  MEMB      63              0.0000000000
      7283        63  CHL1      H21C           -8.5660924691      -30.9416816940        7.7433450000  MEMB      63              0.0000000000
      7284        63  CHL1      C22           -11.8713081642      -31.3051559199        6.3523550000  MEMB      63              0.0000000000
      7285        63  CHL1      H22A          -12.5195409715      -32.2056040280        6.4097650000  MEMB      63              0.0000000000
      7286        63  CHL1      H22B          -12.4187400129      -30.4541405666        6.8110750000  MEMB      63              0.0000000000
      7287        63  CHL1      C23           -11.5949130668      -30.9175211865        4.9081050000  MEMB      63              0.0000000000
      7288        63  CHL1      H23A          -12.5341342614      -30.6501940012        4.3782750000  MEMB      63              0.0000000000
      7289        63  CHL1      H23B          -10.9798622294      -30.0009131133        5.0340550000  MEMB      63              0.0000000000
      7290        63  CHL1      C24           -10.8146387441      -32.0233260145        4.1994350000  MEMB      63              0.0000000000
      7291        63  CHL1      H24A          -10.0237469637      -32.4414605886        4.8582050000  MEMB      63              0.0000000000
      7292        63  CHL1      H24B          -11.5500484041      -32.8308339410        3.9958950000  MEMB      63              0.0000000000
      7293        63  CHL1      C25           -10.2613775585      -31.8167332678        2.7551150000  MEMB      63              0.0000000000
      7294        63  CHL1      H25            -9.4940201431      -31.0292983635        2.9145550000  MEMB      63              0.0000000000
      7295        63  CHL1      C26            -9.6362650872      -33.0579199764        2.1955450000  MEMB      63              0.0000000000
      7296        63  CHL1      H26A          -10.3793618555      -33.8837203430        2.2094750000  MEMB      63              0.0000000000
      7297        63  CHL1      H26B           -9.1672472618      -32.7753385413        1.2288550000  MEMB      63              0.0000000000
      7298        63  CHL1      H26C           -8.8096376982      -33.3662286775        2.8707850000  MEMB      63              0.0000000000
      7299        63  CHL1      C27           -11.3422032701      -31.2498865150        1.7264050000  MEMB      63              0.0000000000
      7300        63  CHL1      H27A          -12.1643345526      -31.9860330543        1.8548550000  MEMB      63              0.0000000000
      7301        63  CHL1      H27B          -11.6719319864      -30.2201020898        1.9816150000  MEMB      63              0.0000000000
      7302        63  CHL1      H27C          -10.9304734756      -31.3529556083        0.6996750000  MEMB      63              0.0000000000
      7303        64  SLPC      N              35.6657183194        2.3289512436       16.0929498224  MEMB      64              0.0000000000
      7304        64  SLPC      C13            34.5138241974        2.3883011384       15.0877189881  MEMB      64              0.0000000000
      7305        64  SLPC      H13A           34.9737519451        2.8843293409       14.2458031317  MEMB      64              0.0000000000
      7306        64  SLPC      H13B           34.1788001588        1.4114640408       14.7715729522  MEMB      64              0.0000000000
      7307        64  SLPC      H13C           33.7700210308        2.9841962971       15.5957206799  MEMB      64              0.0000000000
      7308        64  SLPC      C14            36.9238768251        1.8261142328       15.2924161985  MEMB      64              0.0000000000
      7309        64  SLPC      H14A           36.7706172798        0.8734591792       14.8072775598  MEMB      64              0.0000000000
      7310        64  SLPC      H14B           36.9271869621        2.5365987540       14.4790278101  MEMB      64              0.0000000000
      7311        64  SLPC      H14C           37.8527528250        1.8082281062       15.8431155797  MEMB      64              0.0000000000
      7312        64  SLPC      C15            35.2844575796        1.2514738422       17.0641301123  MEMB      64              0.0000000000
      7313        64  SLPC      H15A           35.9826564945        1.1680599667       17.8838620552  MEMB      64              0.0000000000
      7314        64  SLPC      H15B           34.2762699250        1.3722303091       17.4320642215  MEMB      64              0.0000000000
      7315        64  SLPC      H15C           35.3163373111        0.2546749421       16.6496720991  MEMB      64              0.0000000000
      7316        64  SLPC      C12            35.9739002545        3.6434746432       16.6234250255  MEMB      64              0.0000000000
      7317        64  SLPC      H12A           35.9176390241        4.3920596965       15.8469875841  MEMB      64              0.0000000000
      7318        64  SLPC      H12B           36.9068285423        3.7120955371       17.1631803783  MEMB      64              0.0000000000
      7319        64  SLPC      C11            35.0099796239        4.1836707965       17.6896172246  MEMB      64              0.0000000000
      7320        64  SLPC      H11A           35.6236515910        5.0228039102       18.0815143128  MEMB      64              0.0000000000
      7321        64  SLPC      H11B           34.9628289878        3.3860927313       18.4616062744  MEMB      64              0.0000000000
      7322        64  SLPC      P              32.9391726753        5.7912844295       17.8659383667  MEMB      64              0.0000000000
      7323        64  SLPC      O13            31.6710646955        6.0017915055       17.1966654548  MEMB      64              0.0000000000
      7324        64  SLPC      O14            32.9730568974        5.3709113929       19.3197074150  MEMB      64              0.0000000000
      7325        64  SLPC      O12            33.7611809010        4.6530959528       17.1089455412  MEMB      64              0.0000000000
      7326        64  SLPC      O11            33.9319616191        7.0366591289       17.6584858532  MEMB      64              0.0000000000
      7327        64  SLPC      C1             33.5326781501        8.4084359739       17.4789592637  MEMB      64              0.0000000000
      7328        64  SLPC      HA             32.4645272028        8.6801261995       17.6188132185  MEMB      64              0.0000000000
      7329        64  SLPC      HB             34.1237584377        8.9576957150       18.2426730389  MEMB      64              0.0000000000
      7330        64  SLPC      C2             33.9870979524        8.9279819280       16.0921126271  MEMB      64              0.0000000000
      7331        64  SLPC      HS             33.7270276877        9.9964867125       15.9340574448  MEMB      64              0.0000000000
      7332        64  SLPC      O21            33.5641405756        8.0470705159       15.0372312894  MEMB      64              0.0000000000
      7333        64  SLPC      C21            32.6197300409        8.3605469274       14.2234167330  MEMB      64              0.0000000000
      7334        64  SLPC      O22            31.9797972403        9.4056848535       14.0966318003  MEMB      64              0.0000000000
      7335        64  SLPC      C22            32.4125594526        7.1690101536       13.2165497934  MEMB      64              0.0000000000
      7336        64  SLPC      H2R            32.7116644163        6.2433522127       13.7532195579  MEMB      64              0.0000000000
      7337        64  SLPC      H2S            31.4190218101        7.2816894876       12.7322902387  MEMB      64              0.0000000000
      7338        64  SLPC      C3             35.5264477637        8.9919936631       16.0253370033  MEMB      64              0.0000000000
      7339        64  SLPC      HX             35.9047634929        7.9578556469       16.1728376177  MEMB      64              0.0000000000
      7340        64  SLPC      HY             35.9034059863        9.7181150636       16.7769832271  MEMB      64              0.0000000000
      7341        64  SLPC      O31            36.0447466571        9.5957396255       14.7920093299  MEMB      64              0.0000000000
      7342        64  SLPC      C31            36.3182936221        8.8054568330       13.7934961142  MEMB      64              0.0000000000
      7343        64  SLPC      O32            36.2381047364        7.5496579503       13.7789433068  MEMB      64              0.0000000000
      7344        64  SLPC      C32            36.6443457776        9.6163463833       12.5347063952  MEMB      64              0.0000000000
      7345        64  SLPC      H2X            37.6053341711       10.1215404867       12.7705048395  MEMB      64              0.0000000000
      7346        64  SLPC      H2Y            35.8296734600       10.3646600049       12.4314728359  MEMB      64              0.0000000000
      7347        64  SLPC      C23            33.4144906815        7.0185037871       12.0917258167  MEMB      64              0.0000000000
      7348        64  SLPC      H3R            34.4059976483        6.6780580819       12.4596009027  MEMB      64              0.0000000000
      7349        64  SLPC      H3S            33.5792603087        8.0628309362       11.7503274330  MEMB      64              0.0000000000
      7350        64  SLPC      C24            32.8976734483        6.0536044546       10.9595714259  MEMB      64              0.0000000000
      7351        64  SLPC      H4R            32.7276755531        4.9828742462       11.2023852502  MEMB      64              0.0000000000
      7352        64  SLPC      H4S            33.8086936005        6.0909726729       10.3247746806  MEMB      64              0.0000000000
      7353        64  SLPC      C25            31.6446212592        6.5800563314       10.1912467472  MEMB      64              0.0000000000
      7354        64  SLPC      H5R            30.7893374031        6.7577137652       10.8777219836  MEMB      64              0.0000000000
      7355        64  SLPC      H5S            31.2016469396        5.8287705945        9.5030138315  MEMB      64              0.0000000000
      7356        64  SLPC      C26            31.8059715516        7.8760184001        9.2713196192  MEMB      64              0.0000000000
      7357        64  SLPC      H6R            32.8575105526        8.1158753589        9.0047578685  MEMB      64              0.0000000000
      7358        64  SLPC      H6S            31.4863204922        8.7495990820        9.8787744106  MEMB      64              0.0000000000
      7359        64  SLPC      C27            31.1110673789        7.7950874259        7.8853345710  MEMB      64              0.0000000000
      7360        64  SLPC      H7R            30.0153884496        7.8924722618        8.0412986723  MEMB      64              0.0000000000
      7361        64  SLPC      H7S            31.1140717759        6.8100683745        7.3714770653  MEMB      64              0.0000000000
      7362        64  SLPC      C28            31.5897151149        8.8883136553        6.9412219965  MEMB      64              0.0000000000
      7363        64  SLPC      H8R            31.7732772056        9.7781571926        7.5805999736  MEMB      64              0.0000000000
      7364        64  SLPC      H8S            30.7942415507        9.1596484271        6.2146407295  MEMB      64              0.0000000000
      7365        64  SLPC      C29            32.8703469848        8.3972109502        6.3376720433  MEMB      64              0.0000000000
      7366        64  SLPC      H9R            33.5030938228        7.9531768668        7.1202736002  MEMB      64              0.0000000000
      7367        64  SLPC      C210           33.3982138729        8.4463044011        5.0904154136  MEMB      64              0.0000000000
      7368        64  SLPC      H10R           34.3641704914        7.9255021622        5.0149644309  MEMB      64              0.0000000000
      7369        64  SLPC      C211           32.7022309383        9.0550279252        3.8609746183  MEMB      64              0.0000000000
      7370        64  SLPC      H11R           31.6035193500        8.9812775069        4.0083338538  MEMB      64              0.0000000000
      7371        64  SLPC      H11S           32.9362344708        8.4857508113        2.9360497347  MEMB      64              0.0000000000
      7372        64  SLPC      C212           32.8618675134       10.5384422421        3.6797727454  MEMB      64              0.0000000000
      7373        64  SLPC      H12R           31.9442496449       11.0621699884        3.9858557887  MEMB      64              0.0000000000
      7374        64  SLPC      C213           33.9922854338       11.2528370596        3.3503200767  MEMB      64              0.0000000000
      7375        64  SLPC      H13R           33.7848732986       12.3330771233        3.3424447469  MEMB      64              0.0000000000
      7376        64  SLPC      C214           35.4541565586       10.8119807021        3.1841827099  MEMB      64              0.0000000000
      7377        64  SLPC      H14R           35.5671885401        9.7360335535        3.4369329272  MEMB      64              0.0000000000
      7378        64  SLPC      H14S           36.1594456854       11.4688738453        3.7367943568  MEMB      64              0.0000000000
      7379        64  SLPC      C215           35.8875032357       10.7847487459        1.6583552558  MEMB      64              0.0000000000
      7380        64  SLPC      H15R           36.9513217266       10.4679424381        1.7057342727  MEMB      64              0.0000000000
      7381        64  SLPC      H15S           35.7801611171       11.7956852656        1.2102411364  MEMB      64              0.0000000000
      7382        64  SLPC      C216           35.1644062946        9.7032030104        0.8135344732  MEMB      64              0.0000000000
      7383        64  SLPC      H16R           34.0868489253        9.6872525506        1.0836021631  MEMB      64              0.0000000000
      7384        64  SLPC      H16S           35.5170588318        8.7065795157        1.1551455849  MEMB      64              0.0000000000
      7385        64  SLPC      C217           35.3195510030        9.7615891064       -0.7638577586  MEMB      64              0.0000000000
      7386        64  SLPC      H17R           34.9125701170        8.7744453166       -1.0708344755  MEMB      64              0.0000000000
      7387        64  SLPC      H17S           36.3893446433        9.8024690962       -1.0608284541  MEMB      64              0.0000000000
      7388        64  SLPC      C218           34.6918470678       10.9493439937       -1.4323557570  MEMB      64              0.0000000000
      7389        64  SLPC      H18R           34.7363231204       10.7631513501       -2.5267387913  MEMB      64              0.0000000000
      7390        64  SLPC      H18S           35.2109335390       11.8918339627       -1.1556194634  MEMB      64              0.0000000000
      7391        64  SLPC      H18T           33.6313924621       11.0831542548       -1.1292847432  MEMB      64              0.0000000000
      7392        64  SLPC      C33            36.9163030322        8.8702498581       11.1540742973  MEMB      64              0.0000000000
      7393        64  SLPC      H3X            36.0981070889        8.1190986212       11.1286183567  MEMB      64              0.0000000000
      7394        64  SLPC      H3Y            37.8914700270        8.3382684986       11.1349445019  MEMB      64              0.0000000000
      7395        64  SLPC      C34            36.7003018429        9.8624070545        9.9189380081  MEMB      64              0.0000000000
      7396        64  SLPC      H4X            37.6557123512       10.3962972949        9.7279591081  MEMB      64              0.0000000000
      7397        64  SLPC      H4Y            35.8389880115       10.5270524671       10.1441181770  MEMB      64              0.0000000000
      7398        64  SLPC      C35            36.3365224854        9.1910898222        8.6307860938  MEMB      64              0.0000000000
      7399        64  SLPC      H5X            35.8523994441        9.9543973756        7.9847918553  MEMB      64              0.0000000000
      7400        64  SLPC      H5Y            35.5666621006        8.4114780361        8.8147462059  MEMB      64              0.0000000000
      7401        64  SLPC      C36            37.5741252355        8.4852989703        7.9804795870  MEMB      64              0.0000000000
      7402        64  SLPC      H6X            37.9134599328        7.7323786624        8.7236371177  MEMB      64              0.0000000000
      7403        64  SLPC      H6Y            38.4060713746        9.2155712137        7.8861933816  MEMB      64              0.0000000000
      7404        64  SLPC      C37            37.2052309882        8.0399796729        6.5746109810  MEMB      64              0.0000000000
      7405        64  SLPC      H7X            38.1406327048        7.8596160915        6.0029350326  MEMB      64              0.0000000000
      7406        64  SLPC      H7Y            36.6300936696        8.8035050362        6.0084232480  MEMB      64              0.0000000000
      7407        64  SLPC      C38            36.3217664183        6.7343680351        6.4932943064  MEMB      64              0.0000000000
      7408        64  SLPC      H8X            35.9350749450        6.6310433414        5.4568987653  MEMB      64              0.0000000000
      7409        64  SLPC      H8Y            35.3745015712        6.8751143050        7.0565002407  MEMB      64              0.0000000000
      7410        64  SLPC      C39            36.9588709114        5.3117360223        6.7932486000  MEMB      64              0.0000000000
      7411        64  SLPC      H9X            37.2496865746        5.4958562572        7.8495852214  MEMB      64              0.0000000000
      7412        64  SLPC      H9Y            37.9058216343        5.1205353121        6.2445707632  MEMB      64              0.0000000000
      7413        64  SLPC      C310           36.0680370836        3.9686024199        6.5606931920  MEMB      64              0.0000000000
      7414        64  SLPC      H10X           36.5809504996        3.1112589502        7.0467001380  MEMB      64              0.0000000000
      7415        64  SLPC      H10Y           35.9524807818        3.8062266193        5.4677147144  MEMB      64              0.0000000000
      7416        64  SLPC      C311           34.6378417268        3.9625278835        7.1518616369  MEMB      64              0.0000000000
      7417        64  SLPC      H11X           34.1197909333        4.9012131572        6.8606331214  MEMB      64              0.0000000000
      7418        64  SLPC      H11Y           34.8250305442        4.0335129013        8.2446757963  MEMB      64              0.0000000000
      7419        64  SLPC      C312           33.7684007590        2.6679072837        6.9308419705  MEMB      64              0.0000000000
      7420        64  SLPC      H12X           34.1984208819        1.7399026813        7.3646747072  MEMB      64              0.0000000000
      7421        64  SLPC      H12Y           33.7803035008        2.3826632667        5.8571495727  MEMB      64              0.0000000000
      7422        64  SLPC      C313           32.3037079994        2.7303812141        7.3562857173  MEMB      64              0.0000000000
      7423        64  SLPC      H13X           32.2240209420        3.1626057394        8.3766542859  MEMB      64              0.0000000000
      7424        64  SLPC      H13Y           31.9267442029        1.6859722097        7.3940903018  MEMB      64              0.0000000000
      7425        64  SLPC      C314           31.3399796418        3.4533824304        6.3707498108  MEMB      64              0.0000000000
      7426        64  SLPC      H14X           31.8257754804        4.4175399885        6.1085990753  MEMB      64              0.0000000000
      7427        64  SLPC      H14Y           30.3196152074        3.7077235735        6.7292015893  MEMB      64              0.0000000000
      7428        64  SLPC      C315           30.9905060283        2.5859792770        5.1215516498  MEMB      64              0.0000000000
      7429        64  SLPC      H15X           30.0640650709        1.9976904474        5.2945960842  MEMB      64              0.0000000000
      7430        64  SLPC      H15Y           31.8474543653        1.9156953100        4.8964286659  MEMB      64              0.0000000000
      7431        64  SLPC      C316           30.8076009267        3.4522178411        3.8184104378  MEMB      64              0.0000000000
      7432        64  SLPC      H16X           31.5507294945        4.2761759810        3.7620728548  MEMB      64              0.0000000000
      7433        64  SLPC      H16Y           29.8261916314        3.9443337996        3.6481802306  MEMB      64              0.0000000000
      7434        64  SLPC      C317           31.1071993218        2.5936280379        2.5928222373  MEMB      64              0.0000000000
      7435        64  SLPC      H17X           30.2806712870        1.9055594093        2.3140145220  MEMB      64              0.0000000000
      7436        64  SLPC      H17Y           32.1391319456        2.1888958989        2.6678421695  MEMB      64              0.0000000000
      7437        64  SLPC      C318           31.0040963957        3.3858575702        1.2871322091  MEMB      64              0.0000000000
      7438        64  SLPC      H18X           30.8652291458        2.7174624811        0.4106134154  MEMB      64              0.0000000000
      7439        64  SLPC      H18Y           31.9779292957        3.8872241495        1.1011153776  MEMB      64              0.0000000000
      7440        64  SLPC      H18Z           30.2634717001        4.2139659037        1.2813636161  MEMB      64              0.0000000000
      7441        65  SAPE      N              16.2990630303       27.5167978123       21.2618503192  MEMB      65              0.0000000000
      7442        65  SAPE      HN1            17.1050901164       28.1655931987       21.3666576276  MEMB      65              0.0000000000
      7443        65  SAPE      HN2            15.6810461914       27.4311998400       22.0939128806  MEMB      65              0.0000000000
      7444        65  SAPE      HN3            16.7386010510       26.5888106142       21.0967862334  MEMB      65              0.0000000000
      7445        65  SAPE      C12            15.3899560373       27.8644108688       20.1172220895  MEMB      65              0.0000000000
      7446        65  SAPE      H12A           14.5297708791       27.1634812260       20.0615433358  MEMB      65              0.0000000000
      7447        65  SAPE      H12B           16.0737747448       27.7905941347       19.2447175693  MEMB      65              0.0000000000
      7448        65  SAPE      C11            14.9050398694       29.2996967247       20.3620984254  MEMB      65              0.0000000000
      7449        65  SAPE      H11A           14.2884406291       29.2793272012       21.2860635552  MEMB      65              0.0000000000
      7450        65  SAPE      H11B           14.0876675437       29.5880286624       19.6670529657  MEMB      65              0.0000000000
      7451        65  SAPE      P              16.5209150392       31.2972035212       19.6573072822  MEMB      65              0.0000000000
      7452        65  SAPE      O13            16.0409564521       32.5820254735       20.0947559558  MEMB      65              0.0000000000
      7453        65  SAPE      O14            17.9976820847       31.1665418708       19.7073325230  MEMB      65              0.0000000000
      7454        65  SAPE      O12            15.9909476114       30.1183158423       20.5949938757  MEMB      65              0.0000000000
      7455        65  SAPE      O11            15.9756038755       30.9422566860       18.2044395446  MEMB      65              0.0000000000
      7456        65  SAPE      C1             14.7225691255       31.4696009366       17.7340918547  MEMB      65              0.0000000000
      7457        65  SAPE      HA             14.1398710326       31.9115486540       18.5704328780  MEMB      65              0.0000000000
      7458        65  SAPE      HB             14.9061753182       32.3580792832       17.0928304618  MEMB      65              0.0000000000
      7459        65  SAPE      C2             13.8775923235       30.5017700599       16.8310715159  MEMB      65              0.0000000000
      7460        65  SAPE      HS             13.8210630719       29.5242239379       17.3559803049  MEMB      65              0.0000000000
      7461        65  SAPE      O21            14.4545032512       30.3971180785       15.5155467578  MEMB      65              0.0000000000
      7462        65  SAPE      C21            15.4337262694       29.5487908452       15.3420376416  MEMB      65              0.0000000000
      7463        65  SAPE      O22            15.6893297351       28.6553198562       16.1382236226  MEMB      65              0.0000000000
      7464        65  SAPE      C22            16.1533661765       29.7710033626       13.9861995848  MEMB      65              0.0000000000
      7465        65  SAPE      H2R            15.4665866891       29.4107535299       13.1906652451  MEMB      65              0.0000000000
      7466        65  SAPE      H2S            16.3976337244       30.8512804886       13.8987030499  MEMB      65              0.0000000000
      7467        65  SAPE      C3             12.3790204458       30.9889217415       16.7763026282  MEMB      65              0.0000000000
      7468        65  SAPE      HX             11.9796990337       30.9477582584       17.8122414314  MEMB      65              0.0000000000
      7469        65  SAPE      HY             11.8463834624       30.1938961387       16.2118976349  MEMB      65              0.0000000000
      7470        65  SAPE      O31            12.1857203400       32.2905546401       16.2355856428  MEMB      65              0.0000000000
      7471        65  SAPE      C31            11.5182347771       32.4314215982       15.0726098867  MEMB      65              0.0000000000
      7472        65  SAPE      O32            10.7498835817       31.6929522983       14.5527638874  MEMB      65              0.0000000000
      7473        65  SAPE      C32            11.8198412424       33.8070191975       14.4561732038  MEMB      65              0.0000000000
      7474        65  SAPE      H2X            12.0764534940       34.6463114917       15.1373924680  MEMB      65              0.0000000000
      7475        65  SAPE      H2Y            10.9545035663       34.0571137224       13.8058163096  MEMB      65              0.0000000000
      7476        65  SAPE      C23            17.4426712847       28.9693206163       13.8349524402  MEMB      65              0.0000000000
      7477        65  SAPE      H3R            17.9361695177       28.9164890829       14.8289287600  MEMB      65              0.0000000000
      7478        65  SAPE      H3S            18.1976497520       29.5112301749       13.2261318693  MEMB      65              0.0000000000
      7479        65  SAPE      C24            17.1517803488       27.5713377034       13.1684358424  MEMB      65              0.0000000000
      7480        65  SAPE      H4R            18.1601109769       27.1865083613       12.9048134149  MEMB      65              0.0000000000
      7481        65  SAPE      H4S            16.6296930399       27.8182992605       12.2193543403  MEMB      65              0.0000000000
      7482        65  SAPE      C25            16.4220996368       26.5606828798       14.1121027934  MEMB      65              0.0000000000
      7483        65  SAPE      H5R            16.9620261817       26.4094991997       15.0584762769  MEMB      65              0.0000000000
      7484        65  SAPE      C26            15.2488847847       25.8728684161       13.7924287025  MEMB      65              0.0000000000
      7485        65  SAPE      H6R            14.8214194894       25.1720878321       14.5246715116  MEMB      65              0.0000000000
      7486        65  SAPE      C27            14.5152429354       26.0516688512       12.4601520479  MEMB      65              0.0000000000
      7487        65  SAPE      H7R            13.8078846113       25.2145742154       12.2778410542  MEMB      65              0.0000000000
      7488        65  SAPE      H7S            15.2418356205       26.1007605375       11.6211200870  MEMB      65              0.0000000000
      7489        65  SAPE      C28            13.6034708459       27.2559584122       12.5863333214  MEMB      65              0.0000000000
      7490        65  SAPE      H8R            13.3006137203       27.4840733103       13.6189227818  MEMB      65              0.0000000000
      7491        65  SAPE      C29            13.3003273412       28.1878313065       11.6732529311  MEMB      65              0.0000000000
      7492        65  SAPE      H9R            12.7123686024       29.0793488619       11.9368831362  MEMB      65              0.0000000000
      7493        65  SAPE      C210           13.7746419312       28.2110472770       10.2479655617  MEMB      65              0.0000000000
      7494        65  SAPE      H10R           12.9589230895       28.0957239865        9.5025627489  MEMB      65              0.0000000000
      7495        65  SAPE      H10S           14.3384349723       27.2632003288       10.1136357433  MEMB      65              0.0000000000
      7496        65  SAPE      C211           14.7062531720       29.3235819402        9.9735881893  MEMB      65              0.0000000000
      7497        65  SAPE      H11R           15.7115774377       29.3133659634       10.4199284568  MEMB      65              0.0000000000
      7498        65  SAPE      C212           14.3863763761       30.4377725255        9.2917058934  MEMB      65              0.0000000000
      7499        65  SAPE      H12R           15.2053791166       31.1716236684        9.2653007280  MEMB      65              0.0000000000
      7500        65  SAPE      C213           13.0998988575       30.8895411996        8.6768889988  MEMB      65              0.0000000000
      7501        65  SAPE      H13R           12.2321172936       30.7522931958        9.3569174728  MEMB      65              0.0000000000
      7502        65  SAPE      H13S           12.9244496567       30.2044563936        7.8200351536  MEMB      65              0.0000000000
      7503        65  SAPE      C214           13.1899886386       32.2268536094        8.0674477809  MEMB      65              0.0000000000
      7504        65  SAPE      H14R           12.8565612940       33.0749195967        8.6835727757  MEMB      65              0.0000000000
      7505        65  SAPE      C215           13.6425966779       32.5055164054        6.8365370414  MEMB      65              0.0000000000
      7506        65  SAPE      H15R           13.7279532734       33.5918178940        6.6859921340  MEMB      65              0.0000000000
      7507        65  SAPE      C216           14.1858615803       31.6405862278        5.7121015272  MEMB      65              0.0000000000
      7508        65  SAPE      H16R           14.7346492007       30.7889365013        6.1680028991  MEMB      65              0.0000000000
      7509        65  SAPE      H16S           14.9357433737       32.2413687786        5.1543756847  MEMB      65              0.0000000000
      7510        65  SAPE      C217           13.2305723555       31.1355616941        4.6217272861  MEMB      65              0.0000000000
      7511        65  SAPE      H17R           12.6317466316       30.2735823113        4.9860349852  MEMB      65              0.0000000000
      7512        65  SAPE      H17S           13.8693537096       30.7222289997        3.8121373209  MEMB      65              0.0000000000
      7513        65  SAPE      C218           12.3128794360       32.2428931433        4.0776702274  MEMB      65              0.0000000000
      7514        65  SAPE      H18R           12.9582587064       33.0643256852        3.6994440112  MEMB      65              0.0000000000
      7515        65  SAPE      H18S           11.7523589584       32.6495357730        4.9464509855  MEMB      65              0.0000000000
      7516        65  SAPE      C219           11.1842911631       31.8089673004        3.1397040395  MEMB      65              0.0000000000
      7517        65  SAPE      H19R           10.8949019618       32.7748292889        2.6731358470  MEMB      65              0.0000000000
      7518        65  SAPE      H19S           10.3792189918       31.2988548390        3.7106376870  MEMB      65              0.0000000000
      7519        65  SAPE      C220           11.4811458124       30.8325205839        1.9742816148  MEMB      65              0.0000000000
      7520        65  SAPE      H20R           10.6432065939       30.8944727264        1.2474111357  MEMB      65              0.0000000000
      7521        65  SAPE      H20S           11.6897633524       29.8010545314        2.3304800505  MEMB      65              0.0000000000
      7522        65  SAPE      H20T           12.3903460220       31.1855768380        1.4422790864  MEMB      65              0.0000000000
      7523        65  SAPE      C33            13.0673682997       33.5118814761       13.5744288602  MEMB      65              0.0000000000
      7524        65  SAPE      H3X            12.6691168177       32.8086948837       12.8120342775  MEMB      65              0.0000000000
      7525        65  SAPE      H3Y            13.8224202968       33.0198796523       14.2241605448  MEMB      65              0.0000000000
      7526        65  SAPE      C34            13.7026059497       34.6663504762       12.7472697681  MEMB      65              0.0000000000
      7527        65  SAPE      H4X            14.3551027434       35.3686078981       13.3088777333  MEMB      65              0.0000000000
      7528        65  SAPE      H4Y            12.8767283995       35.3229004481       12.3991459331  MEMB      65              0.0000000000
      7529        65  SAPE      C35            14.4140131701       34.2151082301       11.4418553203  MEMB      65              0.0000000000
      7530        65  SAPE      H5X            14.2729968097       35.0263086221       10.6959401004  MEMB      65              0.0000000000
      7531        65  SAPE      H5Y            13.8148240808       33.4022734296       10.9786133802  MEMB      65              0.0000000000
      7532        65  SAPE      C36            15.9375254542       33.9694247800       11.7366317517  MEMB      65              0.0000000000
      7533        65  SAPE      H6X            16.0675397810       33.1000037705       12.4159877163  MEMB      65              0.0000000000
      7534        65  SAPE      H6Y            16.4481730545       34.8522336731       12.1773228339  MEMB      65              0.0000000000
      7535        65  SAPE      C37            16.6822198633       33.5708292850       10.4085481663  MEMB      65              0.0000000000
      7536        65  SAPE      H7X            16.5938027014       34.4486841145        9.7333637520  MEMB      65              0.0000000000
      7537        65  SAPE      H7Y            16.2161295094       32.6207836356       10.0701786987  MEMB      65              0.0000000000
      7538        65  SAPE      C38            18.1598038612       33.3337042481       10.6861729855  MEMB      65              0.0000000000
      7539        65  SAPE      H8X            18.2543476011       32.5318637554       11.4493473763  MEMB      65              0.0000000000
      7540        65  SAPE      H8Y            18.7435340761       34.2286646195       10.9905185471  MEMB      65              0.0000000000
      7541        65  SAPE      C39            18.7594228796       32.5961961365        9.4964933342  MEMB      65              0.0000000000
      7542        65  SAPE      H9X            19.8674932231       32.6766029833        9.4905270490  MEMB      65              0.0000000000
      7543        65  SAPE      H9Y            18.4542011773       32.9814614972        8.5001343123  MEMB      65              0.0000000000
      7544        65  SAPE      C310           18.5522695727       31.0713521459        9.4159489717  MEMB      65              0.0000000000
      7545        65  SAPE      H10X           17.4692926586       30.9801492366        9.1853755136  MEMB      65              0.0000000000
      7546        65  SAPE      H10Y           18.7116754838       30.4860393376       10.3467119975  MEMB      65              0.0000000000
      7547        65  SAPE      C311           19.3547982837       30.3699033540        8.2821585684  MEMB      65              0.0000000000
      7548        65  SAPE      H11X           20.4485035765       30.5078187908        8.1439222458  MEMB      65              0.0000000000
      7549        65  SAPE      H11Y           18.9644568304       30.7920142646        7.3314866080  MEMB      65              0.0000000000
      7550        65  SAPE      C312           19.1726127381       28.8478991610        8.2193166266  MEMB      65              0.0000000000
      7551        65  SAPE      H12X           19.4512341842       28.4544325596        9.2202546092  MEMB      65              0.0000000000
      7552        65  SAPE      H12Y           19.8273498801       28.3872813294        7.4489459540  MEMB      65              0.0000000000
      7553        65  SAPE      C313           17.7099064948       28.3691575348        8.0822566869  MEMB      65              0.0000000000
      7554        65  SAPE      H13X           17.1718122218       28.7904345161        8.9582142796  MEMB      65              0.0000000000
      7555        65  SAPE      H13Y           17.6607691315       27.2679612235        7.9434290455  MEMB      65              0.0000000000
      7556        65  SAPE      C314           17.0720877818       28.8926475073        6.7840527987  MEMB      65              0.0000000000
      7557        65  SAPE      H14X           17.0005096911       29.9949677218        6.9027442751  MEMB      65              0.0000000000
      7558        65  SAPE      H14Y           16.0559491632       28.4464137147        6.7324897008  MEMB      65              0.0000000000
      7559        65  SAPE      C315           17.7557631691       28.3847702023        5.5090172794  MEMB      65              0.0000000000
      7560        65  SAPE      H15X           18.0428325034       27.3633829721        5.8386850083  MEMB      65              0.0000000000
      7561        65  SAPE      H15Y           18.7704754208       28.8368520544        5.4916334248  MEMB      65              0.0000000000
      7562        65  SAPE      C316           17.0139057929       28.7226921246        4.1638536679  MEMB      65              0.0000000000
      7563        65  SAPE      H16X           17.5869916329       28.1388841551        3.4121478096  MEMB      65              0.0000000000
      7564        65  SAPE      H16Y           17.0637861955       29.8223379863        4.0134823660  MEMB      65              0.0000000000
      7565        65  SAPE      C317           15.5449737662       28.2715210498        3.9616164550  MEMB      65              0.0000000000
      7566        65  SAPE      H17X           14.9572071418       28.8717408818        4.6886569376  MEMB      65              0.0000000000
      7567        65  SAPE      H17Y           15.5437748896       27.2247696685        4.3339483908  MEMB      65              0.0000000000
      7568        65  SAPE      C318           14.8683709734       28.3640057630        2.6559850597  MEMB      65              0.0000000000
      7569        65  SAPE      H18X           13.8931890175       27.8323588706        2.6822989112  MEMB      65              0.0000000000
      7570        65  SAPE      H18Y           15.4664726143       27.6909513183        2.0051455480  MEMB      65              0.0000000000
      7571        65  SAPE      H18Z           15.0070893758       29.3604453392        2.1846201466  MEMB      65              0.0000000000
      7572        66  SAPS      N              -7.1823023940       36.6662865786       20.7710354974  MEMB      66              0.0000000000
      7573        66  SAPS      HN1            -7.7195569598       36.6739295208       21.6614843744  MEMB      66              0.0000000000
      7574        66  SAPS      HN2            -6.4302764424       37.3844008600       20.7518330875  MEMB      66              0.0000000000
      7575        66  SAPS      HN3            -7.8070794250       36.9069522921       19.9752126971  MEMB      66              0.0000000000
      7576        66  SAPS      C12            -6.6921011726       35.2194753322       20.6779459380  MEMB      66              0.0000000000
      7577        66  SAPS      H12A           -5.7703395879       35.1461589708       20.1199312499  MEMB      66              0.0000000000
      7578        66  SAPS      C13            -6.4883010170       34.4539745825       21.9910626792  MEMB      66              0.0000000000
      7579        66  SAPS      O13A           -6.5772252701       35.0380580617       23.0963774687  MEMB      66              0.0000000000
      7580        66  SAPS      O13B           -5.8819363912       33.3676423454       21.8417668458  MEMB      66              0.0000000000
      7581        66  SAPS      C11            -7.7450644915       34.4177233609       19.9326420324  MEMB      66              0.0000000000
      7582        66  SAPS      H11A           -8.1952647391       34.8775247706       19.0269801685  MEMB      66              0.0000000000
      7583        66  SAPS      H11B           -8.6059207442       34.2861840718       20.6225297124  MEMB      66              0.0000000000
      7584        66  SAPS      P              -6.4117609690       32.6922149234       18.3395052869  MEMB      66              0.0000000000
      7585        66  SAPS      O13            -5.3101610663       33.6287235856       17.9252669256  MEMB      66              0.0000000000
      7586        66  SAPS      O14            -6.0594627640       31.2844616830       18.5943639327  MEMB      66              0.0000000000
      7587        66  SAPS      O12            -7.2429896214       33.1186077756       19.6226037214  MEMB      66              0.0000000000
      7588        66  SAPS      O11            -7.5258264757       32.8092272710       17.2074296738  MEMB      66              0.0000000000
      7589        66  SAPS      C1             -8.8708874015       32.3681291051       17.3876897927  MEMB      66              0.0000000000
      7590        66  SAPS      HA             -8.9649861431       31.3807801605       17.8882978309  MEMB      66              0.0000000000
      7591        66  SAPS      HB             -9.4502970841       33.1082400973       17.9800080278  MEMB      66              0.0000000000
      7592        66  SAPS      C2             -9.6805594547       32.3462051769       16.0306270874  MEMB      66              0.0000000000
      7593        66  SAPS      HS            -10.6047812959       31.7516014473       16.1936652250  MEMB      66              0.0000000000
      7594        66  SAPS      O21            -8.8251272328       31.9254953717       15.0197166541  MEMB      66              0.0000000000
      7595        66  SAPS      C21            -8.8037054613       30.6064844600       14.6903597632  MEMB      66              0.0000000000
      7596        66  SAPS      O22            -9.3992619406       29.7563282293       15.3145376367  MEMB      66              0.0000000000
      7597        66  SAPS      C22            -7.9492058168       30.2911151632       13.3730376557  MEMB      66              0.0000000000
      7598        66  SAPS      H2R            -7.0236528672       29.7567639960       13.6765862217  MEMB      66              0.0000000000
      7599        66  SAPS      H2S            -8.6219913692       29.5347656828       12.9151996335  MEMB      66              0.0000000000
      7600        66  SAPS      C3            -10.1207795840       33.7768740222       15.7616407316  MEMB      66              0.0000000000
      7601        66  SAPS      HX            -10.5387177193       34.1671444285       16.7141835900  MEMB      66              0.0000000000
      7602        66  SAPS      HY            -10.8502401371       33.7262065751       14.9251954041  MEMB      66              0.0000000000
      7603        66  SAPS      O31            -8.9808134795       34.5773357797       15.3489151196  MEMB      66              0.0000000000
      7604        66  SAPS      C31            -8.8311216323       35.6770914104       15.9592896025  MEMB      66              0.0000000000
      7605        66  SAPS      O32            -9.5582994696       36.2214199939       16.7285825798  MEMB      66              0.0000000000
      7606        66  SAPS      C32            -7.5548099069       36.3478531152       15.4714908101  MEMB      66              0.0000000000
      7607        66  SAPS      H2X            -7.0557582048       35.7567167586       14.6741037841  MEMB      66              0.0000000000
      7608        66  SAPS      H2Y            -6.8673476335       36.5545819031       16.3194176049  MEMB      66              0.0000000000
      7609        66  SAPS      C23            -7.7649939769       31.5862031827       12.4906043374  MEMB      66              0.0000000000
      7610        66  SAPS      H3R            -8.7359357389       32.1187153500       12.5801796041  MEMB      66              0.0000000000
      7611        66  SAPS      H3S            -7.5451714930       31.2431573109       11.4570097008  MEMB      66              0.0000000000
      7612        66  SAPS      C24            -6.5331699919       32.2706985043       13.0181390072  MEMB      66              0.0000000000
      7613        66  SAPS      H4R            -5.6447756657       31.6042060892       13.0475406820  MEMB      66              0.0000000000
      7614        66  SAPS      H4S            -6.6530280366       32.6487432492       14.0559431854  MEMB      66              0.0000000000
      7615        66  SAPS      C25            -6.2677730596       33.4442873138       12.0966512562  MEMB      66              0.0000000000
      7616        66  SAPS      H5R            -6.3654416965       34.4626952563       12.5007626247  MEMB      66              0.0000000000
      7617        66  SAPS      C26            -5.7978937106       33.3153068963       10.7885666920  MEMB      66              0.0000000000
      7618        66  SAPS      H6R            -5.5733535501       34.2707458252       10.2918593660  MEMB      66              0.0000000000
      7619        66  SAPS      C27            -5.4408737423       32.1262639094       10.0331000867  MEMB      66              0.0000000000
      7620        66  SAPS      H7R            -5.3666983886       31.1480058215       10.5544736115  MEMB      66              0.0000000000
      7621        66  SAPS      H7S            -4.4313479535       32.3014820248        9.6035919234  MEMB      66              0.0000000000
      7622        66  SAPS      C28            -6.4438693698       32.0560507488        8.8673195968  MEMB      66              0.0000000000
      7623        66  SAPS      H8R            -7.5070471519       31.8945192908        9.0987515060  MEMB      66              0.0000000000
      7624        66  SAPS      C29            -6.2813910610       32.3007525612        7.5111201025  MEMB      66              0.0000000000
      7625        66  SAPS      H9R            -7.2029323257       32.3219878082        6.9108606621  MEMB      66              0.0000000000
      7626        66  SAPS      C210           -4.9438499796       32.6807889876        6.9202745783  MEMB      66              0.0000000000
      7627        66  SAPS      H10R           -4.6921615768       32.0835523642        6.0178990306  MEMB      66              0.0000000000
      7628        66  SAPS      H10S           -4.1821749444       32.3668185237        7.6656568258  MEMB      66              0.0000000000
      7629        66  SAPS      C211           -4.8104738995       34.1834739626        6.7356236734  MEMB      66              0.0000000000
      7630        66  SAPS      H11R           -5.2921206911       34.8188204625        7.4934832038  MEMB      66              0.0000000000
      7631        66  SAPS      C212           -4.2379252628       34.9308579649        5.7123001741  MEMB      66              0.0000000000
      7632        66  SAPS      H12R           -4.4737493602       36.0052713046        5.7170323377  MEMB      66              0.0000000000
      7633        66  SAPS      C213           -3.4872269727       34.4265083516        4.4528851328  MEMB      66              0.0000000000
      7634        66  SAPS      H13R           -3.3068843595       33.3315052477        4.5054771578  MEMB      66              0.0000000000
      7635        66  SAPS      H13S           -2.4727408542       34.8761691434        4.3986238683  MEMB      66              0.0000000000
      7636        66  SAPS      C214           -4.1836110310       34.8836920699        3.1965409728  MEMB      66              0.0000000000
      7637        66  SAPS      H14R           -5.2592702323       35.1056623450        3.2572562173  MEMB      66              0.0000000000
      7638        66  SAPS      C215           -3.4864766498       34.6725515883        2.0319931993  MEMB      66              0.0000000000
      7639        66  SAPS      H15R           -3.8718934705       35.0247249398        1.0637847482  MEMB      66              0.0000000000
      7640        66  SAPS      C216           -2.1896628012       33.9832669808        1.8352701960  MEMB      66              0.0000000000
      7641        66  SAPS      H16R           -1.8346792977       33.5953783924        2.8139689129  MEMB      66              0.0000000000
      7642        66  SAPS      H16S           -1.4385192255       34.7025176781        1.4443961939  MEMB      66              0.0000000000
      7643        66  SAPS      C217           -2.2924166132       32.8499104506        0.7995879815  MEMB      66              0.0000000000
      7644        66  SAPS      H17R           -2.6237474829       33.2015629119       -0.2008520007  MEMB      66              0.0000000000
      7645        66  SAPS      H17S           -2.9682098133       32.0359306766        1.1387961532  MEMB      66              0.0000000000
      7646        66  SAPS      C218           -0.8476617581       32.3225601818        0.5875359588  MEMB      66              0.0000000000
      7647        66  SAPS      H18R           -0.5409086949       32.0239257058        1.6127389371  MEMB      66              0.0000000000
      7648        66  SAPS      H18S           -0.2156252830       33.1922334838        0.3073239195  MEMB      66              0.0000000000
      7649        66  SAPS      C219           -0.7222860277       31.2827384352       -0.5508944946  MEMB      66              0.0000000000
      7650        66  SAPS      H19R           -1.3919753116       30.4125795762       -0.3815989009  MEMB      66              0.0000000000
      7651        66  SAPS      H19S            0.3345662199       30.9459962048       -0.4877387260  MEMB      66              0.0000000000
      7652        66  SAPS      C220           -0.9727058208       31.7149152571       -1.9866788267  MEMB      66              0.0000000000
      7653        66  SAPS      H20R           -0.5385634691       30.9540314720       -2.6699777964  MEMB      66              0.0000000000
      7654        66  SAPS      H20S           -0.6155994806       32.7572245855       -2.1294633619  MEMB      66              0.0000000000
      7655        66  SAPS      H20T           -2.0820185014       31.7227305937       -2.0473867544  MEMB      66              0.0000000000
      7656        66  SAPS      C33            -7.9173368073       37.7615961195       14.8301694192  MEMB      66              0.0000000000
      7657        66  SAPS      H3X            -7.0275290619       38.3677856235       14.5561298086  MEMB      66              0.0000000000
      7658        66  SAPS      H3Y            -8.5151576876       38.4257653548       15.4903289408  MEMB      66              0.0000000000
      7659        66  SAPS      C34            -8.8281662473       37.5971030495       13.6125640546  MEMB      66              0.0000000000
      7660        66  SAPS      H4X            -9.1235591492       38.5766990577       13.1796026581  MEMB      66              0.0000000000
      7661        66  SAPS      H4Y            -9.8166482126       37.2150933713       13.9461699957  MEMB      66              0.0000000000
      7662        66  SAPS      C35            -8.3572310127       36.6307988036       12.5136406488  MEMB      66              0.0000000000
      7663        66  SAPS      H5X            -8.2628880557       35.5726833583       12.8389282379  MEMB      66              0.0000000000
      7664        66  SAPS      H5Y            -7.3575088495       36.9927913130       12.1914015328  MEMB      66              0.0000000000
      7665        66  SAPS      C36            -9.2973152003       36.7062061014       11.2060735856  MEMB      66              0.0000000000
      7666        66  SAPS      H6X            -9.3066433012       37.7460586129       10.8149972071  MEMB      66              0.0000000000
      7667        66  SAPS      H6Y           -10.3642590538       36.4880912540       11.4260220930  MEMB      66              0.0000000000
      7668        66  SAPS      C37            -8.9759253580       35.7156326401       10.1610193929  MEMB      66              0.0000000000
      7669        66  SAPS      H7X            -9.1236888177       34.6655896867       10.4925267394  MEMB      66              0.0000000000
      7670        66  SAPS      H7Y            -7.8786970215       35.8897380901       10.1511107283  MEMB      66              0.0000000000
      7671        66  SAPS      C38            -9.4108881843       35.9959211200        8.7566540649  MEMB      66              0.0000000000
      7672        66  SAPS      H8X            -9.5125526092       37.0353620093        8.3777769520  MEMB      66              0.0000000000
      7673        66  SAPS      H8Y           -10.4012719882       35.4925001992        8.7513310625  MEMB      66              0.0000000000
      7674        66  SAPS      C39            -8.4848155866       35.3756868724        7.7402123860  MEMB      66              0.0000000000
      7675        66  SAPS      H9X            -8.3525530813       34.2963940274        7.9681463978  MEMB      66              0.0000000000
      7676        66  SAPS      H9Y            -7.5239259067       35.9292880473        7.8075756313  MEMB      66              0.0000000000
      7677        66  SAPS      C310           -9.0679104419       35.4572640628        6.3646186976  MEMB      66              0.0000000000
      7678        66  SAPS      H10X           -9.2717653795       36.5111515564        6.0781136705  MEMB      66              0.0000000000
      7679        66  SAPS      H10Y          -10.0355975498       34.9184803210        6.4518813858  MEMB      66              0.0000000000
      7680        66  SAPS      C311           -8.1651211373       34.8625339316        5.2559567296  MEMB      66              0.0000000000
      7681        66  SAPS      H11X           -7.7927241301       33.8245876780        5.3912681066  MEMB      66              0.0000000000
      7682        66  SAPS      H11Y           -7.2493249582       35.4911011502        5.2792308917  MEMB      66              0.0000000000
      7683        66  SAPS      C312           -8.6493816297       34.9147985601        3.7861710844  MEMB      66              0.0000000000
      7684        66  SAPS      H12X           -8.5860319804       35.9133741580        3.3033105921  MEMB      66              0.0000000000
      7685        66  SAPS      H12Y           -9.7166518624       34.6646337501        3.6054152169  MEMB      66              0.0000000000
      7686        66  SAPS      C313           -7.7907917053       34.0872957255        2.8350233102  MEMB      66              0.0000000000
      7687        66  SAPS      H13X           -6.8353224975       34.0115653381        3.3968627590  MEMB      66              0.0000000000
      7688        66  SAPS      H13Y           -7.8085927236       34.5632156625        1.8312788220  MEMB      66              0.0000000000
      7689        66  SAPS      C314           -8.4607048839       32.7047190726        2.6514051744  MEMB      66              0.0000000000
      7690        66  SAPS      H14X           -9.5547832051       32.8978612818        2.6482391744  MEMB      66              0.0000000000
      7691        66  SAPS      H14Y           -8.1861108751       32.0812467868        3.5290173086  MEMB      66              0.0000000000
      7692        66  SAPS      C315           -7.8740869215       32.0032671295        1.3739865410  MEMB      66              0.0000000000
      7693        66  SAPS      H15X           -7.6665695349       32.7071971270        0.5398754831  MEMB      66              0.0000000000
      7694        66  SAPS      H15Y           -8.6743076232       31.3755925703        0.9267811941  MEMB      66              0.0000000000
      7695        66  SAPS      C316           -6.6041459458       31.1325860021        1.5193634436  MEMB      66              0.0000000000
      7696        66  SAPS      H16X           -6.8414596622       30.5292074065        2.4215487073  MEMB      66              0.0000000000
      7697        66  SAPS      H16Y           -5.7830142827       31.8783747058        1.5815187331  MEMB      66              0.0000000000
      7698        66  SAPS      C317           -6.2601401500       30.1175681073        0.4561050831  MEMB      66              0.0000000000
      7699        66  SAPS      H17X           -5.4921055527       30.7233485272       -0.0706526232  MEMB      66              0.0000000000
      7700        66  SAPS      H17Y           -7.1063509204       30.0391292201       -0.2595021172  MEMB      66              0.0000000000
      7701        66  SAPS      C318           -5.7533530750       28.6880780435        0.8768318834  MEMB      66              0.0000000000
      7702        66  SAPS      H18X           -6.5757126745       28.1048278397        1.3435919997  MEMB      66              0.0000000000
      7703        66  SAPS      H18Y           -4.9510767771       28.7827643022        1.6395307382  MEMB      66              0.0000000000
      7704        66  SAPS      H18Z           -5.3657069404       28.1792118425       -0.0315221809  MEMB      66              0.0000000000
      7705        67  CHL1      C3            -17.5512371518      -29.9044762232       17.3205000000  MEMB      67              0.0000000000
      7706        67  CHL1      H3            -17.4147037941      -28.8019289327       17.3122300000  MEMB      67              0.0000000000
      7707        67  CHL1      O3            -17.4615918482      -30.2768749768       18.6795000000  MEMB      67              0.0000000000
      7708        67  CHL1      H3'           -16.5123967651      -30.3049456817       18.8203900000  MEMB      67              0.0000000000
      7709        67  CHL1      C4            -18.8663230871      -30.2890769188       16.6002700000  MEMB      67              0.0000000000
      7710        67  CHL1      H4A           -19.1014246261      -31.3713232409       16.6885300000  MEMB      67              0.0000000000
      7711        67  CHL1      H4B           -19.6048606363      -29.7117491909       17.1965700000  MEMB      67              0.0000000000
      7712        67  CHL1      C5            -18.8919100813      -29.8951737938       15.1028500000  MEMB      67              0.0000000000
      7713        67  CHL1      C6            -19.8547377824      -29.1074797702       14.6057400000  MEMB      67              0.0000000000
      7714        67  CHL1      H6            -20.5818885288      -28.6633016140       15.3014100000  MEMB      67              0.0000000000
      7715        67  CHL1      C7            -20.0260833811      -28.6716673621       13.1081100000  MEMB      67              0.0000000000
      7716        67  CHL1      H7A           -21.0912515312      -28.6672578639       12.7923400000  MEMB      67              0.0000000000
      7717        67  CHL1      H7B           -19.6563323483      -27.6426604449       12.9112400000  MEMB      67              0.0000000000
      7718        67  CHL1      C8            -19.1946251512      -29.6227048377       12.2224900000  MEMB      67              0.0000000000
      7719        67  CHL1      H8            -19.7736531520      -30.5652593196       12.1193600000  MEMB      67              0.0000000000
      7720        67  CHL1      C14           -19.0986586645      -29.0575758985       10.7967000000  MEMB      67              0.0000000000
      7721        67  CHL1      H14           -18.3911748833      -28.2183299530       10.9683000000  MEMB      67              0.0000000000
      7722        67  CHL1      C15           -20.4139972400      -28.5541163547       10.0746600000  MEMB      67              0.0000000000
      7723        67  CHL1      H15A          -21.2569458468      -29.2487418106       10.2777900000  MEMB      67              0.0000000000
      7724        67  CHL1      H15B          -20.7618266338      -27.5248541858       10.3069600000  MEMB      67              0.0000000000
      7725        67  CHL1      C16           -20.0543434366      -28.6115890943        8.5549400000  MEMB      67              0.0000000000
      7726        67  CHL1      H16A          -20.7680278697      -29.3120370844        8.0708500000  MEMB      67              0.0000000000
      7727        67  CHL1      H16B          -20.1477127326      -27.5556463126        8.2223800000  MEMB      67              0.0000000000
      7728        67  CHL1      C17           -18.6087615302      -29.1670857831        8.5278600000  MEMB      67              0.0000000000
      7729        67  CHL1      H17           -17.9736862646      -28.2639664710        8.6518600000  MEMB      67              0.0000000000
      7730        67  CHL1      C13           -18.3558992097      -29.9700558612        9.8322700000  MEMB      67              0.0000000000
      7731        67  CHL1      C18           -19.0380862772      -31.2970497170        9.6753000000  MEMB      67              0.0000000000
      7732        67  CHL1      H18A          -18.4961999337      -31.8954129447        8.9119900000  MEMB      67              0.0000000000
      7733        67  CHL1      H18B          -18.8591249053      -31.8314694742       10.6327400000  MEMB      67              0.0000000000
      7734        67  CHL1      H18C          -20.1328232108      -31.2737596722        9.4873600000  MEMB      67              0.0000000000
      7735        67  CHL1      C12           -16.8601663965      -30.0919173127       10.3354700000  MEMB      67              0.0000000000
      7736        67  CHL1      H12A          -16.2070268312      -30.6985665912        9.6723700000  MEMB      67              0.0000000000
      7737        67  CHL1      H12B          -16.5407427884      -29.0292325107       10.3902000000  MEMB      67              0.0000000000
      7738        67  CHL1      C11           -16.7504848335      -30.5963922310       11.7971200000  MEMB      67              0.0000000000
      7739        67  CHL1      H11A          -16.7841074469      -31.7056781655       11.8488300000  MEMB      67              0.0000000000
      7740        67  CHL1      H11B          -15.7122265767      -30.4867216322       12.1770100000  MEMB      67              0.0000000000
      7741        67  CHL1      C9            -17.7818855180      -29.8741414878       12.7716900000  MEMB      67              0.0000000000
      7742        67  CHL1      H9            -17.3689615617      -28.8808181757       13.0493900000  MEMB      67              0.0000000000
      7743        67  CHL1      C10           -17.8030354186      -30.5462894133       14.2802800000  MEMB      67              0.0000000000
      7744        67  CHL1      C19           -18.1761645429      -32.1244501488       14.2304400000  MEMB      67              0.0000000000
      7745        67  CHL1      H19A          -18.2978633678      -32.6152790747       15.2196900000  MEMB      67              0.0000000000
      7746        67  CHL1      H19B          -19.1611984160      -32.2891004547       13.7437100000  MEMB      67              0.0000000000
      7747        67  CHL1      H19C          -17.4091171447      -32.6688199138       13.6391300000  MEMB      67              0.0000000000
      7748        67  CHL1      C1            -16.4978890319      -30.3160455815       15.0060400000  MEMB      67              0.0000000000
      7749        67  CHL1      H1A           -15.7148946501      -30.9750959509       14.5737200000  MEMB      67              0.0000000000
      7750        67  CHL1      H1B           -16.2595996752      -29.2515005537       14.7955700000  MEMB      67              0.0000000000
      7751        67  CHL1      C2            -16.3980204627      -30.5230617330       16.5248000000  MEMB      67              0.0000000000
      7752        67  CHL1      H2A           -15.4618844149      -30.0405517743       16.8785700000  MEMB      67              0.0000000000
      7753        67  CHL1      H2B           -16.3985017220      -31.6294109448       16.6263100000  MEMB      67              0.0000000000
      7754        67  CHL1      C20           -18.1816501404      -29.6701801251        7.1428300000  MEMB      67              0.0000000000
      7755        67  CHL1      H20           -18.8833802801      -30.5172252314        6.9866100000  MEMB      67              0.0000000000
      7756        67  CHL1      C21           -16.6741568478      -30.1887899063        7.1538700000  MEMB      67              0.0000000000
      7757        67  CHL1      H21A          -16.1810994783      -29.3933132738        7.7525700000  MEMB      67              0.0000000000
      7758        67  CHL1      H21B          -16.1613287737      -30.2862510192        6.1731500000  MEMB      67              0.0000000000
      7759        67  CHL1      H21C          -16.5831084664      -31.1831251507        7.6410300000  MEMB      67              0.0000000000
      7760        67  CHL1      C22           -18.5514720619      -28.5950259315        6.0389900000  MEMB      67              0.0000000000
      7761        67  CHL1      H22A          -19.6609010186      -28.5393677163        6.0589900000  MEMB      67              0.0000000000
      7762        67  CHL1      H22B          -18.1330122265      -27.6032522139        6.3139400000  MEMB      67              0.0000000000
      7763        67  CHL1      C23           -18.3726139436      -29.0324960635        4.5365900000  MEMB      67              0.0000000000
      7764        67  CHL1      H23A          -17.2910667311      -29.1969645321        4.3428600000  MEMB      67              0.0000000000
      7765        67  CHL1      H23B          -18.8267668360      -30.0456714114        4.4975500000  MEMB      67              0.0000000000
      7766        67  CHL1      C24           -19.0475425863      -28.1346695008        3.4579600000  MEMB      67              0.0000000000
      7767        67  CHL1      H24A          -20.1183808294      -28.0165419577        3.7293700000  MEMB      67              0.0000000000
      7768        67  CHL1      H24B          -18.4755230873      -27.1823553159        3.4431400000  MEMB      67              0.0000000000
      7769        67  CHL1      C25           -18.9533572790      -28.6953837777        2.0141600000  MEMB      67              0.0000000000
      7770        67  CHL1      H25           -19.6209064023      -29.5815987630        1.9565600000  MEMB      67              0.0000000000
      7771        67  CHL1      C26           -19.3712311914      -27.6724107279        1.0241300000  MEMB      67              0.0000000000
      7772        67  CHL1      H26A          -20.3679899395      -27.2785530240        1.3168300000  MEMB      67              0.0000000000
      7773        67  CHL1      H26B          -18.6647613861      -26.8163780986        1.0734700000  MEMB      67              0.0000000000
      7774        67  CHL1      H26C          -19.4460867208      -28.0774502275       -0.0076900000  MEMB      67              0.0000000000
      7775        67  CHL1      C27           -17.4587904275      -29.0993358264        1.6347300000  MEMB      67              0.0000000000
      7776        67  CHL1      H27A          -17.0913219537      -29.9472670850        2.2514200000  MEMB      67              0.0000000000
      7777        67  CHL1      H27B          -17.4824758941      -29.3481900220        0.5522100000  MEMB      67              0.0000000000
      7778        67  CHL1      H27C          -16.8118938503      -28.2136670470        1.8120700000  MEMB      67              0.0000000000
      7779        68  POPC      N               2.1398913453       36.3367371558       20.4164695171  MEMB      68              0.0000000000
      7780        68  POPC      C12             2.9423875986       36.0564447958       19.1345491063  MEMB      68              0.0000000000
      7781        68  POPC      H12A            3.8233561446       35.4928792013       19.4041567736  MEMB      68              0.0000000000
      7782        68  POPC      H12B            3.3272648130       37.0283810575       18.8632387483  MEMB      68              0.0000000000
      7783        68  POPC      C13             1.5614409227       35.0289216443       21.0475050921  MEMB      68              0.0000000000
      7784        68  POPC      H13A            0.9413422630       35.3527547331       21.8703111676  MEMB      68              0.0000000000
      7785        68  POPC      H13B            0.9156582754       34.5232206411       20.3449162518  MEMB      68              0.0000000000
      7786        68  POPC      H13C            2.3340639049       34.3475353835       21.3717990017  MEMB      68              0.0000000000
      7787        68  POPC      C14             3.0724469142       36.9593091422       21.3990531687  MEMB      68              0.0000000000
      7788        68  POPC      H14A            3.8942831870       36.3024683006       21.6430717487  MEMB      68              0.0000000000
      7789        68  POPC      H14B            3.5140390285       37.8434426681       20.9635022710  MEMB      68              0.0000000000
      7790        68  POPC      H14C            2.5084367239       37.1940899032       22.2896544203  MEMB      68              0.0000000000
      7791        68  POPC      C15             0.9846637435       37.2133040820       20.1389821720  MEMB      68              0.0000000000
      7792        68  POPC      H15A            0.8064575988       37.0973413562       19.0801171661  MEMB      68              0.0000000000
      7793        68  POPC      H15B            1.1885052427       38.2506390585       20.3598553051  MEMB      68              0.0000000000
      7794        68  POPC      H15C            0.1188683760       36.7637389492       20.6023284780  MEMB      68              0.0000000000
      7795        68  POPC      C11             2.2519178227       35.5681713810       17.8878503248  MEMB      68              0.0000000000
      7796        68  POPC      H11A            3.0271107543       35.3810374079       17.1143014924  MEMB      68              0.0000000000
      7797        68  POPC      H11B            1.5656125719       36.3477939355       17.4935220018  MEMB      68              0.0000000000
      7798        68  POPC      P               2.0412587601       32.9392289667       17.8331031506  MEMB      68              0.0000000000
      7799        68  POPC      O13             1.1158065401       32.0702051384       18.5637261646  MEMB      68              0.0000000000
      7800        68  POPC      O14             3.5239195898       32.9267175461       18.0723260151  MEMB      68              0.0000000000
      7801        68  POPC      O12             1.4893129166       34.4220635859       18.1935247253  MEMB      68              0.0000000000
      7802        68  POPC      O11             1.7246407933       32.8097091593       16.3129105598  MEMB      68              0.0000000000
      7803        68  POPC      C1              2.8969144248       32.8045169569       15.4415947540  MEMB      68              0.0000000000
      7804        68  POPC      HA              3.4941572435       31.8711783886       15.5222265150  MEMB      68              0.0000000000
      7805        68  POPC      HB              3.4922636355       33.7169174626       15.6593226723  MEMB      68              0.0000000000
      7806        68  POPC      C2              2.5572584390       32.9316024701       13.9746823518  MEMB      68              0.0000000000
      7807        68  POPC      HS              3.5248112311       33.0294850908       13.4374842242  MEMB      68              0.0000000000
      7808        68  POPC      O21             1.7687064215       34.0963700464       13.7800367254  MEMB      68              0.0000000000
      7809        68  POPC      C21             2.4632720170       35.2203743586       13.6767478052  MEMB      68              0.0000000000
      7810        68  POPC      O22             3.6660360790       35.3283391000       13.7124656507  MEMB      68              0.0000000000
      7811        68  POPC      C22             1.5197648883       36.4218803482       13.4773127595  MEMB      68              0.0000000000
      7812        68  POPC      H2R             0.9829814136       36.7073785150       14.4071918509  MEMB      68              0.0000000000
      7813        68  POPC      H2S             0.7289437544       36.1003429931       12.7663018366  MEMB      68              0.0000000000
      7814        68  POPC      C3              1.8304539578       31.7712841999       13.2691962807  MEMB      68              0.0000000000
      7815        68  POPC      HX              0.8958121845       31.5816293994       13.8391059039  MEMB      68              0.0000000000
      7816        68  POPC      HY              2.4434310961       30.8472872506       13.1998436606  MEMB      68              0.0000000000
      7817        68  POPC      O31             1.4710504988       32.0913292509       11.9332132504  MEMB      68              0.0000000000
      7818        68  POPC      C31             2.4999394350       31.9444031835       11.0533781616  MEMB      68              0.0000000000
      7819        68  POPC      O32             3.5498493645       31.3565639839       11.4004519420  MEMB      68              0.0000000000
      7820        68  POPC      C32             2.3577220382       32.5604144284        9.6953225007  MEMB      68              0.0000000000
      7821        68  POPC      H2X             1.3172780252       32.9458860653        9.6386747119  MEMB      68              0.0000000000
      7822        68  POPC      H2Y             2.4433925495       31.7210695083        8.9724941281  MEMB      68              0.0000000000
      7823        68  POPC      C23             2.2892994321       37.6870506679       12.9403257701  MEMB      68              0.0000000000
      7824        68  POPC      H3R             3.1212530230       37.3284142649       12.2972439306  MEMB      68              0.0000000000
      7825        68  POPC      H3S             2.6031450290       38.3186254487       13.7987752934  MEMB      68              0.0000000000
      7826        68  POPC      C24             1.4499405866       38.6023200289       12.0225194143  MEMB      68              0.0000000000
      7827        68  POPC      H4R             2.1418182323       39.4143757179       11.7123711341  MEMB      68              0.0000000000
      7828        68  POPC      H4S             0.5634790904       38.9958452950       12.5644092240  MEMB      68              0.0000000000
      7829        68  POPC      C25             0.8423346916       37.8665989260       10.7580200551  MEMB      68              0.0000000000
      7830        68  POPC      H5R             0.2453048092       36.9946839165       11.1010079210  MEMB      68              0.0000000000
      7831        68  POPC      H5S             1.7537004781       37.5530792308       10.2053549890  MEMB      68              0.0000000000
      7832        68  POPC      C26            -0.1881772536       38.6284082772        9.8977745606  MEMB      68              0.0000000000
      7833        68  POPC      H6R             0.2014092747       39.5954165031        9.5137969503  MEMB      68              0.0000000000
      7834        68  POPC      H6S            -1.0291151891       38.7203406885       10.6179775300  MEMB      68              0.0000000000
      7835        68  POPC      C27            -0.6625781819       37.6919138931        8.6904157290  MEMB      68              0.0000000000
      7836        68  POPC      H7R            -1.4929276560       38.2491427055        8.2063322819  MEMB      68              0.0000000000
      7837        68  POPC      H7S            -1.1716566900       36.8100211827        9.1347421513  MEMB      68              0.0000000000
      7838        68  POPC      C28             0.2528750531       37.2523378887        7.5681989841  MEMB      68              0.0000000000
      7839        68  POPC      H8R             0.9935475862       36.5215885507        7.9577244987  MEMB      68              0.0000000000
      7840        68  POPC      H8S             0.7765970243       38.0734064914        7.0335183574  MEMB      68              0.0000000000
      7841        68  POPC      C29            -0.6700932631       36.6148417826        6.5551370190  MEMB      68              0.0000000000
      7842        68  POPC      H91            -1.5220616795       37.2452089441        6.2605399879  MEMB      68              0.0000000000
      7843        68  POPC      C210           -0.6745424048       35.3948544736        6.0356882054  MEMB      68              0.0000000000
      7844        68  POPC      H101           -1.4318457277       35.1153781617        5.2884368645  MEMB      68              0.0000000000
      7845        68  POPC      C211            0.3430543659       34.3225340529        6.4094600235  MEMB      68              0.0000000000
      7846        68  POPC      H11R            0.1262674921       33.8822708044        7.4062008915  MEMB      68              0.0000000000
      7847        68  POPC      H11S            1.3696756496       34.7028462248        6.5984903317  MEMB      68              0.0000000000
      7848        68  POPC      C212            0.5866618033       33.1886775232        5.3634167518  MEMB      68              0.0000000000
      7849        68  POPC      H12R           -0.4173250949       32.9544350474        4.9493363736  MEMB      68              0.0000000000
      7850        68  POPC      H12S            1.0239063502       32.3645421124        5.9666897948  MEMB      68              0.0000000000
      7851        68  POPC      C213            1.5161918474       33.5644725787        4.2713891108  MEMB      68              0.0000000000
      7852        68  POPC      H13R            2.4558876434       34.0055947131        4.6672470559  MEMB      68              0.0000000000
      7853        68  POPC      H13S            1.0813129455       34.4364200139        3.7376203275  MEMB      68              0.0000000000
      7854        68  POPC      C214            1.8918644861       32.5438272439        3.2092497024  MEMB      68              0.0000000000
      7855        68  POPC      H14R            2.7445022670       32.9133234471        2.6003132414  MEMB      68              0.0000000000
      7856        68  POPC      H14S            1.0593778892       32.3685260384        2.4947170511  MEMB      68              0.0000000000
      7857        68  POPC      C215            2.4969947017       31.3220781578        3.9027594964  MEMB      68              0.0000000000
      7858        68  POPC      H15R            1.6789406063       30.8396312416        4.4792607947  MEMB      68              0.0000000000
      7859        68  POPC      H15S            3.4051292419       31.5114479545        4.5141117918  MEMB      68              0.0000000000
      7860        68  POPC      C216            2.9226010616       30.1991994627        2.9765616334  MEMB      68              0.0000000000
      7861        68  POPC      H16R            3.3733410546       29.4108576995        3.6166170318  MEMB      68              0.0000000000
      7862        68  POPC      H16S            3.6516999610       30.5287723134        2.2057708737  MEMB      68              0.0000000000
      7863        68  POPC      C217            1.8774426304       29.4762827189        2.0925921760  MEMB      68              0.0000000000
      7864        68  POPC      H17R            1.5132861707       30.1242167594        1.2668247109  MEMB      68              0.0000000000
      7865        68  POPC      H17S            0.9839004511       29.3272939573        2.7357919172  MEMB      68              0.0000000000
      7866        68  POPC      C218            2.3288979958       28.1018994970        1.5835453282  MEMB      68              0.0000000000
      7867        68  POPC      H18R            2.9680908441       28.2016554353        0.6803284487  MEMB      68              0.0000000000
      7868        68  POPC      H18S            1.3895120666       27.6437066842        1.2068039787  MEMB      68              0.0000000000
      7869        68  POPC      H18T            2.8321308524       27.5082259277        2.3764065699  MEMB      68              0.0000000000
      7870        68  POPC      C33             3.5766931652       33.3964120316        9.1583773378  MEMB      68              0.0000000000
      7871        68  POPC      H3X             3.6151557313       33.3766551687        8.0482188988  MEMB      68              0.0000000000
      7872        68  POPC      H3Y             4.5918703484       33.0868918296        9.4869093701  MEMB      68              0.0000000000
      7873        68  POPC      C34             3.4392280015       34.8627699781        9.4583100317  MEMB      68              0.0000000000
      7874        68  POPC      H4X             3.5722174595       34.9553109947       10.5574327473  MEMB      68              0.0000000000
      7875        68  POPC      H4Y             2.4034219366       35.2215183410        9.2774053486  MEMB      68              0.0000000000
      7876        68  POPC      C35             4.4137768170       35.8252505612        8.8223805293  MEMB      68              0.0000000000
      7877        68  POPC      H5X             5.4628857920       35.4946316118        8.9785292311  MEMB      68              0.0000000000
      7878        68  POPC      H5Y             4.2916732637       36.7923916254        9.3553439088  MEMB      68              0.0000000000
      7879        68  POPC      C36             4.2374317547       35.9866183035        7.3110956733  MEMB      68              0.0000000000
      7880        68  POPC      H6X             3.4898880092       36.7773357441        7.0868963909  MEMB      68              0.0000000000
      7881        68  POPC      H6Y             3.8854969491       35.1012825259        6.7395679293  MEMB      68              0.0000000000
      7882        68  POPC      C37             5.5582052725       36.4538343771        6.5470773055  MEMB      68              0.0000000000
      7883        68  POPC      H7X             6.4479390682       35.7884869529        6.5498312988  MEMB      68              0.0000000000
      7884        68  POPC      H7Y             5.8142477530       37.3764585779        7.1105726756  MEMB      68              0.0000000000
      7885        68  POPC      C38             5.3730386769       36.9204002005        5.1186578550  MEMB      68              0.0000000000
      7886        68  POPC      H8X             5.5996161268       35.9884280253        4.5579342719  MEMB      68              0.0000000000
      7887        68  POPC      H8Y             6.0465284604       37.7727672563        4.8858432299  MEMB      68              0.0000000000
      7888        68  POPC      C39             3.9534364209       37.3825557877        4.5986354071  MEMB      68              0.0000000000
      7889        68  POPC      H9X             3.5719661567       38.3142770792        5.0684195584  MEMB      68              0.0000000000
      7890        68  POPC      H9Y             3.2042801121       36.5672697288        4.6902573085  MEMB      68              0.0000000000
      7891        68  POPC      C310            4.1239347661       37.7958597190        3.1135513975  MEMB      68              0.0000000000
      7892        68  POPC      H10X            4.5312058401       36.9716329582        2.4897713144  MEMB      68              0.0000000000
      7893        68  POPC      H10Y            4.7982552732       38.6787677052        3.1042398530  MEMB      68              0.0000000000
      7894        68  POPC      C311            2.8397808177       38.2293565446        2.4159551238  MEMB      68              0.0000000000
      7895        68  POPC      H11X            3.0691262042       38.7337211961        1.4529706650  MEMB      68              0.0000000000
      7896        68  POPC      H11Y            2.2429844822       38.9492829799        3.0158399722  MEMB      68              0.0000000000
      7897        68  POPC      C312            1.8250971404       37.0839137993        2.2875408139  MEMB      68              0.0000000000
      7898        68  POPC      H12X            0.8752073178       37.6027692532        2.0369033167  MEMB      68              0.0000000000
      7899        68  POPC      H12Y            1.5964599082       36.7164346767        3.3107730411  MEMB      68              0.0000000000
      7900        68  POPC      C313            2.0760025036       35.9814028302        1.2435632513  MEMB      68              0.0000000000
      7901        68  POPC      H13X            2.8864072699       35.3544547951        1.6730994876  MEMB      68              0.0000000000
      7902        68  POPC      H13Y            2.6320744581       36.2827194718        0.3301558322  MEMB      68              0.0000000000
      7903        68  POPC      C314            0.9247330244       35.0671261039        0.8618535112  MEMB      68              0.0000000000
      7904        68  POPC      H14X            0.1982549698       35.6882041174        0.2954499958  MEMB      68              0.0000000000
      7905        68  POPC      H14Y            0.4265547447       34.5658694864        1.7191052567  MEMB      68              0.0000000000
      7906        68  POPC      C315            1.3197834920       34.0499159544       -0.2131555804  MEMB      68              0.0000000000
      7907        68  POPC      H15X            0.4152682595       33.4986119393       -0.5481743050  MEMB      68              0.0000000000
      7908        68  POPC      H15Y            1.8914791300       33.2602703432        0.3197083978  MEMB      68              0.0000000000
      7909        68  POPC      C316            2.0053852476       34.6023530244       -1.4748738575  MEMB      68              0.0000000000
      7910        68  POPC      H16X            1.1924302489       35.1281323559       -2.0198330539  MEMB      68              0.0000000000
      7911        68  POPC      H16Y            2.5040962756       33.8257273835       -2.0933073869  MEMB      68              0.0000000000
      7912        68  POPC      H16Z            2.7900257464       35.3474837407       -1.2229997618  MEMB      68              0.0000000000
      7913        69  OSM       N             -35.7801792101       -1.0520687840       21.8214109770  MEMB      69              0.0000000000
      7914        69  OSM       C15           -36.3704764196       -2.0856641742       20.9136532641  MEMB      69              0.0000000000
      7915        69  OSM       H15A          -37.2411088476       -2.4920090348       21.4068904141  MEMB      69              0.0000000000
      7916        69  OSM       H15B          -35.7369821122       -2.9564759921       20.8313616825  MEMB      69              0.0000000000
      7917        69  OSM       H15C          -36.6628867744       -1.6360842881       19.9762237722  MEMB      69              0.0000000000
      7918        69  OSM       C14           -36.7903338099        0.0403048745       21.9902077339  MEMB      69              0.0000000000
      7919        69  OSM       H14A          -37.1224465170        0.3804939856       21.0204796410  MEMB      69              0.0000000000
      7920        69  OSM       H14B          -36.3727624365        0.9346623056       22.4285670070  MEMB      69              0.0000000000
      7921        69  OSM       H14C          -37.6142630805       -0.4312891076       22.5051249015  MEMB      69              0.0000000000
      7922        69  OSM       C13           -35.4650194016       -1.6924992483       23.0955359957  MEMB      69              0.0000000000
      7923        69  OSM       H13A          -36.2803329498       -2.2923342617       23.4721814466  MEMB      69              0.0000000000
      7924        69  OSM       H13B          -35.0270364694       -1.0564996692       23.8505694316  MEMB      69              0.0000000000
      7925        69  OSM       H13C          -34.6503055149       -2.3918524794       22.9791477834  MEMB      69              0.0000000000
      7926        69  OSM       C12           -34.4918413686       -0.4365675124       21.3153394741  MEMB      69              0.0000000000
      7927        69  OSM       H12A          -34.2022248109        0.3486559498       21.9979422861  MEMB      69              0.0000000000
      7928        69  OSM       H12B          -34.6075301508        0.1203694693       20.3972777638  MEMB      69              0.0000000000
      7929        69  OSM       C11           -33.2435360216       -1.2993563238       21.2222394945  MEMB      69              0.0000000000
      7930        69  OSM       H11A          -33.0957308790       -1.6333042392       22.2715027286  MEMB      69              0.0000000000
      7931        69  OSM       H11B          -32.3275774558       -0.7150624008       20.9899862385  MEMB      69              0.0000000000
      7932        69  OSM       P             -32.5838398552       -3.7104768380       20.1902014784  MEMB      69              0.0000000000
      7933        69  OSM       O13           -31.1467021289       -3.3919921934       20.2166681269  MEMB      69              0.0000000000
      7934        69  OSM       O14           -33.0672901033       -4.6608752326       21.2208410054  MEMB      69              0.0000000000
      7935        69  OSM       O11           -32.8735394453       -4.1077640116       18.6693792570  MEMB      69              0.0000000000
      7936        69  OSM       O12           -33.4595095358       -2.4078451918       20.3445231932  MEMB      69              0.0000000000
      7937        69  OSM       C1S           -34.2414580418       -4.0556094785       18.1287636373  MEMB      69              0.0000000000
      7938        69  OSM       H1S           -34.8006181044       -3.2379785754       18.6318947142  MEMB      69              0.0000000000
      7939        69  OSM       H1T           -34.6794680006       -5.0404979629       18.3979526861  MEMB      69              0.0000000000
      7940        69  OSM       NF            -33.6354022123       -4.9660881906       15.9345445936  MEMB      69              0.0000000000
      7941        69  OSM       HNF           -32.6597340058       -5.1546439077       15.8537527345  MEMB      69              0.0000000000
      7942        69  OSM       C2S           -34.2009566874       -3.8124557429       16.5831036474  MEMB      69              0.0000000000
      7943        69  OSM       H2S           -35.2390377485       -3.5827214162       16.2607202319  MEMB      69              0.0000000000
      7944        69  OSM       C3S           -33.3633202694       -2.5651070120       16.2901336218  MEMB      69              0.0000000000
      7945        69  OSM       H3S           -32.3458814428       -2.5666125514       16.7363814524  MEMB      69              0.0000000000
      7946        69  OSM       O3            -33.9256561863       -1.4089851910       16.8753758719  MEMB      69              0.0000000000
      7947        69  OSM       HO3           -34.5631082335       -1.6759184215       17.5417102424  MEMB      69              0.0000000000
      7948        69  OSM       C4S           -33.2714963848       -2.3535368070       14.8438262758  MEMB      69              0.0000000000
      7949        69  OSM       H4S           -34.2874196647       -2.2143410533       14.4456752798  MEMB      69              0.0000000000
      7950        69  OSM       C5S           -32.2063534149       -2.4268833192       14.0232619774  MEMB      69              0.0000000000
      7951        69  OSM       H5S           -31.1835615312       -2.5260214782       14.4157775375  MEMB      69              0.0000000000
      7952        69  OSM       C6S           -32.2519235507       -2.1928614829       12.5437450413  MEMB      69              0.0000000000
      7953        69  OSM       H6S           -32.2983331574       -3.1475122785       11.9773456353  MEMB      69              0.0000000000
      7954        69  OSM       H6T           -31.2390234063       -1.8049693128       12.3031338378  MEMB      69              0.0000000000
      7955        69  OSM       C7S           -33.4653645089       -1.3902812739       12.0440329809  MEMB      69              0.0000000000
      7956        69  OSM       H7S           -33.3801116810       -0.4240011418       12.5856559775  MEMB      69              0.0000000000
      7957        69  OSM       H7T           -34.4182977743       -1.7182511362       12.5116597991  MEMB      69              0.0000000000
      7958        69  OSM       C8S           -33.7221394910       -1.2928435004       10.5234326239  MEMB      69              0.0000000000
      7959        69  OSM       H8S           -34.6446500716       -0.6742804296       10.4974495870  MEMB      69              0.0000000000
      7960        69  OSM       H8T           -33.9331116192       -2.3369105813       10.2076237000  MEMB      69              0.0000000000
      7961        69  OSM       C9S           -32.5356450339       -0.7943504459        9.6632036175  MEMB      69              0.0000000000
      7962        69  OSM       H9S           -31.6542218104       -1.4289162760        9.8971696164  MEMB      69              0.0000000000
      7963        69  OSM       H9T           -32.3816812683        0.2940727985        9.8242973508  MEMB      69              0.0000000000
      7964        69  OSM       C10S          -32.7411443378       -0.9349798848        8.1291367519  MEMB      69              0.0000000000
      7965        69  OSM       H10S          -33.1047334815       -1.9800638623        8.0295204789  MEMB      69              0.0000000000
      7966        69  OSM       H10T          -31.7707452506       -0.8956086790        7.5896023144  MEMB      69              0.0000000000
      7967        69  OSM       C11S          -33.7992871978        0.0764989677        7.5393073010  MEMB      69              0.0000000000
      7968        69  OSM       H11S          -33.6163724027        1.0195144527        8.0975056174  MEMB      69              0.0000000000
      7969        69  OSM       H11T          -34.8356274884       -0.2310198030        7.7957280800  MEMB      69              0.0000000000
      7970        69  OSM       C12S          -33.7608802400        0.1931318904        6.0252364452  MEMB      69              0.0000000000
      7971        69  OSM       H12S          -32.8096919613        0.6049821612        5.6253093403  MEMB      69              0.0000000000
      7972        69  OSM       H12T          -34.4392982286        0.9837446635        5.6392294822  MEMB      69              0.0000000000
      7973        69  OSM       C13S          -34.1479455229       -1.2123885739        5.3198753453  MEMB      69              0.0000000000
      7974        69  OSM       H13S          -35.0967270082       -1.5838813914        5.7627381992  MEMB      69              0.0000000000
      7975        69  OSM       H13T          -33.3766323977       -1.9673609138        5.5833407021  MEMB      69              0.0000000000
      7976        69  OSM       C14S          -34.2766431820       -1.0207971036        3.8066392599  MEMB      69              0.0000000000
      7977        69  OSM       H14S          -33.3246798222       -0.7342044394        3.3107032561  MEMB      69              0.0000000000
      7978        69  OSM       H14T          -35.0316061434       -0.2057589921        3.8146581017  MEMB      69              0.0000000000
      7979        69  OSM       C15S          -34.9114021525       -2.2087645897        3.1512171941  MEMB      69              0.0000000000
      7980        69  OSM       H15S          -35.7312413413       -2.5167951382        3.8348104514  MEMB      69              0.0000000000
      7981        69  OSM       H15T          -34.1227956734       -2.9906893863        3.1830677193  MEMB      69              0.0000000000
      7982        69  OSM       C16S          -35.5180873491       -1.9962943441        1.7630659733  MEMB      69              0.0000000000
      7983        69  OSM       H16S          -34.6903355866       -1.8198222859        1.0433403852  MEMB      69              0.0000000000
      7984        69  OSM       H16T          -36.1623673007       -1.0912634042        1.7750316193  MEMB      69              0.0000000000
      7985        69  OSM       C17S          -36.4285755931       -3.0752965570        1.2216252469  MEMB      69              0.0000000000
      7986        69  OSM       H17S          -37.2836114849       -3.1317768801        1.9287642225  MEMB      69              0.0000000000
      7987        69  OSM       H17T          -36.0124528739       -4.1047899952        1.1854802404  MEMB      69              0.0000000000
      7988        69  OSM       C18S          -36.9733096993       -2.7100960144       -0.1540876724  MEMB      69              0.0000000000
      7989        69  OSM       H18S          -37.4765007890       -3.5438806487       -0.6888055203  MEMB      69              0.0000000000
      7990        69  OSM       H18T          -36.0193245126       -2.4464068598       -0.6587673831  MEMB      69              0.0000000000
      7991        69  OSM       H18U          -37.5703906693       -1.7744823503       -0.2035086466  MEMB      69              0.0000000000
      7992        69  OSM       C1F           -34.4671639388       -6.0305560941       15.7716623356  MEMB      69              0.0000000000
      7993        69  OSM       OF            -35.5990797686       -5.9469065028       16.2400207021  MEMB      69              0.0000000000
      7994        69  OSM       C2F           -34.0103350684       -7.3177131734       15.0861135275  MEMB      69              0.0000000000
      7995        69  OSM       H2F           -34.1094462630       -8.0914673980       15.8771899255  MEMB      69              0.0000000000
      7996        69  OSM       H2G           -32.9204887498       -7.2821943177       14.8732882210  MEMB      69              0.0000000000
      7997        69  OSM       C3F           -34.6637260780       -7.5894292610       13.7833033344  MEMB      69              0.0000000000
      7998        69  OSM       H3F           -35.7655233643       -7.7104581377       13.8589056000  MEMB      69              0.0000000000
      7999        69  OSM       H3G           -34.1476578185       -8.4889850292       13.3848142667  MEMB      69              0.0000000000
      8000        69  OSM       C4F           -34.4724099626       -6.3852974572       12.8252641298  MEMB      69              0.0000000000
      8001        69  OSM       H4F           -33.3910227037       -6.1318898621       12.7986680793  MEMB      69              0.0000000000
      8002        69  OSM       H4G           -34.9205394934       -5.4355556715       13.1878818148  MEMB      69              0.0000000000
      8003        69  OSM       C5F           -35.0497788019       -6.8206760483       11.5606344144  MEMB      69              0.0000000000
      8004        69  OSM       H5F           -36.1590720919       -6.8610958603       11.5142043397  MEMB      69              0.0000000000
      8005        69  OSM       H5G           -34.6964196152       -7.8302948383       11.2604208731  MEMB      69              0.0000000000
      8006        69  OSM       C6F           -34.5889760319       -5.8801343199       10.4316885360  MEMB      69              0.0000000000
      8007        69  OSM       H6F           -33.5869112439       -6.2278870562       10.1011506913  MEMB      69              0.0000000000
      8008        69  OSM       H6G           -34.5627593630       -4.8394367215       10.8197378914  MEMB      69              0.0000000000
      8009        69  OSM       C7F           -35.4492296141       -5.8323970831        9.1244995397  MEMB      69              0.0000000000
      8010        69  OSM       H7F           -36.4554211196       -5.4305772884        9.3703468352  MEMB      69              0.0000000000
      8011        69  OSM       H7G           -35.6587051271       -6.8741133071        8.8000488365  MEMB      69              0.0000000000
      8012        69  OSM       C8F           -34.8057375490       -5.1091842822        7.9475430923  MEMB      69              0.0000000000
      8013        69  OSM       H8F           -34.0083034860       -5.7290570358        7.4847504659  MEMB      69              0.0000000000
      8014        69  OSM       H8G           -34.4323624255       -4.1265346867        8.3071433213  MEMB      69              0.0000000000
      8015        69  OSM       C9F           -35.9107694525       -4.8367142693        6.9610748854  MEMB      69              0.0000000000
      8016        69  OSM       H9F           -36.6823551306       -4.1065077044        7.2464756097  MEMB      69              0.0000000000
      8017        69  OSM       C10F          -36.1575196281       -5.6117739968        5.9119739819  MEMB      69              0.0000000000
      8018        69  OSM       H10F          -37.0109452352       -5.3359101482        5.2751351070  MEMB      69              0.0000000000
      8019        69  OSM       C11F          -35.5085057356       -6.9181469781        5.3854286246  MEMB      69              0.0000000000
      8020        69  OSM       H11F          -36.0141701262       -7.6784403261        6.0183409268  MEMB      69              0.0000000000
      8021        69  OSM       H11G          -34.4195909465       -6.9084101026        5.6056349045  MEMB      69              0.0000000000
      8022        69  OSM       C12F          -35.8523573682       -7.5139229452        4.0087882305  MEMB      69              0.0000000000
      8023        69  OSM       H12F          -36.9527773723       -7.4690787741        3.8625505563  MEMB      69              0.0000000000
      8024        69  OSM       H12G          -35.3780005886       -8.5162027983        3.9399320298  MEMB      69              0.0000000000
      8025        69  OSM       C13F          -35.3194043513       -6.5764441881        2.9436762823  MEMB      69              0.0000000000
      8026        69  OSM       H13F          -35.6421386798       -5.5226619265        3.0840581499  MEMB      69              0.0000000000
      8027        69  OSM       H13G          -35.7478550966       -6.8569552232        1.9577435759  MEMB      69              0.0000000000
      8028        69  OSM       C14F          -33.8218510233       -6.5097631444        2.7233213077  MEMB      69              0.0000000000
      8029        69  OSM       H14F          -33.3898865127       -7.5331770829        2.7420742643  MEMB      69              0.0000000000
      8030        69  OSM       H14G          -33.3850664583       -5.9953732260        3.6059000457  MEMB      69              0.0000000000
      8031        69  OSM       C15F          -33.5309242769       -5.8095114078        1.4191945588  MEMB      69              0.0000000000
      8032        69  OSM       H15F          -34.0001867905       -4.8096735005        1.5393498566  MEMB      69              0.0000000000
      8033        69  OSM       H15G          -33.8870010676       -6.3223072712        0.5001885935  MEMB      69              0.0000000000
      8034        69  OSM       C16F          -32.0033836762       -5.3877177166        1.2108500548  MEMB      69              0.0000000000
      8035        69  OSM       H16F          -31.4405823373       -6.3206374892        0.9935108476  MEMB      69              0.0000000000
      8036        69  OSM       H16G          -31.5440915242       -5.0361912367        2.1594269825  MEMB      69              0.0000000000
      8037        69  OSM       C17F          -31.9253690124       -4.4046503437        0.0789712656  MEMB      69              0.0000000000
      8038        69  OSM       H17F          -31.0197063057       -3.7611872142        0.0861374809  MEMB      69              0.0000000000
      8039        69  OSM       H17G          -32.8489677765       -3.7872479040        0.0890117427  MEMB      69              0.0000000000
      8040        69  OSM       C18F          -31.8505908314       -5.2090410914       -1.2812043993  MEMB      69              0.0000000000
      8041        69  OSM       H18F          -32.6343339286       -5.9964733601       -1.2769541870  MEMB      69              0.0000000000
      8042        69  OSM       H18G          -30.8906701344       -5.7681245713       -1.2985029442  MEMB      69              0.0000000000
      8043        69  OSM       H18H          -31.8410247608       -4.6337071288       -2.2315834573  MEMB      69              0.0000000000
      8044        70  SAPS      N              29.5433201988      -17.2722303357       20.2303912743  MEMB      70              0.0000000000
      8045        70  SAPS      HN1            28.5374139892      -17.4180191597       20.0101678651  MEMB      70              0.0000000000
      8046        70  SAPS      HN2            30.1887300562      -17.5891427084       19.4789841755  MEMB      70              0.0000000000
      8047        70  SAPS      HN3            29.7906334767      -17.8617394814       21.0507053116  MEMB      70              0.0000000000
      8048        70  SAPS      C12            29.9290818645      -15.8395086479       20.3006067169  MEMB      70              0.0000000000
      8049        70  SAPS      H12A           29.6066783111      -15.4144415349       19.3615784891  MEMB      70              0.0000000000
      8050        70  SAPS      C13            29.3431756969      -15.0652133495       21.5971525308  MEMB      70              0.0000000000
      8051        70  SAPS      O13A           28.7741927948      -15.6825751175       22.4834099527  MEMB      70              0.0000000000
      8052        70  SAPS      O13B           29.7132659877      -13.8786909394       21.7272309228  MEMB      70              0.0000000000
      8053        70  SAPS      C11            31.4441249487      -15.6377611969       20.2236454719  MEMB      70              0.0000000000
      8054        70  SAPS      H11A           31.8453307476      -16.1375248754       21.1311647400  MEMB      70              0.0000000000
      8055        70  SAPS      H11B           31.7573455178      -14.5720210645       20.2439452326  MEMB      70              0.0000000000
      8056        70  SAPS      P              32.7973666257      -17.3673643494       18.7408846398  MEMB      70              0.0000000000
      8057        70  SAPS      O13            34.2720182230      -17.0628511240       18.9673293020  MEMB      70              0.0000000000
      8058        70  SAPS      O14            32.2194715760      -18.4253971945       19.5408060313  MEMB      70              0.0000000000
      8059        70  SAPS      O12            31.9893638505      -16.0430426857       18.9671326785  MEMB      70              0.0000000000
      8060        70  SAPS      O11            32.5471287363      -17.6995869622       17.2214104728  MEMB      70              0.0000000000
      8061        70  SAPS      C1             33.0145374702      -16.8013532271       16.2964850476  MEMB      70              0.0000000000
      8062        70  SAPS      HA             33.7548556604      -16.0911744087       16.7229777230  MEMB      70              0.0000000000
      8063        70  SAPS      HB             33.4745890789      -17.3198737454       15.4282626898  MEMB      70              0.0000000000
      8064        70  SAPS      C2             31.9697049575      -15.8633811068       15.5766463483  MEMB      70              0.0000000000
      8065        70  SAPS      HS             31.6988932363      -15.0010166147       16.2226409643  MEMB      70              0.0000000000
      8066        70  SAPS      O21            30.8633280512      -16.6600775562       15.1319533424  MEMB      70              0.0000000000
      8067        70  SAPS      C21            29.6640567642      -16.1622410353       15.1283842419  MEMB      70              0.0000000000
      8068        70  SAPS      O22            29.2400807600      -15.2168246741       15.7584707530  MEMB      70              0.0000000000
      8069        70  SAPS      C22            28.7385258221      -17.1355941555       14.3485984316  MEMB      70              0.0000000000
      8070        70  SAPS      H2R            28.9207937593      -18.1875510887       14.6559844081  MEMB      70              0.0000000000
      8071        70  SAPS      H2S            27.7199366839      -16.8337367601       14.6736819896  MEMB      70              0.0000000000
      8072        70  SAPS      C3             32.7951342336      -15.3061777989       14.3235448188  MEMB      70              0.0000000000
      8073        70  SAPS      HX             33.3668667938      -16.0595003436       13.7404939308  MEMB      70              0.0000000000
      8074        70  SAPS      HY             33.6002966986      -14.6675247743       14.7456310217  MEMB      70              0.0000000000
      8075        70  SAPS      O31            31.8184706233      -14.5349162566       13.4817188174  MEMB      70              0.0000000000
      8076        70  SAPS      C31            31.5115774983      -13.3623792125       13.9948874592  MEMB      70              0.0000000000
      8077        70  SAPS      O32            32.0385811771      -12.8363089134       14.9634739811  MEMB      70              0.0000000000
      8078        70  SAPS      C32            30.4118107365      -12.6127990994       13.2993273547  MEMB      70              0.0000000000
      8079        70  SAPS      H2X            30.6665649231      -11.5351547250       13.2093083555  MEMB      70              0.0000000000
      8080        70  SAPS      H2Y            29.4212596764      -12.6354194866       13.8019389985  MEMB      70              0.0000000000
      8081        70  SAPS      C23            28.9501651573      -16.8366607643       12.7954441512  MEMB      70              0.0000000000
      8082        70  SAPS      H3R            30.0423783744      -16.8804920015       12.5967738605  MEMB      70              0.0000000000
      8083        70  SAPS      H3S            28.4628309378      -15.8558793298       12.6086437976  MEMB      70              0.0000000000
      8084        70  SAPS      C24            28.1401404004      -17.7257146058       11.9024354357  MEMB      70              0.0000000000
      8085        70  SAPS      H4R            28.3296750566      -17.3517877944       10.8735636984  MEMB      70              0.0000000000
      8086        70  SAPS      H4S            27.0386922402      -17.6600628413       12.0321389667  MEMB      70              0.0000000000
      8087        70  SAPS      C25            28.5874198411      -19.1098445600       12.1034426809  MEMB      70              0.0000000000
      8088        70  SAPS      H5R            28.1627584214      -19.5517806839       13.0168733628  MEMB      70              0.0000000000
      8089        70  SAPS      C26            29.4467184660      -19.7747222629       11.3142719192  MEMB      70              0.0000000000
      8090        70  SAPS      H6R            29.8759666932      -20.7040292259       11.7169312855  MEMB      70              0.0000000000
      8091        70  SAPS      C27            30.1777711221      -19.2383378642       10.0565529222  MEMB      70              0.0000000000
      8092        70  SAPS      H7R            29.5910385401      -18.4114692116        9.6022902455  MEMB      70              0.0000000000
      8093        70  SAPS      H7S            30.1082240274      -20.0000335064        9.2507584294  MEMB      70              0.0000000000
      8094        70  SAPS      C28            31.5998017819      -18.8540853517       10.3563135203  MEMB      70              0.0000000000
      8095        70  SAPS      H8R            31.9983038190      -19.6560973646       10.9950412340  MEMB      70              0.0000000000
      8096        70  SAPS      C29            32.2573996744      -17.7332975067        9.9240794504  MEMB      70              0.0000000000
      8097        70  SAPS      H9R            33.3403577384      -17.7327456906       10.1169565553  MEMB      70              0.0000000000
      8098        70  SAPS      C210           31.7541062879      -16.5969924765        9.0911235454  MEMB      70              0.0000000000
      8099        70  SAPS      H10R           32.5351730421      -15.8134895492        8.9892474574  MEMB      70              0.0000000000
      8100        70  SAPS      H10S           30.8770866770      -16.0687609408        9.5225506091  MEMB      70              0.0000000000
      8101        70  SAPS      C211           31.3747405616      -16.9861266602        7.7829181568  MEMB      70              0.0000000000
      8102        70  SAPS      H11R           30.4120700854      -17.5037736131        7.6591954837  MEMB      70              0.0000000000
      8103        70  SAPS      C212           32.1559082709      -16.8919782178        6.5903844508  MEMB      70              0.0000000000
      8104        70  SAPS      H12R           31.6965058647      -17.3121392029        5.6835142710  MEMB      70              0.0000000000
      8105        70  SAPS      C213           33.5486447480      -16.3956745050        6.3071824181  MEMB      70              0.0000000000
      8106        70  SAPS      H13R           33.8223862788      -15.5716856334        7.0003119954  MEMB      70              0.0000000000
      8107        70  SAPS      H13S           33.6264102314      -15.7547634254        5.4030219142  MEMB      70              0.0000000000
      8108        70  SAPS      C214           34.6199315720      -17.4331511185        6.3895544848  MEMB      70              0.0000000000
      8109        70  SAPS      H14R           35.2576950341      -17.3968330245        7.2850642025  MEMB      70              0.0000000000
      8110        70  SAPS      C215           34.7841074545      -18.4371088966        5.5201221690  MEMB      70              0.0000000000
      8111        70  SAPS      H15R           35.4532061556      -19.2582728377        5.8167641111  MEMB      70              0.0000000000
      8112        70  SAPS      C216           33.9551874074      -18.6741823770        4.2772188880  MEMB      70              0.0000000000
      8113        70  SAPS      H16R           33.2892155841      -17.8077259199        4.0770809568  MEMB      70              0.0000000000
      8114        70  SAPS      H16S           33.2436536073      -19.5030939702        4.4795706983  MEMB      70              0.0000000000
      8115        70  SAPS      C217           34.7855452361      -18.9750835087        2.9921956956  MEMB      70              0.0000000000
      8116        70  SAPS      H17R           35.3405944502      -19.9328852475        3.0863073066  MEMB      70              0.0000000000
      8117        70  SAPS      H17S           35.6285638009      -18.2677857571        2.8393221274  MEMB      70              0.0000000000
      8118        70  SAPS      C218           33.8686056728      -19.1532248972        1.7589289070  MEMB      70              0.0000000000
      8119        70  SAPS      H18R           33.6993457144      -18.0597406506        1.6591079854  MEMB      70              0.0000000000
      8120        70  SAPS      H18S           32.8648848734      -19.5880116408        1.9534175533  MEMB      70              0.0000000000
      8121        70  SAPS      C219           34.5076172918      -19.6159719586        0.4401926033  MEMB      70              0.0000000000
      8122        70  SAPS      H19R           34.9149353877      -20.6396211300        0.5835636049  MEMB      70              0.0000000000
      8123        70  SAPS      H19S           35.3664256346      -18.9269133107        0.2919780963  MEMB      70              0.0000000000
      8124        70  SAPS      C220           33.6112234797      -19.5170149807       -0.7811614232  MEMB      70              0.0000000000
      8125        70  SAPS      H20R           33.2845830113      -18.5111405599       -1.1215193994  MEMB      70              0.0000000000
      8126        70  SAPS      H20S           32.7248273204      -20.1702083656       -0.6329691183  MEMB      70              0.0000000000
      8127        70  SAPS      H20T           34.2404499369      -20.0196902833       -1.5464795534  MEMB      70              0.0000000000
      8128        70  SAPS      C33            30.2181882723      -13.1366310374       11.8355386581  MEMB      70              0.0000000000
      8129        70  SAPS      H3X            29.5589151090      -14.0267839098       11.9210225395  MEMB      70              0.0000000000
      8130        70  SAPS      H3Y            31.2120732296      -13.4328106534       11.4370524204  MEMB      70              0.0000000000
      8131        70  SAPS      C34            29.3734505734      -12.2089246352       10.9011659739  MEMB      70              0.0000000000
      8132        70  SAPS      H4X            29.9257503413      -11.3058438149       10.5639264054  MEMB      70              0.0000000000
      8133        70  SAPS      H4Y            28.4365754990      -11.9075849836       11.4167045618  MEMB      70              0.0000000000
      8134        70  SAPS      C35            28.9195719093      -12.8630446904        9.6136693389  MEMB      70              0.0000000000
      8135        70  SAPS      H5X            29.8281611509      -12.9695719933        8.9832418339  MEMB      70              0.0000000000
      8136        70  SAPS      H5Y            28.2128869223      -12.2391722850        9.0257060973  MEMB      70              0.0000000000
      8137        70  SAPS      C36            28.2482261216      -14.2479621511        9.7569566924  MEMB      70              0.0000000000
      8138        70  SAPS      H6X            27.6917489513      -14.2572699399       10.7185006276  MEMB      70              0.0000000000
      8139        70  SAPS      H6Y            29.0661811119      -14.9982157013        9.8058503446  MEMB      70              0.0000000000
      8140        70  SAPS      C37            27.2616926113      -14.4997054845        8.6040527971  MEMB      70              0.0000000000
      8141        70  SAPS      H7X            26.4470571363      -13.7460981206        8.5514603807  MEMB      70              0.0000000000
      8142        70  SAPS      H7Y            26.7265967163      -15.4444314472        8.8396078704  MEMB      70              0.0000000000
      8143        70  SAPS      C38            27.9192545348      -14.5966567295        7.2304165952  MEMB      70              0.0000000000
      8144        70  SAPS      H8X            28.8432206313      -15.2129725807        7.2580340459  MEMB      70              0.0000000000
      8145        70  SAPS      H8Y            28.1560834219      -13.5592484505        6.9110148235  MEMB      70              0.0000000000
      8146        70  SAPS      C39            26.9918587954      -15.3179832116        6.2799383893  MEMB      70              0.0000000000
      8147        70  SAPS      H9X            26.0427906487      -14.7519175873        6.1652195917  MEMB      70              0.0000000000
      8148        70  SAPS      H9Y            26.7120152805      -16.3289367138        6.6459727483  MEMB      70              0.0000000000
      8149        70  SAPS      C310           27.6758780210      -15.5748555604        4.9448025749  MEMB      70              0.0000000000
      8150        70  SAPS      H10X           27.0435817808      -16.3397062208        4.4452765605  MEMB      70              0.0000000000
      8151        70  SAPS      H10Y           28.6291139894      -16.1128529033        5.1351214789  MEMB      70              0.0000000000
      8152        70  SAPS      C311           28.0156614655      -14.3931462422        4.0840844049  MEMB      70              0.0000000000
      8153        70  SAPS      H11X           28.3899527523      -13.5877484473        4.7515879964  MEMB      70              0.0000000000
      8154        70  SAPS      H11Y           27.1872490872      -13.9203758557        3.5143977385  MEMB      70              0.0000000000
      8155        70  SAPS      C312           28.9991123674      -14.6254575561        2.9312683638  MEMB      70              0.0000000000
      8156        70  SAPS      H12X           28.9794912898      -13.7374235971        2.2639353009  MEMB      70              0.0000000000
      8157        70  SAPS      H12Y           28.7777503812      -15.5204257419        2.3113072550  MEMB      70              0.0000000000
      8158        70  SAPS      C313           30.3948251283      -14.8004498057        3.4250866881  MEMB      70              0.0000000000
      8159        70  SAPS      H13X           30.4890542046      -15.7077938585        4.0592549959  MEMB      70              0.0000000000
      8160        70  SAPS      H13Y           30.6758265324      -13.8774059833        3.9758588266  MEMB      70              0.0000000000
      8161        70  SAPS      C314           31.3480021891      -14.9551993546        2.2520104286  MEMB      70              0.0000000000
      8162        70  SAPS      H14X           31.1651275727      -14.1105540927        1.5538324102  MEMB      70              0.0000000000
      8163        70  SAPS      H14Y           31.2860992846      -15.9432665637        1.7478150805  MEMB      70              0.0000000000
      8164        70  SAPS      C315           32.8723156409      -14.9042725562        2.6197996317  MEMB      70              0.0000000000
      8165        70  SAPS      H15X           33.1529023676      -15.8148136424        3.1912062863  MEMB      70              0.0000000000
      8166        70  SAPS      H15Y           32.9857235093      -14.0361664719        3.3037947914  MEMB      70              0.0000000000
      8167        70  SAPS      C316           33.8219051051      -14.6334548422        1.3875304097  MEMB      70              0.0000000000
      8168        70  SAPS      H16X           33.4249065226      -15.3287101853        0.6172489943  MEMB      70              0.0000000000
      8169        70  SAPS      H16Y           34.8231554143      -15.0419043707        1.6424569886  MEMB      70              0.0000000000
      8170        70  SAPS      C317           33.7768972451      -13.1322731492        0.9986375081  MEMB      70              0.0000000000
      8171        70  SAPS      H17X           34.5379697449      -12.6372262063        1.6389629833  MEMB      70              0.0000000000
      8172        70  SAPS      H17Y           32.7523850743      -12.7727399885        1.2340756284  MEMB      70              0.0000000000
      8173        70  SAPS      C318           34.2293331722      -12.7993070838       -0.3971287811  MEMB      70              0.0000000000
      8174        70  SAPS      H18X           34.2822631468      -11.6931773617       -0.4865515826  MEMB      70              0.0000000000
      8175        70  SAPS      H18Y           33.5134432187      -13.2838468163       -1.0950137776  MEMB      70              0.0000000000
      8176        70  SAPS      H18Z           35.2808665532      -13.0952833500       -0.5996050135  MEMB      70              0.0000000000
      8177        71  OSM       N              26.9109444484      -23.9914841364       22.9924171791  MEMB      71              0.0000000000
      8178        71  OSM       C15            26.2120770693      -25.2347657401       22.4790303999  MEMB      71              0.0000000000
      8179        71  OSM       H15A           26.0198708117      -25.0037110054       21.4416922657  MEMB      71              0.0000000000
      8180        71  OSM       H15B           25.3049233985      -25.4532361797       23.0228530282  MEMB      71              0.0000000000
      8181        71  OSM       H15C           26.7464817706      -26.1285082815       22.7654498090  MEMB      71              0.0000000000
      8182        71  OSM       C14            26.9105412079      -23.9182390536       24.4619669945  MEMB      71              0.0000000000
      8183        71  OSM       H14A           27.5116142436      -24.7047262316       24.8938803838  MEMB      71              0.0000000000
      8184        71  OSM       H14B           25.9152497656      -24.1258731250       24.8262236610  MEMB      71              0.0000000000
      8185        71  OSM       H14C           27.2063760533      -22.9475587757       24.8316443717  MEMB      71              0.0000000000
      8186        71  OSM       C13            28.3931673838      -24.1197508759       22.5978881458  MEMB      71              0.0000000000
      8187        71  OSM       H13A           28.8269359319      -23.2814259324       23.1227273193  MEMB      71              0.0000000000
      8188        71  OSM       H13B           28.5152848027      -23.9996418970       21.5315574071  MEMB      71              0.0000000000
      8189        71  OSM       H13C           28.8448075386      -25.0585014696       22.8827886776  MEMB      71              0.0000000000
      8190        71  OSM       C12            26.3602651500      -22.7275632101       22.4506345351  MEMB      71              0.0000000000
      8191        71  OSM       H12A           27.1402537308      -22.0384621549       22.7390052315  MEMB      71              0.0000000000
      8192        71  OSM       H12B           25.4230642289      -22.5416803556       22.9541243468  MEMB      71              0.0000000000
      8193        71  OSM       C11            26.0374140100      -22.6059450514       20.9412826053  MEMB      71              0.0000000000
      8194        71  OSM       H11A           25.6979390783      -21.5499261088       20.8788179099  MEMB      71              0.0000000000
      8195        71  OSM       H11B           25.1744822043      -23.2216421997       20.6087368183  MEMB      71              0.0000000000
      8196        71  OSM       P              27.6752577785      -22.0161779368       19.0368345565  MEMB      71              0.0000000000
      8197        71  OSM       O13            27.9219644991      -20.6094786837       19.5379591076  MEMB      71              0.0000000000
      8198        71  OSM       O14            28.8495184464      -22.6906996574       18.5232803895  MEMB      71              0.0000000000
      8199        71  OSM       O11            26.5585192210      -22.0136141192       17.8481142510  MEMB      71              0.0000000000
      8200        71  OSM       O12            27.1274914823      -22.9600595388       20.1305918361  MEMB      71              0.0000000000
      8201        71  OSM       C1S            26.0970772431      -23.2991929390       17.4400565175  MEMB      71              0.0000000000
      8202        71  OSM       H1S            25.2233310572      -23.4865281460       18.1002038924  MEMB      71              0.0000000000
      8203        71  OSM       H1T            26.8424262650      -24.1119844047       17.5747631524  MEMB      71              0.0000000000
      8204        71  OSM       NF             26.9029654223      -22.8712278990       15.1717887017  MEMB      71              0.0000000000
      8205        71  OSM       HNF            26.9879495496      -22.0241785843       14.6528530408  MEMB      71              0.0000000000
      8206        71  OSM       C2S            25.7019428901      -23.1447836887       15.9209287330  MEMB      71              0.0000000000
      8207        71  OSM       H2S            25.3545468581      -24.1507394152       15.6020405231  MEMB      71              0.0000000000
      8208        71  OSM       C3S            24.7204635810      -22.0153032054       15.7440929103  MEMB      71              0.0000000000
      8209        71  OSM       H3S            25.1504743538      -21.0076629842       15.9286817803  MEMB      71              0.0000000000
      8210        71  OSM       O3             23.6000452999      -22.1079462706       16.5454799967  MEMB      71              0.0000000000
      8211        71  OSM       HO3            23.9053864341      -22.5237866951       17.3550746346  MEMB      71              0.0000000000
      8212        71  OSM       C4S            24.2965245029      -21.9112622839       14.3355931586  MEMB      71              0.0000000000
      8213        71  OSM       H4S            24.8120912395      -21.1684798474       13.7091227757  MEMB      71              0.0000000000
      8214        71  OSM       C5S            23.5874090860      -22.7672549829       13.7003831852  MEMB      71              0.0000000000
      8215        71  OSM       H5S            23.2505784002      -23.7411724825       14.0851296533  MEMB      71              0.0000000000
      8216        71  OSM       C6S            23.1725244212      -22.6299547605       12.2372191383  MEMB      71              0.0000000000
      8217        71  OSM       H6S            23.5473900356      -21.6973103809       11.7639624832  MEMB      71              0.0000000000
      8218        71  OSM       H6T            22.0662711638      -22.5762884384       12.1497820562  MEMB      71              0.0000000000
      8219        71  OSM       C7S            23.6902446703      -23.7725974369       11.2880876908  MEMB      71              0.0000000000
      8220        71  OSM       H7S            23.1801121025      -23.6673543669       10.3067571821  MEMB      71              0.0000000000
      8221        71  OSM       H7T            23.2949143203      -24.7208604947       11.7109729473  MEMB      71              0.0000000000
      8222        71  OSM       C8S            25.1481263000      -23.9126509802       11.1547530828  MEMB      71              0.0000000000
      8223        71  OSM       H8S            25.4871018443      -24.6567167846       10.4025685833  MEMB      71              0.0000000000
      8224        71  OSM       H8T            25.5689469991      -24.2896749463       12.1113534009  MEMB      71              0.0000000000
      8225        71  OSM       C9S            25.9332865401      -22.5719080244       10.8515966659  MEMB      71              0.0000000000
      8226        71  OSM       H9S            25.8300095828      -21.8192172326       11.6622212383  MEMB      71              0.0000000000
      8227        71  OSM       H9T            25.4563720419      -22.1122949960        9.9596164003  MEMB      71              0.0000000000
      8228        71  OSM       C10S           27.4323541348      -22.7873829541       10.6525369934  MEMB      71              0.0000000000
      8229        71  OSM       H10S           27.5128950066      -23.6412757884        9.9463494023  MEMB      71              0.0000000000
      8230        71  OSM       H10T           27.9805525307      -23.0102026809       11.5928301680  MEMB      71              0.0000000000
      8231        71  OSM       C11S           28.0370601171      -21.4816192616       10.0160897318  MEMB      71              0.0000000000
      8232        71  OSM       H11S           29.1404082381      -21.5896012569       10.0887794352  MEMB      71              0.0000000000
      8233        71  OSM       H11T           27.7080027386      -20.5866108939       10.5861805176  MEMB      71              0.0000000000
      8234        71  OSM       C12S           27.8053041024      -21.2830590948        8.5195465457  MEMB      71              0.0000000000
      8235        71  OSM       H12S           26.7500392588      -20.9733865123        8.3619390888  MEMB      71              0.0000000000
      8236        71  OSM       H12T           28.0005631823      -22.2776461901        8.0645840679  MEMB      71              0.0000000000
      8237        71  OSM       C13S           28.6142979537      -20.1871639126        7.7780918994  MEMB      71              0.0000000000
      8238        71  OSM       H13S           29.6231649779      -20.0036134136        8.2056633349  MEMB      71              0.0000000000
      8239        71  OSM       H13T           28.0533611760      -19.2956470983        8.1314591428  MEMB      71              0.0000000000
      8240        71  OSM       C14S           28.8058516200      -20.3725370849        6.2607174108  MEMB      71              0.0000000000
      8241        71  OSM       H14S           29.5217334728      -21.2171020060        6.1682846251  MEMB      71              0.0000000000
      8242        71  OSM       H14T           29.4150661314      -19.5222822358        5.8862241330  MEMB      71              0.0000000000
      8243        71  OSM       C15S           27.5660303937      -20.6260539430        5.3728201825  MEMB      71              0.0000000000
      8244        71  OSM       H15S           26.9586176340      -19.6968709963        5.3282110427  MEMB      71              0.0000000000
      8245        71  OSM       H15T           26.9818033211      -21.3960236065        5.9206767098  MEMB      71              0.0000000000
      8246        71  OSM       C16S           27.9164434623      -21.2640868242        4.0457238881  MEMB      71              0.0000000000
      8247        71  OSM       H16S           26.9817151780      -21.4487359282        3.4743148818  MEMB      71              0.0000000000
      8248        71  OSM       H16T           28.3961600862      -22.2586784597        4.1681188491  MEMB      71              0.0000000000
      8249        71  OSM       C17S           28.7329306412      -20.3195943456        3.1454568139  MEMB      71              0.0000000000
      8250        71  OSM       H17S           29.7896024029      -20.3696066163        3.4849631859  MEMB      71              0.0000000000
      8251        71  OSM       H17T           28.4169230108      -19.2774190575        3.3652983582  MEMB      71              0.0000000000
      8252        71  OSM       C18S           28.6839341866      -20.5929736332        1.6033685458  MEMB      71              0.0000000000
      8253        71  OSM       H18S           28.7321417272      -21.6961624760        1.4810080829  MEMB      71              0.0000000000
      8254        71  OSM       H18T           29.5707502475      -20.1175943078        1.1323124759  MEMB      71              0.0000000000
      8255        71  OSM       H18U           27.7225904508      -20.2469474528        1.1670140955  MEMB      71              0.0000000000
      8256        71  OSM       C1F            27.9412469601      -23.7270742413       15.1463926498  MEMB      71              0.0000000000
      8257        71  OSM       OF             27.9145273490      -24.9032034545       15.5454312384  MEMB      71              0.0000000000
      8258        71  OSM       C2F            29.2354730768      -23.1268831866       14.5144078098  MEMB      71              0.0000000000
      8259        71  OSM       H2F            29.4234079163      -22.1482986350       15.0057059388  MEMB      71              0.0000000000
      8260        71  OSM       H2G            29.0399444504      -22.8929530484       13.4460604198  MEMB      71              0.0000000000
      8261        71  OSM       C3F            30.6058945808      -23.8755048360       14.6618455463  MEMB      71              0.0000000000
      8262        71  OSM       H3F            30.8423253458      -24.1754767747       15.7051280577  MEMB      71              0.0000000000
      8263        71  OSM       H3G            31.2574911879      -23.0622855980       14.2765959748  MEMB      71              0.0000000000
      8264        71  OSM       C4F            30.6816327012      -25.1180396941       13.7825665897  MEMB      71              0.0000000000
      8265        71  OSM       H4F            30.2983622351      -25.9927260306       14.3503238280  MEMB      71              0.0000000000
      8266        71  OSM       H4G            31.7439678636      -25.3054675636       13.5167938378  MEMB      71              0.0000000000
      8267        71  OSM       C5F            29.9221373369      -24.9863273700       12.4310481035  MEMB      71              0.0000000000
      8268        71  OSM       H5F            30.2548882136      -24.0050513598       12.0301806186  MEMB      71              0.0000000000
      8269        71  OSM       H5G            28.8519700136      -25.1758405009       12.6615864818  MEMB      71              0.0000000000
      8270        71  OSM       C6F            30.2772812161      -26.1573191344       11.4481404090  MEMB      71              0.0000000000
      8271        71  OSM       H6F            30.3522517721      -27.0739519038       12.0714255305  MEMB      71              0.0000000000
      8272        71  OSM       H6G            31.3300631011      -25.9854890541       11.1375828265  MEMB      71              0.0000000000
      8273        71  OSM       C7F            29.2924582491      -26.4322360476       10.3142281375  MEMB      71              0.0000000000
      8274        71  OSM       H7F            28.3593640381      -26.1166679970       10.8281084251  MEMB      71              0.0000000000
      8275        71  OSM       H7G            29.3663670384      -27.4542952056        9.8849805686  MEMB      71              0.0000000000
      8276        71  OSM       C8F            29.5755667140      -25.4889037835        9.0925011626  MEMB      71              0.0000000000
      8277        71  OSM       H8F            29.7011105716      -24.4544033521        9.4776866718  MEMB      71              0.0000000000
      8278        71  OSM       H8G            28.7347612472      -25.5586887135        8.3696610844  MEMB      71              0.0000000000
      8279        71  OSM       C9F            30.7871649676      -25.8443417943        8.3105247132  MEMB      71              0.0000000000
      8280        71  OSM       H9F            31.7207487118      -25.5989770721        8.8379874635  MEMB      71              0.0000000000
      8281        71  OSM       C10F           30.7820454120      -26.3966697809        7.1191660531  MEMB      71              0.0000000000
      8282        71  OSM       H10F           31.7754274618      -26.4671119333        6.6520147533  MEMB      71              0.0000000000
      8283        71  OSM       C11F           29.6647531619      -26.8489615215        6.2729428708  MEMB      71              0.0000000000
      8284        71  OSM       H11F           28.8174980413      -26.1457051636        6.4209664118  MEMB      71              0.0000000000
      8285        71  OSM       H11G           29.3823950988      -27.8709280426        6.6048759215  MEMB      71              0.0000000000
      8286        71  OSM       C12F           29.9084659274      -26.9789458012        4.7601625410  MEMB      71              0.0000000000
      8287        71  OSM       H12F           30.6462118723      -27.7886872385        4.5747668027  MEMB      71              0.0000000000
      8288        71  OSM       H12G           30.2703152741      -26.0239061668        4.3228000235  MEMB      71              0.0000000000
      8289        71  OSM       C13F           28.6095018607      -27.4113965071        4.0975032794  MEMB      71              0.0000000000
      8290        71  OSM       H13F           28.2787392648      -28.2856608207        4.6979859941  MEMB      71              0.0000000000
      8291        71  OSM       H13G           28.9939761931      -27.8020466419        3.1311224473  MEMB      71              0.0000000000
      8292        71  OSM       C14F           27.4455904642      -26.4128709852        3.8223911266  MEMB      71              0.0000000000
      8293        71  OSM       H14F           27.2637175790      -25.8371518855        4.7550169274  MEMB      71              0.0000000000
      8294        71  OSM       H14G           26.6434728948      -27.1442035809        3.5855758858  MEMB      71              0.0000000000
      8295        71  OSM       C15F           27.6341591009      -25.4195537860        2.6518862474  MEMB      71              0.0000000000
      8296        71  OSM       H15F           27.8507568132      -26.0040897680        1.7322537404  MEMB      71              0.0000000000
      8297        71  OSM       H15G           28.5061470805      -24.8051913625        2.9625589276  MEMB      71              0.0000000000
      8298        71  OSM       C16F           26.5092829833      -24.4073510816        2.3318554142  MEMB      71              0.0000000000
      8299        71  OSM       H16F           26.8541161463      -23.8616707677        1.4276190490  MEMB      71              0.0000000000
      8300        71  OSM       H16G           26.2810228171      -23.7209886362        3.1751366882  MEMB      71              0.0000000000
      8301        71  OSM       C17F           25.1886328388      -25.0771046221        2.0845923362  MEMB      71              0.0000000000
      8302        71  OSM       H17F           24.3480997407      -24.3523263324        2.0343757146  MEMB      71              0.0000000000
      8303        71  OSM       H17G           25.0417854227      -25.6307861596        3.0365338013  MEMB      71              0.0000000000
      8304        71  OSM       C18F           25.2438351799      -26.1486889837        0.9862539017  MEMB      71              0.0000000000
      8305        71  OSM       H18F           25.9128956908      -26.9312041962        1.4038052827  MEMB      71              0.0000000000
      8306        71  OSM       H18G           25.6914507946      -25.8067992518        0.0286164240  MEMB      71              0.0000000000
      8307        71  OSM       H18H           24.3144681098      -26.6906512844        0.7089914261  MEMB      71              0.0000000000
      8308        72  CHL1      C3             35.1486127372       -9.4710590824       17.3382800000  MEMB      72              0.0000000000
      8309        72  CHL1      H3             34.2701316343       -8.9149182474       16.9467500000  MEMB      72              0.0000000000
      8310        72  CHL1      O3             34.9569700628       -9.7052880576       18.6617200000  MEMB      72              0.0000000000
      8311        72  CHL1      H3'            34.8930432139       -8.9072668119       19.1915200000  MEMB      72              0.0000000000
      8312        72  CHL1      C4             35.1444466937      -10.8699776106       16.6514500000  MEMB      72              0.0000000000
      8313        72  CHL1      H4A            35.9335468732      -11.4843336757       17.1354200000  MEMB      72              0.0000000000
      8314        72  CHL1      H4B            34.1369964757      -11.2857975672       16.8669600000  MEMB      72              0.0000000000
      8315        72  CHL1      C5             35.3418804350      -10.7582313430       15.1667000000  MEMB      72              0.0000000000
      8316        72  CHL1      C6             34.3849849297      -11.2439634411       14.3370700000  MEMB      72              0.0000000000
      8317        72  CHL1      H6             33.5122647230      -11.8108272174       14.6934700000  MEMB      72              0.0000000000
      8318        72  CHL1      C7             34.5260229785      -11.2223333651       12.8404000000  MEMB      72              0.0000000000
      8319        72  CHL1      H7A            34.4115911046      -12.2371822229       12.4030100000  MEMB      72              0.0000000000
      8320        72  CHL1      H7B            33.7344825239      -10.5796952569       12.3990500000  MEMB      72              0.0000000000
      8321        72  CHL1      C8             35.8757794285      -10.6738622919       12.3444300000  MEMB      72              0.0000000000
      8322        72  CHL1      H8             36.6276856430      -11.4599911531       12.5701700000  MEMB      72              0.0000000000
      8323        72  CHL1      C14            35.7601279011      -10.2840617868       10.9140100000  MEMB      72              0.0000000000
      8324        72  CHL1      H14            35.0497507766       -9.4299303911       10.9262700000  MEMB      72              0.0000000000
      8325        72  CHL1      C15            35.2255204074      -11.3564460607        9.9865800000  MEMB      72              0.0000000000
      8326        72  CHL1      H15A           35.7351304952      -12.3142570492       10.2257700000  MEMB      72              0.0000000000
      8327        72  CHL1      H15B           34.1331521741      -11.5470383959       10.0553300000  MEMB      72              0.0000000000
      8328        72  CHL1      C16            35.6437519864      -10.9495870226        8.5523000000  MEMB      72              0.0000000000
      8329        72  CHL1      H16A           36.1989887905      -11.7603337542        8.0339000000  MEMB      72              0.0000000000
      8330        72  CHL1      H16B           34.6900352176      -10.7546313473        8.0168300000  MEMB      72              0.0000000000
      8331        72  CHL1      C17            36.7230983481       -9.7542386614        8.8126600000  MEMB      72              0.0000000000
      8332        72  CHL1      H17            36.1660011168       -8.7968829758        8.7264700000  MEMB      72              0.0000000000
      8333        72  CHL1      C13            37.1120632719       -9.8455872168       10.2836400000  MEMB      72              0.0000000000
      8334        72  CHL1      C18            38.2028324001      -10.9460989519       10.4275400000  MEMB      72              0.0000000000
      8335        72  CHL1      H18A           39.1243161257      -10.7296707608        9.8458600000  MEMB      72              0.0000000000
      8336        72  CHL1      H18B           38.4429680295      -11.1453034999       11.4938300000  MEMB      72              0.0000000000
      8337        72  CHL1      H18C           37.7796425184      -11.8687638358        9.9759700000  MEMB      72              0.0000000000
      8338        72  CHL1      C12            37.6033461937       -8.5219085290       11.0401300000  MEMB      72              0.0000000000
      8339        72  CHL1      H12A           38.6428792433       -8.2007306978       10.8153100000  MEMB      72              0.0000000000
      8340        72  CHL1      H12B           36.8906430470       -7.7393992376       10.7024300000  MEMB      72              0.0000000000
      8341        72  CHL1      C11            37.6396535303       -8.7805829503       12.5509900000  MEMB      72              0.0000000000
      8342        72  CHL1      H11A           38.5069054422       -9.4432361760       12.7586000000  MEMB      72              0.0000000000
      8343        72  CHL1      H11B           37.8081136078       -7.9062969230       13.2155000000  MEMB      72              0.0000000000
      8344        72  CHL1      C9             36.4129271116       -9.4924291435       13.2140000000  MEMB      72              0.0000000000
      8345        72  CHL1      H9             35.5833002758       -8.7592992823       13.1215400000  MEMB      72              0.0000000000
      8346        72  CHL1      C10            36.5067284767       -9.7911269977       14.6957800000  MEMB      72              0.0000000000
      8347        72  CHL1      C19            37.8503412041      -10.5170396793       14.9835400000  MEMB      72              0.0000000000
      8348        72  CHL1      H19A           38.6998974003       -9.8115561067       14.8616300000  MEMB      72              0.0000000000
      8349        72  CHL1      H19B           37.7286750208      -10.9098595139       16.0156300000  MEMB      72              0.0000000000
      8350        72  CHL1      H19C           38.0713215543      -11.3465745765       14.2783000000  MEMB      72              0.0000000000
      8351        72  CHL1      C1             36.4979822781       -8.4676286195       15.5021400000  MEMB      72              0.0000000000
      8352        72  CHL1      H1A            37.4203216396       -7.9127545042       15.2269600000  MEMB      72              0.0000000000
      8353        72  CHL1      H1B            35.6120351427       -7.8671947245       15.2039700000  MEMB      72              0.0000000000
      8354        72  CHL1      C2             36.4988441895       -8.7575444609       17.0137700000  MEMB      72              0.0000000000
      8355        72  CHL1      H2A            36.5913981184       -7.7342429572       17.4363700000  MEMB      72              0.0000000000
      8356        72  CHL1      H2B            37.3548823698       -9.3310796866       17.4292000000  MEMB      72              0.0000000000
      8357        72  CHL1      C20            37.8780183632       -9.5855672088        7.7124100000  MEMB      72              0.0000000000
      8358        72  CHL1      H20            38.4217050442      -10.5534277095        7.6682000000  MEMB      72              0.0000000000
      8359        72  CHL1      C21            38.8323205758       -8.4478105083        7.9464300000  MEMB      72              0.0000000000
      8360        72  CHL1      H21A           39.3018437404       -8.4201166392        8.9529600000  MEMB      72              0.0000000000
      8361        72  CHL1      H21B           38.3277122475       -7.4737392953        7.7706800000  MEMB      72              0.0000000000
      8362        72  CHL1      H21C           39.6468413283       -8.5518475742        7.1980500000  MEMB      72              0.0000000000
      8363        72  CHL1      C22            37.2083458625       -9.4574991603        6.3049100000  MEMB      72              0.0000000000
      8364        72  CHL1      H22A           36.5751767363      -10.3577079588        6.1530600000  MEMB      72              0.0000000000
      8365        72  CHL1      H22B           36.6794812940       -8.4856371122        6.4053600000  MEMB      72              0.0000000000
      8366        72  CHL1      C23            38.0859143248       -9.3994158745        5.0605500000  MEMB      72              0.0000000000
      8367        72  CHL1      H23A           38.8389116532       -8.5898171751        5.1695600000  MEMB      72              0.0000000000
      8368        72  CHL1      H23B           38.5577826581      -10.3999443309        4.9576300000  MEMB      72              0.0000000000
      8369        72  CHL1      C24            37.2350211176       -9.2360956868        3.7325800000  MEMB      72              0.0000000000
      8370        72  CHL1      H24A           36.6787580488      -10.1888903279        3.6019200000  MEMB      72              0.0000000000
      8371        72  CHL1      H24B           36.5268178456       -8.4036712662        3.9321400000  MEMB      72              0.0000000000
      8372        72  CHL1      C25            38.0265318042       -8.8629481660        2.4214600000  MEMB      72              0.0000000000
      8373        72  CHL1      H25            38.8879146948       -9.5635797274        2.3832700000  MEMB      72              0.0000000000
      8374        72  CHL1      C26            37.0995559023       -8.9183223173        1.2019900000  MEMB      72              0.0000000000
      8375        72  CHL1      H26A           36.2785759539       -8.1882341394        1.3671800000  MEMB      72              0.0000000000
      8376        72  CHL1      H26B           37.6919652401       -8.5743900221        0.3273000000  MEMB      72              0.0000000000
      8377        72  CHL1      H26C           36.7344706299       -9.9554923474        1.0429200000  MEMB      72              0.0000000000
      8378        72  CHL1      C27            38.5730821738       -7.3986046975        2.5722200000  MEMB      72              0.0000000000
      8379        72  CHL1      H27A           37.6770060795       -6.7471462478        2.4886600000  MEMB      72              0.0000000000
      8380        72  CHL1      H27B           39.1057827150       -7.2172791273        3.5301800000  MEMB      72              0.0000000000
      8381        72  CHL1      H27C           39.3039847688       -7.2305774685        1.7525500000  MEMB      72              0.0000000000
      8382        73  SAPC      N             -16.1047784485       34.5370667982       20.9933897094  MEMB      73              0.0000000000
      8383        73  SAPC      C12           -16.2282568797       33.5164164018       19.9113746136  MEMB      73              0.0000000000
      8384        73  SAPC      H12A          -15.6820429424       33.8632781159       19.0466565567  MEMB      73              0.0000000000
      8385        73  SAPC      H12B          -17.2327545454       33.4336147219       19.5233950373  MEMB      73              0.0000000000
      8386        73  SAPC      C13           -14.6575438217       34.6939828971       21.3603095188  MEMB      73              0.0000000000
      8387        73  SAPC      H13A          -14.2636964906       33.7681080610       21.7527886799  MEMB      73              0.0000000000
      8388        73  SAPC      H13B          -14.0543997364       34.9051912302       20.4896727674  MEMB      73              0.0000000000
      8389        73  SAPC      H13C          -14.5796082503       35.5086882250       22.0649947137  MEMB      73              0.0000000000
      8390        73  SAPC      C14           -16.7101742101       35.8312458570       20.5236759164  MEMB      73              0.0000000000
      8391        73  SAPC      H14A          -16.3815837200       36.1116810104       19.5338353142  MEMB      73              0.0000000000
      8392        73  SAPC      H14B          -17.7647675754       35.6032228062       20.5709865101  MEMB      73              0.0000000000
      8393        73  SAPC      H14C          -16.6467027793       36.6484852061       21.2268765767  MEMB      73              0.0000000000
      8394        73  SAPC      C15           -16.8137923583       33.9871609097       22.2416192535  MEMB      73              0.0000000000
      8395        73  SAPC      H15A          -16.6223243793       32.9743074119       22.5639044826  MEMB      73              0.0000000000
      8396        73  SAPC      H15B          -16.3964303531       34.5217574075       23.0821044505  MEMB      73              0.0000000000
      8397        73  SAPC      H15C          -17.8859026050       34.0893738105       22.1607971781  MEMB      73              0.0000000000
      8398        73  SAPC      C11           -15.6474956434       32.0730389549       19.8998752479  MEMB      73              0.0000000000
      8399        73  SAPC      H11A          -16.0144660626       31.6131933059       18.9574338627  MEMB      73              0.0000000000
      8400        73  SAPC      H11B          -16.1478836305       31.4348035864       20.6592094862  MEMB      73              0.0000000000
      8401        73  SAPC      P             -13.1920320638       32.2868811914       19.0674642858  MEMB      73              0.0000000000
      8402        73  SAPC      O13           -13.1272813767       33.7383197088       18.8687561779  MEMB      73              0.0000000000
      8403        73  SAPC      O14           -11.9027018846       31.5754040170       19.3347873200  MEMB      73              0.0000000000
      8404        73  SAPC      O12           -14.2761014381       31.9656973685       20.1056039118  MEMB      73              0.0000000000
      8405        73  SAPC      O11           -13.8027769946       31.6823551823       17.6931440491  MEMB      73              0.0000000000
      8406        73  SAPC      C1            -13.6111831404       30.3792742845       17.1094410497  MEMB      73              0.0000000000
      8407        73  SAPC      HA            -12.5114687232       30.2392287501       17.0363890116  MEMB      73              0.0000000000
      8408        73  SAPC      HB            -14.0020494440       29.6479872356       17.8488758208  MEMB      73              0.0000000000
      8409        73  SAPC      C2            -14.2093262840       30.2878633815       15.6176363859  MEMB      73              0.0000000000
      8410        73  SAPC      HS            -13.8610327466       29.3038156390       15.2372912751  MEMB      73              0.0000000000
      8411        73  SAPC      O21           -13.8862016295       31.4437327369       14.8710827960  MEMB      73              0.0000000000
      8412        73  SAPC      C21           -12.6844227159       31.5315879569       14.3458637742  MEMB      73              0.0000000000
      8413        73  SAPC      O22           -11.8355813796       30.6799635818       14.2069825622  MEMB      73              0.0000000000
      8414        73  SAPC      C22           -12.3002838458       32.9915101265       13.9056570567  MEMB      73              0.0000000000
      8415        73  SAPC      H2R           -13.1133567747       33.7416022563       14.0085898513  MEMB      73              0.0000000000
      8416        73  SAPC      H2S           -11.5060800559       33.3844030843       14.5758781795  MEMB      73              0.0000000000
      8417        73  SAPC      C3            -15.7874799159       30.1221537767       15.7008137365  MEMB      73              0.0000000000
      8418        73  SAPC      HX            -16.2988516796       31.0265656921       16.0943353509  MEMB      73              0.0000000000
      8419        73  SAPC      HY            -15.9567626059       29.2477799892       16.3649938774  MEMB      73              0.0000000000
      8420        73  SAPC      O31           -16.2072052884       29.8374918142       14.3501511172  MEMB      73              0.0000000000
      8421        73  SAPC      C31           -16.1045154313       28.6296284323       13.9722929325  MEMB      73              0.0000000000
      8422        73  SAPC      O32           -15.7068073953       27.6889489671       14.6077451685  MEMB      73              0.0000000000
      8423        73  SAPC      C32           -16.5697188473       28.5174218301       12.4758495436  MEMB      73              0.0000000000
      8424        73  SAPC      H2X           -17.0320196933       29.4934605337       12.2151821532  MEMB      73              0.0000000000
      8425        73  SAPC      H2Y           -17.3668840600       27.7437237369       12.4603729126  MEMB      73              0.0000000000
      8426        73  SAPC      C23           -11.7510511457       32.8655063928       12.4440797297  MEMB      73              0.0000000000
      8427        73  SAPC      H3R           -10.8106428208       32.2739708456       12.4503053199  MEMB      73              0.0000000000
      8428        73  SAPC      H3S           -11.4272889090       33.7940834677       11.9271236871  MEMB      73              0.0000000000
      8429        73  SAPC      C24           -12.8399214750       32.3456249803       11.4264020594  MEMB      73              0.0000000000
      8430        73  SAPC      H4R           -13.2528295022       31.3651727253       11.7466224269  MEMB      73              0.0000000000
      8431        73  SAPC      H4S           -12.3327451892       32.0555864633       10.4814307472  MEMB      73              0.0000000000
      8432        73  SAPC      C25           -13.9363735426       33.3365478639       11.2489085254  MEMB      73              0.0000000000
      8433        73  SAPC      H5R           -13.4551792815       34.2673893034       10.9142648703  MEMB      73              0.0000000000
      8434        73  SAPC      C26           -15.2689642956       33.2474834903       11.3914088942  MEMB      73              0.0000000000
      8435        73  SAPC      H6R           -15.8977617018       34.1440242773       11.2873485057  MEMB      73              0.0000000000
      8436        73  SAPC      C27           -16.0247460473       31.9980754981       11.7861183136  MEMB      73              0.0000000000
      8437        73  SAPC      H7R           -15.9344339855       31.9374609308       12.8917809550  MEMB      73              0.0000000000
      8438        73  SAPC      H7S           -15.4512035118       31.1171231997       11.4265446384  MEMB      73              0.0000000000
      8439        73  SAPC      C28           -17.4789821734       32.0082070511       11.3908311092  MEMB      73              0.0000000000
      8440        73  SAPC      H8R           -18.1751937788       31.7987012482       12.2162982038  MEMB      73              0.0000000000
      8441        73  SAPC      C29           -18.0893383391       32.0552791180       10.1678988007  MEMB      73              0.0000000000
      8442        73  SAPC      H9R           -19.1865929040       32.1329275097       10.1697300725  MEMB      73              0.0000000000
      8443        73  SAPC      C210          -17.3650669428       32.1677901096        8.8685920660  MEMB      73              0.0000000000
      8444        73  SAPC      H10R          -17.8101172906       31.5001459008        8.1001511456  MEMB      73              0.0000000000
      8445        73  SAPC      H10S          -16.3485930469       31.7220992306        8.9182031748  MEMB      73              0.0000000000
      8446        73  SAPC      C211          -17.1919662136       33.5320630072        8.2563509203  MEMB      73              0.0000000000
      8447        73  SAPC      H11R          -17.5272131864       34.3301449691        8.9350811148  MEMB      73              0.0000000000
      8448        73  SAPC      C212          -16.6868224226       33.8298201835        7.0717278029  MEMB      73              0.0000000000
      8449        73  SAPC      H12R          -16.5676446440       34.8895206818        6.8018548007  MEMB      73              0.0000000000
      8450        73  SAPC      C213          -16.1072968358       32.8100795316        6.1083892363  MEMB      73              0.0000000000
      8451        73  SAPC      H13R          -16.2568398194       33.2219553501        5.0874506912  MEMB      73              0.0000000000
      8452        73  SAPC      H13S          -16.6240669576       31.8287292862        6.1733609405  MEMB      73              0.0000000000
      8453        73  SAPC      C214          -14.5826180061       32.7265064279        6.3675570655  MEMB      73              0.0000000000
      8454        73  SAPC      H14R          -14.1765923343       33.0952823259        7.3210486522  MEMB      73              0.0000000000
      8455        73  SAPC      C215          -13.7483817753       32.3175335062        5.3394949679  MEMB      73              0.0000000000
      8456        73  SAPC      H15R          -12.6728043083       32.2776323960        5.5665214195  MEMB      73              0.0000000000
      8457        73  SAPC      C216          -14.1187517534       31.9207874447        3.8814218783  MEMB      73              0.0000000000
      8458        73  SAPC      H16R          -15.1833707099       31.6606599162        3.6991010979  MEMB      73              0.0000000000
      8459        73  SAPC      H16S          -13.6682824612       30.9069203924        3.8225019023  MEMB      73              0.0000000000
      8460        73  SAPC      C217          -13.5431695590       32.8651100615        2.8055741683  MEMB      73              0.0000000000
      8461        73  SAPC      H17R          -13.9958638858       32.6658389780        1.8107470298  MEMB      73              0.0000000000
      8462        73  SAPC      H17S          -12.4380885069       32.7586673263        2.8478447482  MEMB      73              0.0000000000
      8463        73  SAPC      C218          -13.8818313614       34.3804561899        3.1168802214  MEMB      73              0.0000000000
      8464        73  SAPC      H18R          -13.1898378064       35.1115026466        2.6467330860  MEMB      73              0.0000000000
      8465        73  SAPC      H18S          -14.0116740000       34.7424974107        4.1591790213  MEMB      73              0.0000000000
      8466        73  SAPC      C219          -15.1923426951       34.8181256152        2.4273152696  MEMB      73              0.0000000000
      8467        73  SAPC      H19R          -15.5754797578       35.8012808860        2.7750682073  MEMB      73              0.0000000000
      8468        73  SAPC      H19S          -15.9488005332       34.1073915568        2.8234840309  MEMB      73              0.0000000000
      8469        73  SAPC      C220          -15.1814507887       34.8257974605        0.9214948761  MEMB      73              0.0000000000
      8470        73  SAPC      H20R          -15.0012577302       33.8269073805        0.4697534516  MEMB      73              0.0000000000
      8471        73  SAPC      H20S          -14.5133098439       35.6085010242        0.5028258308  MEMB      73              0.0000000000
      8472        73  SAPC      H20T          -16.2084914653       35.0771111978        0.5803939296  MEMB      73              0.0000000000
      8473        73  SAPC      C33           -15.3202335309       28.0080563335       11.8053554075  MEMB      73              0.0000000000
      8474        73  SAPC      H3X           -14.8578244681       27.1400524116       12.3221413091  MEMB      73              0.0000000000
      8475        73  SAPC      H3Y           -14.6409756560       28.8870416391       11.7876165370  MEMB      73              0.0000000000
      8476        73  SAPC      C34           -15.4695294828       27.4977620083       10.3290643003  MEMB      73              0.0000000000
      8477        73  SAPC      H4X           -16.2124312158       26.6792641469       10.4407755325  MEMB      73              0.0000000000
      8478        73  SAPC      H4Y           -14.5148130973       27.0955870423        9.9277008026  MEMB      73              0.0000000000
      8479        73  SAPC      C35           -15.9672655945       28.6926283546        9.4903304617  MEMB      73              0.0000000000
      8480        73  SAPC      H5X           -15.2595211462       29.5213557038        9.2743911551  MEMB      73              0.0000000000
      8481        73  SAPC      H5Y           -16.8789855822       29.1308640157        9.9497190746  MEMB      73              0.0000000000
      8482        73  SAPC      C36           -16.4716878179       28.0399015256        8.1018781115  MEMB      73              0.0000000000
      8483        73  SAPC      H6X           -17.2249658971       28.7145598156        7.6417380901  MEMB      73              0.0000000000
      8484        73  SAPC      H6Y           -17.0552454131       27.1053059373        8.2444028477  MEMB      73              0.0000000000
      8485        73  SAPC      C37           -15.3443755894       27.6167951988        7.0527325671  MEMB      73              0.0000000000
      8486        73  SAPC      H7X           -15.9038962641       27.2517327705        6.1650451451  MEMB      73              0.0000000000
      8487        73  SAPC      H7Y           -14.8942637347       26.6651313830        7.4077766494  MEMB      73              0.0000000000
      8488        73  SAPC      C38           -14.1822332551       28.6295422432        6.7983863607  MEMB      73              0.0000000000
      8489        73  SAPC      H8X           -13.6250469991       28.8591996422        7.7317252939  MEMB      73              0.0000000000
      8490        73  SAPC      H8Y           -14.7284549861       29.5668111504        6.5586159203  MEMB      73              0.0000000000
      8491        73  SAPC      C39           -13.2363290570       28.1282386874        5.5689642280  MEMB      73              0.0000000000
      8492        73  SAPC      H9X           -12.5862124806       27.2692253821        5.8405619120  MEMB      73              0.0000000000
      8493        73  SAPC      H9Y           -12.5517238162       28.8872011401        5.1335189143  MEMB      73              0.0000000000
      8494        73  SAPC      C310          -14.1106612246       27.7602251142        4.3324518949  MEMB      73              0.0000000000
      8495        73  SAPC      H10X          -14.8418383067       28.5921245644        4.2450201611  MEMB      73              0.0000000000
      8496        73  SAPC      H10Y          -14.7156586458       26.8417142279        4.4894139310  MEMB      73              0.0000000000
      8497        73  SAPC      C311          -13.2827688232       27.7966036256        2.9900295200  MEMB      73              0.0000000000
      8498        73  SAPC      H11X          -12.4921153751       27.0193110630        2.9192879691  MEMB      73              0.0000000000
      8499        73  SAPC      H11Y          -12.7743303031       28.7835502716        2.9482245047  MEMB      73              0.0000000000
      8500        73  SAPC      C312          -14.1762089944       27.7565252613        1.7220037593  MEMB      73              0.0000000000
      8501        73  SAPC      H12X          -15.0418949208       27.1315682664        2.0291478199  MEMB      73              0.0000000000
      8502        73  SAPC      H12Y          -13.5592205022       27.1829984790        0.9976321550  MEMB      73              0.0000000000
      8503        73  SAPC      C313          -14.5392015612       29.1712750998        1.1944282201  MEMB      73              0.0000000000
      8504        73  SAPC      H13X          -14.6340545292       29.8844499529        2.0410127230  MEMB      73              0.0000000000
      8505        73  SAPC      H13Y          -15.5198238299       29.1918639381        0.6726253306  MEMB      73              0.0000000000
      8506        73  SAPC      C314          -13.3931044456       29.6520278973        0.3101225206  MEMB      73              0.0000000000
      8507        73  SAPC      H14X          -13.1463711311       28.8128827790       -0.3749183323  MEMB      73              0.0000000000
      8508        73  SAPC      H14Y          -12.4665559379       29.9167045734        0.8630918183  MEMB      73              0.0000000000
      8509        73  SAPC      C315          -13.5410206145       30.8184277482       -0.6220606232  MEMB      73              0.0000000000
      8510        73  SAPC      H15X          -13.5772212972       31.6740334902        0.0857177090  MEMB      73              0.0000000000
      8511        73  SAPC      H15Y          -14.4572091756       30.7815145328       -1.2494020785  MEMB      73              0.0000000000
      8512        73  SAPC      C316          -12.3143001471       30.9662627776       -1.6084003676  MEMB      73              0.0000000000
      8513        73  SAPC      H16X          -12.5329003155       31.7891079677       -2.3221650874  MEMB      73              0.0000000000
      8514        73  SAPC      H16Y          -12.2017365650       30.0223766842       -2.1834921499  MEMB      73              0.0000000000
      8515        73  SAPC      C317          -11.0096314888       31.2757116097       -0.9453006083  MEMB      73              0.0000000000
      8516        73  SAPC      H17X          -10.5830006331       30.3059863692       -0.6107259345  MEMB      73              0.0000000000
      8517        73  SAPC      H17Y          -11.2769372626       31.8510931689       -0.0332669393  MEMB      73              0.0000000000
      8518        73  SAPC      C318           -9.8935138182       31.9077941877       -1.7519585747  MEMB      73              0.0000000000
      8519        73  SAPC      H18X           -9.0496727965       32.0863643848       -1.0516972683  MEMB      73              0.0000000000
      8520        73  SAPC      H18Y          -10.1435263831       32.8682221488       -2.2513516719  MEMB      73              0.0000000000
      8521        73  SAPC      H18Z           -9.6020367804       31.2557094260       -2.6029271036  MEMB      73              0.0000000000
      8522        74  CHL1      C3            -32.1484579464       17.2289127648       17.2930450000  MEMB      74              0.0000000000
      8523        74  CHL1      H3            -31.6934885804       18.1910846927       16.9743950000  MEMB      74              0.0000000000
      8524        74  CHL1      O3            -32.3233978536       17.0801364352       18.7069550000  MEMB      74              0.0000000000
      8525        74  CHL1      H3'           -32.8033165625       16.2502247537       18.7572150000  MEMB      74              0.0000000000
      8526        74  CHL1      C4            -33.5060821187       17.0126221550       16.6420250000  MEMB      74              0.0000000000
      8527        74  CHL1      H4A           -33.9131909505       16.0342549048       16.9757750000  MEMB      74              0.0000000000
      8528        74  CHL1      H4B           -34.1907421152       17.8420397823       16.9206350000  MEMB      74              0.0000000000
      8529        74  CHL1      C5            -33.4372078654       16.9908155841       15.1521950000  MEMB      74              0.0000000000
      8530        74  CHL1      C6            -34.1467265074       17.8731699874       14.4273850000  MEMB      74              0.0000000000
      8531        74  CHL1      H6            -34.7792008418       18.6017024638       14.9557950000  MEMB      74              0.0000000000
      8532        74  CHL1      C7            -34.1618052498       17.7786952102       12.8964750000  MEMB      74              0.0000000000
      8533        74  CHL1      H7A           -35.1949729184       17.8673713121       12.4976950000  MEMB      74              0.0000000000
      8534        74  CHL1      H7B           -33.6340421399       18.6742522287       12.5043550000  MEMB      74              0.0000000000
      8535        74  CHL1      C8            -33.5480648776       16.3879002838       12.3997550000  MEMB      74              0.0000000000
      8536        74  CHL1      H8            -34.2973428385       15.6129260273       12.6686750000  MEMB      74              0.0000000000
      8537        74  CHL1      C14           -33.4000122653       16.3406792610       10.8968350000  MEMB      74              0.0000000000
      8538        74  CHL1      H14           -32.8013821741       17.2366651923       10.6263550000  MEMB      74              0.0000000000
      8539        74  CHL1      C15           -34.6622972770       16.5261343792       10.0746050000  MEMB      74              0.0000000000
      8540        74  CHL1      H15A          -35.3739777788       15.6729954589       10.0763550000  MEMB      74              0.0000000000
      8541        74  CHL1      H15B          -35.1010149750       17.5285441417       10.2670250000  MEMB      74              0.0000000000
      8542        74  CHL1      C16           -34.1795090959       16.3666849845        8.6333650000  MEMB      74              0.0000000000
      8543        74  CHL1      H16A          -34.8078078327       15.7165421486        7.9877050000  MEMB      74              0.0000000000
      8544        74  CHL1      H16B          -34.0529446144       17.3639160104        8.1602550000  MEMB      74              0.0000000000
      8545        74  CHL1      C17           -32.7777563053       15.6763748697        8.7776850000  MEMB      74              0.0000000000
      8546        74  CHL1      H17           -32.0820836238       16.5348486743        8.6620150000  MEMB      74              0.0000000000
      8547        74  CHL1      C13           -32.6953956108       15.1615805115       10.2440350000  MEMB      74              0.0000000000
      8548        74  CHL1      C18           -33.4703546666       13.8422575631       10.4173650000  MEMB      74              0.0000000000
      8549        74  CHL1      H18A          -33.7897979952       13.7496205209       11.4774150000  MEMB      74              0.0000000000
      8550        74  CHL1      H18B          -34.2921428930       13.7532533374        9.6750250000  MEMB      74              0.0000000000
      8551        74  CHL1      H18C          -32.7112207986       13.0552584478       10.2207350000  MEMB      74              0.0000000000
      8552        74  CHL1      C12           -31.3057548035       15.2015684648       10.8370950000  MEMB      74              0.0000000000
      8553        74  CHL1      H12A          -30.7012898757       14.4262754148       10.3195250000  MEMB      74              0.0000000000
      8554        74  CHL1      H12B          -30.8236824933       16.1726579547       10.5943650000  MEMB      74              0.0000000000
      8555        74  CHL1      C11           -31.2532990411       15.1154543784       12.3506550000  MEMB      74              0.0000000000
      8556        74  CHL1      H11A          -31.7113520027       14.1251725725       12.5600550000  MEMB      74              0.0000000000
      8557        74  CHL1      H11B          -30.2689616502       15.1300765987       12.8656350000  MEMB      74              0.0000000000
      8558        74  CHL1      C9            -32.2028277789       16.1940520877       13.0365850000  MEMB      74              0.0000000000
      8559        74  CHL1      H9            -31.6999540664       17.1825045803       12.9702250000  MEMB      74              0.0000000000
      8560        74  CHL1      C10           -32.3310904230       16.0506066028       14.6133350000  MEMB      74              0.0000000000
      8561        74  CHL1      C19           -32.8266285682       14.5790328192       14.8785350000  MEMB      74              0.0000000000
      8562        74  CHL1      H19A          -33.6337551527       14.2566182105       14.1865050000  MEMB      74              0.0000000000
      8563        74  CHL1      H19B          -31.9615257199       13.9548951373       14.5680950000  MEMB      74              0.0000000000
      8564        74  CHL1      H19C          -33.0882044878       14.3555771339       15.9349250000  MEMB      74              0.0000000000
      8565        74  CHL1      C1            -30.9515868592       16.1062017979       15.3867650000  MEMB      74              0.0000000000
      8566        74  CHL1      H1A           -30.2500506765       15.3121207867       15.0526950000  MEMB      74              0.0000000000
      8567        74  CHL1      H1B           -30.4637944052       17.0077738529       14.9583350000  MEMB      74              0.0000000000
      8568        74  CHL1      C2            -31.1419955302       16.0700772492       16.9224950000  MEMB      74              0.0000000000
      8569        74  CHL1      H2A           -30.2176156104       16.2913656744       17.4977150000  MEMB      74              0.0000000000
      8570        74  CHL1      H2B           -31.5348540878       15.0930529012       17.2766150000  MEMB      74              0.0000000000
      8571        74  CHL1      C20           -32.6053020366       14.7326666764        7.5342250000  MEMB      74              0.0000000000
      8572        74  CHL1      H20           -33.5332730862       14.1424998509        7.3764850000  MEMB      74              0.0000000000
      8573        74  CHL1      C21           -31.3419047189       13.7957241720        7.7961950000  MEMB      74              0.0000000000
      8574        74  CHL1      H21A          -30.4790542302       14.4301071332        8.0917850000  MEMB      74              0.0000000000
      8575        74  CHL1      H21B          -30.9450071872       13.2447817872        6.9168350000  MEMB      74              0.0000000000
      8576        74  CHL1      H21C          -31.5010400193       12.9730713085        8.5257450000  MEMB      74              0.0000000000
      8577        74  CHL1      C22           -32.3244452117       15.5922846325        6.2517750000  MEMB      74              0.0000000000
      8578        74  CHL1      H22A          -33.2172348608       16.1679217622        5.9263850000  MEMB      74              0.0000000000
      8579        74  CHL1      H22B          -31.5024445713       16.2726991957        6.5610950000  MEMB      74              0.0000000000
      8580        74  CHL1      C23           -31.7686466649       14.7178801006        5.1744750000  MEMB      74              0.0000000000
      8581        74  CHL1      H23A          -30.6847784327       14.4912545403        5.2650050000  MEMB      74              0.0000000000
      8582        74  CHL1      H23B          -32.2813491958       13.7340317831        5.1154550000  MEMB      74              0.0000000000
      8583        74  CHL1      C24           -31.9497543327       15.3716379237        3.8095850000  MEMB      74              0.0000000000
      8584        74  CHL1      H24A          -33.0127213777       15.4683358188        3.5012650000  MEMB      74              0.0000000000
      8585        74  CHL1      H24B          -31.5628866302       16.4122474882        3.7675350000  MEMB      74              0.0000000000
      8586        74  CHL1      C25           -31.2302261220       14.6119867226        2.7055650000  MEMB      74              0.0000000000
      8587        74  CHL1      H25           -31.5741788969       13.5578905580        2.7755250000  MEMB      74              0.0000000000
      8588        74  CHL1      C26           -31.4558508550       15.2072853992        1.3712950000  MEMB      74              0.0000000000
      8589        74  CHL1      H26A          -31.0491881020       16.2406875176        1.3391550000  MEMB      74              0.0000000000
      8590        74  CHL1      H26B          -31.0453635805       14.5079710335        0.6118350000  MEMB      74              0.0000000000
      8591        74  CHL1      H26C          -32.5626237698       15.2528133385        1.2858450000  MEMB      74              0.0000000000
      8592        74  CHL1      C27           -29.6877614962       14.6775006510        2.8733450000  MEMB      74              0.0000000000
      8593        74  CHL1      H27A          -29.5131980604       15.7674307145        2.9994150000  MEMB      74              0.0000000000
      8594        74  CHL1      H27B          -29.2816327306       14.1195932664        3.7440550000  MEMB      74              0.0000000000
      8595        74  CHL1      H27C          -29.1068339774       14.2962581363        2.0064550000  MEMB      74              0.0000000000
      8596        75  SAPS      N              27.2893328188       23.3929780588       21.9772594066  MEMB      75              0.0000000000
      8597        75  SAPS      HN1            26.9163564015       23.9103940482       22.7987028319  MEMB      75              0.0000000000
      8598        75  SAPS      HN2            26.5899778528       23.4296060084       21.2083894937  MEMB      75              0.0000000000
      8599        75  SAPS      HN3            27.4597123081       22.4386740621       22.3539223063  MEMB      75              0.0000000000
      8600        75  SAPS      C12            28.5890870267       24.0555530542       21.4675796016  MEMB      75              0.0000000000
      8601        75  SAPS      H12A           28.3751150574       25.1125063170       21.5264496554  MEMB      75              0.0000000000
      8602        75  SAPS      C13            29.7534392926       23.7679413450       22.4338884655  MEMB      75              0.0000000000
      8603        75  SAPS      O13A           29.6400941264       23.2204476000       23.5458666343  MEMB      75              0.0000000000
      8604        75  SAPS      O13B           30.8477142768       24.2711486295       22.0141270472  MEMB      75              0.0000000000
      8605        75  SAPS      C11            28.9002277886       23.5195218399       20.0461641905  MEMB      75              0.0000000000
      8606        75  SAPS      H11A           28.9193840481       22.4097975795       20.0958251971  MEMB      75              0.0000000000
      8607        75  SAPS      H11B           29.8640643193       23.9496508365       19.6992791598  MEMB      75              0.0000000000
      8608        75  SAPS      P              27.8303196813       23.2052494911       17.7194696297  MEMB      75              0.0000000000
      8609        75  SAPS      O13            29.2101093162       22.8854578834       17.2467079662  MEMB      75              0.0000000000
      8610        75  SAPS      O14            26.7915598418       22.1239603057       17.7380052499  MEMB      75              0.0000000000
      8611        75  SAPS      O12            27.8690336450       23.8658560823       19.0940809440  MEMB      75              0.0000000000
      8612        75  SAPS      O11            27.3376500809       24.2842384099       16.7168508420  MEMB      75              0.0000000000
      8613        75  SAPS      C1             28.1706992344       25.3225741541       16.2594067821  MEMB      75              0.0000000000
      8614        75  SAPS      HA             28.6896604993       25.7353875797       17.1508019367  MEMB      75              0.0000000000
      8615        75  SAPS      HB             28.7936680210       24.8710218137       15.4579510737  MEMB      75              0.0000000000
      8616        75  SAPS      C2             27.3864964081       26.6363433849       15.7887686121  MEMB      75              0.0000000000
      8617        75  SAPS      HS             26.8265017293       27.0005887892       16.6764915012  MEMB      75              0.0000000000
      8618        75  SAPS      O21            26.4924080356       26.3333664893       14.6908142557  MEMB      75              0.0000000000
      8619        75  SAPS      C21            25.5809648555       27.2519927260       14.3816540006  MEMB      75              0.0000000000
      8620        75  SAPS      O22            25.2952298340       28.2228371916       15.0443671202  MEMB      75              0.0000000000
      8621        75  SAPS      C22            24.7703711005       26.8074964588       13.1425759462  MEMB      75              0.0000000000
      8622        75  SAPS      H2R            25.0178606854       25.7418934683       12.9487719574  MEMB      75              0.0000000000
      8623        75  SAPS      H2S            23.6943729785       26.8886696077       13.4070760009  MEMB      75              0.0000000000
      8624        75  SAPS      C3             28.3453316791       27.8782554073       15.3421165083  MEMB      75              0.0000000000
      8625        75  SAPS      HX             28.8367739767       28.1387970721       16.3038459390  MEMB      75              0.0000000000
      8626        75  SAPS      HY             27.7552182533       28.7889987201       15.1041387190  MEMB      75              0.0000000000
      8627        75  SAPS      O31            29.2839289226       27.5544745053       14.3195646955  MEMB      75              0.0000000000
      8628        75  SAPS      C31            29.1556049934       28.1739986076       13.1053242035  MEMB      75              0.0000000000
      8629        75  SAPS      O32            28.6251661604       29.2185287311       12.8550520250  MEMB      75              0.0000000000
      8630        75  SAPS      C32            29.9294163592       27.3356334448       12.0343370541  MEMB      75              0.0000000000
      8631        75  SAPS      H2X            30.9020425982       27.8514179998       11.8850535825  MEMB      75              0.0000000000
      8632        75  SAPS      H2Y            29.2885098096       27.5800258455       11.1603627021  MEMB      75              0.0000000000
      8633        75  SAPS      C23            25.1012076086       27.7674528203       11.9180307774  MEMB      75              0.0000000000
      8634        75  SAPS      H3R            26.1671677723       27.6874380436       11.6152971949  MEMB      75              0.0000000000
      8635        75  SAPS      H3S            24.9448648119       28.8151075915       12.2531386902  MEMB      75              0.0000000000
      8636        75  SAPS      C24            24.1380280823       27.6684824679       10.7296940964  MEMB      75              0.0000000000
      8637        75  SAPS      H4R            24.0126270579       28.7012666067       10.3398828579  MEMB      75              0.0000000000
      8638        75  SAPS      H4S            23.0745176376       27.4926559318       10.9986772931  MEMB      75              0.0000000000
      8639        75  SAPS      C25            24.7065600188       26.7038229619        9.7014152608  MEMB      75              0.0000000000
      8640        75  SAPS      H5R            25.0064592703       25.7192465262       10.0895765659  MEMB      75              0.0000000000
      8641        75  SAPS      C26            25.0029135632       26.9885905520        8.3919192674  MEMB      75              0.0000000000
      8642        75  SAPS      H6R            25.4871155699       26.1455755302        7.8772601639  MEMB      75              0.0000000000
      8643        75  SAPS      C27            24.8293294206       28.2251970493        7.6425782001  MEMB      75              0.0000000000
      8644        75  SAPS      H7R            23.9897873268       28.7848188131        8.1076732652  MEMB      75              0.0000000000
      8645        75  SAPS      H7S            24.3604670301       27.9497072120        6.6737668985  MEMB      75              0.0000000000
      8646        75  SAPS      C28            25.9865427909       29.1454685915        7.3305940071  MEMB      75              0.0000000000
      8647        75  SAPS      H8R            25.9546209703       30.1191616988        7.8413801718  MEMB      75              0.0000000000
      8648        75  SAPS      C29            27.0554252336       28.9508280752        6.5486855078  MEMB      75              0.0000000000
      8649        75  SAPS      H9R            27.8178629260       29.7436884008        6.5565135516  MEMB      75              0.0000000000
      8650        75  SAPS      C210           27.2783871092       27.6707298350        5.8009709351  MEMB      75              0.0000000000
      8651        75  SAPS      H10R           27.4613452384       27.9570813682        4.7432132514  MEMB      75              0.0000000000
      8652        75  SAPS      H10S           26.3949379858       26.9975572978        5.7749446673  MEMB      75              0.0000000000
      8653        75  SAPS      C211           28.3611041430       26.9121823732        6.3827515766  MEMB      75              0.0000000000
      8654        75  SAPS      H11R           28.4793966699       27.1065737596        7.4589574332  MEMB      75              0.0000000000
      8655        75  SAPS      C212           29.0278313337       25.9365767766        5.7840530831  MEMB      75              0.0000000000
      8656        75  SAPS      H12R           29.8949731534       25.5785598723        6.3584128179  MEMB      75              0.0000000000
      8657        75  SAPS      C213           28.8432946421       25.3961373242        4.3983187988  MEMB      75              0.0000000000
      8658        75  SAPS      H13R           27.9093975975       25.7997177897        3.9519111277  MEMB      75              0.0000000000
      8659        75  SAPS      H13S           28.5853796292       24.3387618178        4.6213847380  MEMB      75              0.0000000000
      8660        75  SAPS      C214           30.0886380318       25.5278014439        3.5758464621  MEMB      75              0.0000000000
      8661        75  SAPS      H14R           30.9896860715       24.9605133469        3.8520652898  MEMB      75              0.0000000000
      8662        75  SAPS      C215           30.1126949308       26.1952602414        2.3249147323  MEMB      75              0.0000000000
      8663        75  SAPS      H15R           31.1019252782       26.2000457862        1.8438739338  MEMB      75              0.0000000000
      8664        75  SAPS      C216           29.0543092957       26.9255624290        1.5708877599  MEMB      75              0.0000000000
      8665        75  SAPS      H16R           28.0602939892       26.6355814609        1.9735869568  MEMB      75              0.0000000000
      8666        75  SAPS      H16S           29.0595882547       26.5714548338        0.5178446466  MEMB      75              0.0000000000
      8667        75  SAPS      C217           29.1201095683       28.5037951280        1.6200659847  MEMB      75              0.0000000000
      8668        75  SAPS      H17R           30.0587391180       28.7499219490        1.0790332483  MEMB      75              0.0000000000
      8669        75  SAPS      H17S           29.1605426807       28.9388721075        2.6415331736  MEMB      75              0.0000000000
      8670        75  SAPS      C218           27.9844896537       29.2727210574        0.9146395334  MEMB      75              0.0000000000
      8671        75  SAPS      H18R           27.9364806303       30.3132315214        1.3011032873  MEMB      75              0.0000000000
      8672        75  SAPS      H18S           26.9925760414       28.7815459723        1.0104292902  MEMB      75              0.0000000000
      8673        75  SAPS      C219           28.0961395400       29.4634662009       -0.6633792673  MEMB      75              0.0000000000
      8674        75  SAPS      H19R           27.0872545814       29.5843048766       -1.1126785100  MEMB      75              0.0000000000
      8675        75  SAPS      H19S           28.3579689631       28.4199291015       -0.9405010031  MEMB      75              0.0000000000
      8676        75  SAPS      C220           29.0900533273       30.5480090232       -1.1000567660  MEMB      75              0.0000000000
      8677        75  SAPS      H20R           28.6878464588       31.1440790450       -1.9469646683  MEMB      75              0.0000000000
      8678        75  SAPS      H20S           30.1306598016       30.1632088362       -1.1582618353  MEMB      75              0.0000000000
      8679        75  SAPS      H20T           29.1057686765       31.2287316799       -0.2221659639  MEMB      75              0.0000000000
      8680        75  SAPS      C33            29.8521266380       25.8595892924       12.4031242779  MEMB      75              0.0000000000
      8681        75  SAPS      H3X            28.8448757356       25.6220147141       12.8072594070  MEMB      75              0.0000000000
      8682        75  SAPS      H3Y            30.4740677823       25.6066375216       13.2882944107  MEMB      75              0.0000000000
      8683        75  SAPS      C34            30.2538482654       24.9947951754       11.2285758434  MEMB      75              0.0000000000
      8684        75  SAPS      H4X            31.3616664697       24.9107774079       11.2276442793  MEMB      75              0.0000000000
      8685        75  SAPS      H4Y            29.8840539906       25.4914756177       10.3061426438  MEMB      75              0.0000000000
      8686        75  SAPS      C35            29.8628792223       23.4830121001       11.2861805367  MEMB      75              0.0000000000
      8687        75  SAPS      H5X            30.4450190358       22.9119136116       12.0406872920  MEMB      75              0.0000000000
      8688        75  SAPS      H5Y            30.0396653868       23.1298543030       10.2477451350  MEMB      75              0.0000000000
      8689        75  SAPS      C36            28.3504099661       23.0616244913       11.3117726561  MEMB      75              0.0000000000
      8690        75  SAPS      H6X            27.9072614332       23.2305463385       12.3164646600  MEMB      75              0.0000000000
      8691        75  SAPS      H6Y            28.3007627413       22.0066283247       10.9670422642  MEMB      75              0.0000000000
      8692        75  SAPS      C37            27.3509700351       23.8567296562       10.3349984858  MEMB      75              0.0000000000
      8693        75  SAPS      H7X            27.3602804427       24.9575822972       10.4845238222  MEMB      75              0.0000000000
      8694        75  SAPS      H7Y            26.3680904287       23.3770701554       10.5304351252  MEMB      75              0.0000000000
      8695        75  SAPS      C38            27.6369674027       23.6725303132        8.8056414806  MEMB      75              0.0000000000
      8696        75  SAPS      H8X            28.7032938534       23.8724876312        8.5662960843  MEMB      75              0.0000000000
      8697        75  SAPS      H8Y            27.0057213085       24.4104683916        8.2659221260  MEMB      75              0.0000000000
      8698        75  SAPS      C39            27.3355410769       22.2747651345        8.2508000808  MEMB      75              0.0000000000
      8699        75  SAPS      H9X            26.2729388513       22.0996014141        8.5237744885  MEMB      75              0.0000000000
      8700        75  SAPS      H9Y            28.0271895734       21.5063880138        8.6576661323  MEMB      75              0.0000000000
      8701        75  SAPS      C310           27.3367463883       22.3335379997        6.6846733864  MEMB      75              0.0000000000
      8702        75  SAPS      H10X           27.5308263568       21.3338865152        6.2404310079  MEMB      75              0.0000000000
      8703        75  SAPS      H10Y           28.1431201590       23.0733350976        6.4928854777  MEMB      75              0.0000000000
      8704        75  SAPS      C311           26.0307668096       22.8997003849        6.2136253321  MEMB      75              0.0000000000
      8705        75  SAPS      H11X           25.7934449128       23.8868445623        6.6647858477  MEMB      75              0.0000000000
      8706        75  SAPS      H11Y           25.2775819020       22.2055939785        6.6440316122  MEMB      75              0.0000000000
      8707        75  SAPS      C312           25.8975936564       22.9363749668        4.6997447462  MEMB      75              0.0000000000
      8708        75  SAPS      H12X           25.4148844714       21.9898062970        4.3752131568  MEMB      75              0.0000000000
      8709        75  SAPS      H12Y           26.9297288808       22.9891705190        4.2920311904  MEMB      75              0.0000000000
      8710        75  SAPS      C313           25.0801689973       24.1278971393        4.2043007555  MEMB      75              0.0000000000
      8711        75  SAPS      H13X           25.6344425493       25.0349285476        4.5274046614  MEMB      75              0.0000000000
      8712        75  SAPS      H13Y           24.0465438664       24.2834882964        4.5807729588  MEMB      75              0.0000000000
      8713        75  SAPS      C314           24.9703955749       24.0905227760        2.6699249085  MEMB      75              0.0000000000
      8714        75  SAPS      H14X           24.4749233321       23.1625640798        2.3125439781  MEMB      75              0.0000000000
      8715        75  SAPS      H14Y           26.0436851116       24.2021593397        2.4055240554  MEMB      75              0.0000000000
      8716        75  SAPS      C315           24.3677044638       25.3280731531        1.9365821082  MEMB      75              0.0000000000
      8717        75  SAPS      H15X           23.2723917148       25.3300357685        2.1226127869  MEMB      75              0.0000000000
      8718        75  SAPS      H15Y           24.6588287806       25.4843857604        0.8758589427  MEMB      75              0.0000000000
      8719        75  SAPS      C316           24.8433031515       26.6721092645        2.6012586321  MEMB      75              0.0000000000
      8720        75  SAPS      H16X           25.9498050236       26.7356452677        2.5241996057  MEMB      75              0.0000000000
      8721        75  SAPS      H16Y           24.4890412955       26.6111097119        3.6524963066  MEMB      75              0.0000000000
      8722        75  SAPS      C317           24.1698269745       27.9266156817        2.0923039162  MEMB      75              0.0000000000
      8723        75  SAPS      H17X           23.0788476084       27.7167343582        2.0863575513  MEMB      75              0.0000000000
      8724        75  SAPS      H17Y           24.4463080134       27.9217664845        1.0162670343  MEMB      75              0.0000000000
      8725        75  SAPS      C318           24.4835786887       29.1910198275        2.8660448422  MEMB      75              0.0000000000
      8726        75  SAPS      H18X           24.3689897018       30.0526396744        2.1740899759  MEMB      75              0.0000000000
      8727        75  SAPS      H18Y           25.5446374284       29.2669275314        3.1865343028  MEMB      75              0.0000000000
      8728        75  SAPS      H18Z           23.7761463848       29.2571763727        3.7201427498  MEMB      75              0.0000000000
      8729        76  OSM       N              32.3524699333       14.8268732176       22.0167375833  MEMB      76              0.0000000000
      8730        76  OSM       C15            31.2099371330       15.7126203088       22.0212960740  MEMB      76              0.0000000000
      8731        76  OSM       H15A           30.9228792436       15.7822745351       23.0601155961  MEMB      76              0.0000000000
      8732        76  OSM       H15B           30.3846880783       15.2933763755       21.4648803363  MEMB      76              0.0000000000
      8733        76  OSM       H15C           31.5200136797       16.6539524808       21.5921732665  MEMB      76              0.0000000000
      8734        76  OSM       C14            33.3959220315       15.2268008778       23.1049012029  MEMB      76              0.0000000000
      8735        76  OSM       H14A           32.9950290122       15.1645948122       24.1058082651  MEMB      76              0.0000000000
      8736        76  OSM       H14B           33.7159432935       16.2410631619       22.9171292645  MEMB      76              0.0000000000
      8737        76  OSM       H14C           34.2045410678       14.5550163865       22.8574316672  MEMB      76              0.0000000000
      8738        76  OSM       C13            32.0429619237       13.4190842345       22.3782156153  MEMB      76              0.0000000000
      8739        76  OSM       H13A           31.5066395588       13.4391094842       23.3154226680  MEMB      76              0.0000000000
      8740        76  OSM       H13B           32.8806231782       12.7385533015       22.4182324847  MEMB      76              0.0000000000
      8741        76  OSM       H13C           31.3465120986       13.0520331473       21.6388703904  MEMB      76              0.0000000000
      8742        76  OSM       C12            32.9688851436       14.8895069258       20.6456850301  MEMB      76              0.0000000000
      8743        76  OSM       H12A           32.1709524499       14.7726309593       19.9273233763  MEMB      76              0.0000000000
      8744        76  OSM       H12B           33.5038133611       13.9540740300       20.5734556109  MEMB      76              0.0000000000
      8745        76  OSM       C11            33.7754048090       16.1357829598       20.3567208876  MEMB      76              0.0000000000
      8746        76  OSM       H11A           34.0115213514       15.9669899241       19.2843035282  MEMB      76              0.0000000000
      8747        76  OSM       H11B           34.6830394231       16.1351120582       20.9974392217  MEMB      76              0.0000000000
      8748        76  OSM       P              33.5576711960       18.7919306100       20.1341276741  MEMB      76              0.0000000000
      8749        76  OSM       O13            32.5162410951       19.7533608301       20.1651132751  MEMB      76              0.0000000000
      8750        76  OSM       O14            34.7628402839       18.9867276575       21.0470036141  MEMB      76              0.0000000000
      8751        76  OSM       O11            34.0746694150       18.5498238984       18.6293539389  MEMB      76              0.0000000000
      8752        76  OSM       O12            32.9664527852       17.2829233685       20.5008451085  MEMB      76              0.0000000000
      8753        76  OSM       C1S            35.3721691719       18.3713643945       18.1141396539  MEMB      76              0.0000000000
      8754        76  OSM       H1S            35.8755072662       17.6036089836       18.7398578929  MEMB      76              0.0000000000
      8755        76  OSM       H1T            35.8928703105       19.3492180153       18.1977691548  MEMB      76              0.0000000000
      8756        76  OSM       NF             36.3023654355       17.1938731547       16.0995116056  MEMB      76              0.0000000000
      8757        76  OSM       HNF            37.0332869084       17.6723020860       15.6190234010  MEMB      76              0.0000000000
      8758        76  OSM       C2S            35.2899712392       18.1039107843       16.5760635668  MEMB      76              0.0000000000
      8759        76  OSM       H2S            34.2924471902       17.6950589332       16.3075364266  MEMB      76              0.0000000000
      8760        76  OSM       C3S            35.5525168688       19.4890844035       15.8575521169  MEMB      76              0.0000000000
      8761        76  OSM       H3S            36.6004086903       19.7828753005       16.0810042024  MEMB      76              0.0000000000
      8762        76  OSM       O3             34.6115272485       20.4221505734       16.2929471746  MEMB      76              0.0000000000
      8763        76  OSM       HO3            34.3957454441       20.1255103925       17.1801015344  MEMB      76              0.0000000000
      8764        76  OSM       C4S            35.3220017335       19.3766024414       14.3782277410  MEMB      76              0.0000000000
      8765        76  OSM       H4S            34.2456545015       19.3997650079       14.1525291009  MEMB      76              0.0000000000
      8766        76  OSM       C5S            36.2515117878       19.5573050570       13.4078267706  MEMB      76              0.0000000000
      8767        76  OSM       H5S            37.2805656593       19.7702399093       13.7329521144  MEMB      76              0.0000000000
      8768        76  OSM       C6S            35.9568864210       19.4461535516       11.9202608800  MEMB      76              0.0000000000
      8769        76  OSM       H6S            34.8490926643       19.4888025332       11.8474911871  MEMB      76              0.0000000000
      8770        76  OSM       H6T            36.3009444495       18.5341301748       11.3871963294  MEMB      76              0.0000000000
      8771        76  OSM       C7S            36.4374954819       20.7491489141       11.2092988698  MEMB      76              0.0000000000
      8772        76  OSM       H7S            37.5274563031       20.6541446576       11.0162171443  MEMB      76              0.0000000000
      8773        76  OSM       H7T            36.2476945500       21.5885465292       11.9119416345  MEMB      76              0.0000000000
      8774        76  OSM       C8S            35.5150050785       21.1114027485       10.0298117041  MEMB      76              0.0000000000
      8775        76  OSM       H8S            35.7322088896       22.1158158484        9.6075584889  MEMB      76              0.0000000000
      8776        76  OSM       H8T            34.4877352433       21.2729956995       10.4208682146  MEMB      76              0.0000000000
      8777        76  OSM       C9S            35.2882711084       20.0429788252        8.8618868194  MEMB      76              0.0000000000
      8778        76  OSM       H9S            34.4969608271       20.4350274957        8.1877598374  MEMB      76              0.0000000000
      8779        76  OSM       H9T            34.7769674932       19.2456722340        9.4425687752  MEMB      76              0.0000000000
      8780        76  OSM       C10S           36.6081087975       19.7254389712        8.0895913620  MEMB      76              0.0000000000
      8781        76  OSM       H10S           37.3916121622       19.4561978680        8.8298298476  MEMB      76              0.0000000000
      8782        76  OSM       H10T           36.9736999157       20.6224007567        7.5454186293  MEMB      76              0.0000000000
      8783        76  OSM       C11S           36.3024468843       18.5545731612        7.1285594021  MEMB      76              0.0000000000
      8784        76  OSM       H11S           35.7340968516       17.8038389425        7.7182184566  MEMB      76              0.0000000000
      8785        76  OSM       H11T           37.2291184189       18.1412679192        6.6760332535  MEMB      76              0.0000000000
      8786        76  OSM       C12S           35.3575154330       18.9045688794        5.9430911731  MEMB      76              0.0000000000
      8787        76  OSM       H12S           34.5593276141       19.6456855571        6.1620963360  MEMB      76              0.0000000000
      8788        76  OSM       H12T           34.7835934677       17.9998723724        5.6490524112  MEMB      76              0.0000000000
      8789        76  OSM       C13S           36.1428730727       19.5055160159        4.7649664991  MEMB      76              0.0000000000
      8790        76  OSM       H13S           36.4602213614       18.6296429011        4.1596085846  MEMB      76              0.0000000000
      8791        76  OSM       H13T           37.0513090404       20.0213617264        5.1430782072  MEMB      76              0.0000000000
      8792        76  OSM       C14S           35.3621224281       20.5265294520        4.0008927370  MEMB      76              0.0000000000
      8793        76  OSM       H14S           36.0248466879       20.8338534536        3.1638327631  MEMB      76              0.0000000000
      8794        76  OSM       H14T           35.1952136628       21.4707067103        4.5621333351  MEMB      76              0.0000000000
      8795        76  OSM       C15S           34.0026515771       20.1062899595        3.4063433241  MEMB      76              0.0000000000
      8796        76  OSM       H15S           33.6950098537       20.9373063585        2.7362020411  MEMB      76              0.0000000000
      8797        76  OSM       H15T           33.2406173853       19.9176800784        4.1925068421  MEMB      76              0.0000000000
      8798        76  OSM       C16S           34.0255827814       18.8010168535        2.5466724993  MEMB      76              0.0000000000
      8799        76  OSM       H16S           32.9631562021       18.6018918703        2.2899241649  MEMB      76              0.0000000000
      8800        76  OSM       H16T           34.4110968522       18.0211858095        3.2377330640  MEMB      76              0.0000000000
      8801        76  OSM       C17S           34.8371098409       18.7723397379        1.2425301344  MEMB      76              0.0000000000
      8802        76  OSM       H17S           35.8610641188       19.0101846761        1.6020691796  MEMB      76              0.0000000000
      8803        76  OSM       H17T           34.5739471831       19.5687579000        0.5139803784  MEMB      76              0.0000000000
      8804        76  OSM       C18S           34.5894455958       17.4619797780        0.4969484541  MEMB      76              0.0000000000
      8805        76  OSM       H18S           35.1933673521       17.4975488978       -0.4348960982  MEMB      76              0.0000000000
      8806        76  OSM       H18T           33.5479474505       17.3995191445        0.1152411220  MEMB      76              0.0000000000
      8807        76  OSM       H18U           34.9729710025       16.6278561079        1.1226219009  MEMB      76              0.0000000000
      8808        76  OSM       C1F            36.3814774055       15.8813748585       16.3408757883  MEMB      76              0.0000000000
      8809        76  OSM       OF             35.5009324997       15.1075597822       16.7945514271  MEMB      76              0.0000000000
      8810        76  OSM       C2F            37.6981794189       15.3053820155       16.2840188713  MEMB      76              0.0000000000
      8811        76  OSM       H2F            38.0742659840       15.1012441235       17.3093029838  MEMB      76              0.0000000000
      8812        76  OSM       H2G            38.4902372373       15.9685400203       15.8751337422  MEMB      76              0.0000000000
      8813        76  OSM       C3F            37.5813045039       14.0605755667       15.3806519497  MEMB      76              0.0000000000
      8814        76  OSM       H3F            36.9364293611       13.3218177243       15.9028530171  MEMB      76              0.0000000000
      8815        76  OSM       H3G            38.5678813473       13.5643224888       15.2593270369  MEMB      76              0.0000000000
      8816        76  OSM       C4F            37.2487575945       14.2123388416       13.8820434017  MEMB      76              0.0000000000
      8817        76  OSM       H4F            37.9273124858       14.9942599415       13.4789506904  MEMB      76              0.0000000000
      8818        76  OSM       H4G            36.1972385756       14.5424845270       13.7419260410  MEMB      76              0.0000000000
      8819        76  OSM       C5F            37.4857180549       12.9146330993       13.2134812356  MEMB      76              0.0000000000
      8820        76  OSM       H5F            36.7606789536       12.1703409147       13.6067598291  MEMB      76              0.0000000000
      8821        76  OSM       H5G            38.4617444644       12.4864394326       13.5270786719  MEMB      76              0.0000000000
      8822        76  OSM       C6F            37.2318230554       12.8023357212       11.6678760430  MEMB      76              0.0000000000
      8823        76  OSM       H6F            36.2527135752       13.2527799463       11.3981252071  MEMB      76              0.0000000000
      8824        76  OSM       H6G            37.2104920198       11.7094423345       11.4692548964  MEMB      76              0.0000000000
      8825        76  OSM       C7F            38.1608064803       13.5631313542       10.7244104847  MEMB      76              0.0000000000
      8826        76  OSM       H7F            38.9299124930       12.9386161128       10.2216405122  MEMB      76              0.0000000000
      8827        76  OSM       H7G            38.8092817014       14.1646283637       11.3967214761  MEMB      76              0.0000000000
      8828        76  OSM       C8F            37.3997307319       14.4781427020        9.7130598475  MEMB      76              0.0000000000
      8829        76  OSM       H8F            36.8629494160       13.7213281073        9.1019804502  MEMB      76              0.0000000000
      8830        76  OSM       H8G            38.2142190894       14.9155747547        9.0969571985  MEMB      76              0.0000000000
      8831        76  OSM       C9F            36.4856035792       15.5369502251       10.2802295518  MEMB      76              0.0000000000
      8832        76  OSM       H9F            37.0016121462       16.1468238540       11.0363971938  MEMB      76              0.0000000000
      8833        76  OSM       C10F           35.1085941529       15.7296968399       10.0491570665  MEMB      76              0.0000000000
      8834        76  OSM       H10F           34.6762949559       16.6267066831       10.5165865740  MEMB      76              0.0000000000
      8835        76  OSM       C11F           34.2725348289       14.8634654263        9.1515012039  MEMB      76              0.0000000000
      8836        76  OSM       H11F           33.7748842930       13.9913871328        9.6270477567  MEMB      76              0.0000000000
      8837        76  OSM       H11G           34.9507588763       14.2723656617        8.4996316893  MEMB      76              0.0000000000
      8838        76  OSM       C12F           33.2382890510       15.6349683740        8.2149897555  MEMB      76              0.0000000000
      8839        76  OSM       H12F           33.8661256639       16.3107119630        7.5957063349  MEMB      76              0.0000000000
      8840        76  OSM       H12G           32.6196706509       16.3519037248        8.7960542293  MEMB      76              0.0000000000
      8841        76  OSM       C13F           32.3098385239       14.8404903712        7.2858967693  MEMB      76              0.0000000000
      8842        76  OSM       H13F           31.3842014714       15.3925429826        7.0161658236  MEMB      76              0.0000000000
      8843        76  OSM       H13G           31.9084245945       13.9557235062        7.8247622834  MEMB      76              0.0000000000
      8844        76  OSM       C14F           32.9523929247       14.2425539021        5.9795715701  MEMB      76              0.0000000000
      8845        76  OSM       H14F           32.2690093865       13.4817271761        5.5454629470  MEMB      76              0.0000000000
      8846        76  OSM       H14G           33.8723846039       13.7021840043        6.2893084872  MEMB      76              0.0000000000
      8847        76  OSM       C15F           33.1132020783       15.4234373691        4.9609375390  MEMB      76              0.0000000000
      8848        76  OSM       H15F           33.9813317536       16.0392571792        5.2794310432  MEMB      76              0.0000000000
      8849        76  OSM       H15G           32.2657875253       16.1284818787        5.0992198313  MEMB      76              0.0000000000
      8850        76  OSM       C16F           33.3913815036       14.8623825707        3.5769714196  MEMB      76              0.0000000000
      8851        76  OSM       H16F           33.4355054925       15.7371739870        2.8935148863  MEMB      76              0.0000000000
      8852        76  OSM       H16G           32.5891762563       14.1646005971        3.2546552778  MEMB      76              0.0000000000
      8853        76  OSM       C17F           34.6763302759       14.1596612888        3.2901634661  MEMB      76              0.0000000000
      8854        76  OSM       H17F           34.7685312489       13.2628202261        3.9393908466  MEMB      76              0.0000000000
      8855        76  OSM       H17G           35.5454584071       14.8460707421        3.3783635862  MEMB      76              0.0000000000
      8856        76  OSM       C18F           34.8406639905       13.5213332817        1.9238320559  MEMB      76              0.0000000000
      8857        76  OSM       H18F           35.8809522502       13.1679296881        1.7588254751  MEMB      76              0.0000000000
      8858        76  OSM       H18G           34.6138414343       14.2456487488        1.1125125549  MEMB      76              0.0000000000
      8859        76  OSM       H18H           34.2238722641       12.6063376264        1.7947123942  MEMB      76              0.0000000000
      8860        77  SAPE      N             -28.4343597607       26.3000183337       20.9512231952  MEMB      77              0.0000000000
      8861        77  SAPE      HN1           -28.0610079749       25.8975419093       20.0679219650  MEMB      77              0.0000000000
      8862        77  SAPE      HN2           -29.4710720459       26.3353580429       20.8765323730  MEMB      77              0.0000000000
      8863        77  SAPE      HN3           -28.0256871936       27.2139636756       21.2328096956  MEMB      77              0.0000000000
      8864        77  SAPE      C12           -28.1964952666       25.2635221865       21.9976259953  MEMB      77              0.0000000000
      8865        77  SAPE      H12A          -28.7128034042       25.5043033252       22.9514453458  MEMB      77              0.0000000000
      8866        77  SAPE      H12B          -27.0918027379       25.2685773364       22.1157353526  MEMB      77              0.0000000000
      8867        77  SAPE      C11           -28.5625828445       23.9214253913       21.3766686532  MEMB      77              0.0000000000
      8868        77  SAPE      H11A          -29.6666908887       23.8478460425       21.2774087994  MEMB      77              0.0000000000
      8869        77  SAPE      H11B          -28.4437896826       23.0851810546       22.0984059002  MEMB      77              0.0000000000
      8870        77  SAPE      P             -28.6021349103       22.7104630303       19.0888960338  MEMB      77              0.0000000000
      8871        77  SAPE      O13           -27.6315532279       22.3738616997       18.0998183897  MEMB      77              0.0000000000
      8872        77  SAPE      O14           -29.3271557326       21.5864770732       19.7124214550  MEMB      77              0.0000000000
      8873        77  SAPE      O12           -27.8895248057       23.6862087853       20.1989078576  MEMB      77              0.0000000000
      8874        77  SAPE      O11           -29.6686462799       23.8362458888       18.5744384411  MEMB      77              0.0000000000
      8875        77  SAPE      C1            -29.6197886773       24.5011599657       17.2888795540  MEMB      77              0.0000000000
      8876        77  SAPE      HA            -30.1342301791       25.4698645907       17.4657467104  MEMB      77              0.0000000000
      8877        77  SAPE      HB            -28.5975348097       24.6614155704       16.8843596586  MEMB      77              0.0000000000
      8878        77  SAPE      C2            -30.4605924173       23.7303257388       16.2527755537  MEMB      77              0.0000000000
      8879        77  SAPE      HS            -31.4790688128       23.6969905511       16.6953991657  MEMB      77              0.0000000000
      8880        77  SAPE      O21           -30.0109645224       22.3444505700       16.1144366008  MEMB      77              0.0000000000
      8881        77  SAPE      C21           -30.9363842123       21.5091272931       15.5737965877  MEMB      77              0.0000000000
      8882        77  SAPE      O22           -32.0895327827       21.7895661830       15.4512170383  MEMB      77              0.0000000000
      8883        77  SAPE      C22           -30.2855022715       20.2843402242       14.9623300401  MEMB      77              0.0000000000
      8884        77  SAPE      H2R           -29.1808386449       20.3663666161       14.8768263346  MEMB      77              0.0000000000
      8885        77  SAPE      H2S           -30.4770486900       19.4115473242       15.6225299185  MEMB      77              0.0000000000
      8886        77  SAPE      C3            -30.2935578703       24.4032128336       14.9120817288  MEMB      77              0.0000000000
      8887        77  SAPE      HX            -30.8503519259       25.3645541282       14.9232442328  MEMB      77              0.0000000000
      8888        77  SAPE      HY            -30.8405695290       23.8501186107       14.1188689024  MEMB      77              0.0000000000
      8889        77  SAPE      O31           -28.9414869045       24.6827985988       14.5965087346  MEMB      77              0.0000000000
      8890        77  SAPE      C31           -28.6882420022       25.3742307512       13.4197116535  MEMB      77              0.0000000000
      8891        77  SAPE      O32           -29.5986709271       25.7143079043       12.6282080944  MEMB      77              0.0000000000
      8892        77  SAPE      C32           -27.2116653509       25.6985940689       13.3311399347  MEMB      77              0.0000000000
      8893        77  SAPE      H2X           -26.6791653830       24.7251003536       13.3865896812  MEMB      77              0.0000000000
      8894        77  SAPE      H2Y           -26.8864996444       26.2516845891       14.2381564448  MEMB      77              0.0000000000
      8895        77  SAPE      C23           -30.8066474563       20.0623196026       13.5566768451  MEMB      77              0.0000000000
      8896        77  SAPE      H3R           -31.9117994968       20.1496411496       13.4836374340  MEMB      77              0.0000000000
      8897        77  SAPE      H3S           -30.5781107103       19.0230704410       13.2372192356  MEMB      77              0.0000000000
      8898        77  SAPE      C24           -30.0568463218       21.0134262479       12.5078061035  MEMB      77              0.0000000000
      8899        77  SAPE      H4R           -28.9699306440       20.7843494096       12.5292347020  MEMB      77              0.0000000000
      8900        77  SAPE      H4S           -30.0804821413       22.0637461711       12.8691785425  MEMB      77              0.0000000000
      8901        77  SAPE      C25           -30.6182639544       20.8695552025       11.1254915879  MEMB      77              0.0000000000
      8902        77  SAPE      H5R           -30.8914483221       19.8470432484       10.8257581743  MEMB      77              0.0000000000
      8903        77  SAPE      C26           -31.0853162154       21.8780336865       10.3299923753  MEMB      77              0.0000000000
      8904        77  SAPE      H6R           -31.4874422087       21.5594842604        9.3569445306  MEMB      77              0.0000000000
      8905        77  SAPE      C27           -31.1827532284       23.3494516482       10.7826314321  MEMB      77              0.0000000000
      8906        77  SAPE      H7R           -30.2465839579       23.8695390157       10.4869680813  MEMB      77              0.0000000000
      8907        77  SAPE      H7S           -31.1882250004       23.2871285755       11.8918691499  MEMB      77              0.0000000000
      8908        77  SAPE      C28           -32.3656860463       24.1065519257       10.3460299112  MEMB      77              0.0000000000
      8909        77  SAPE      H8R           -33.1968385326       24.2330145193       11.0553908459  MEMB      77              0.0000000000
      8910        77  SAPE      C29           -32.5313294825       24.6456432613        9.1223547086  MEMB      77              0.0000000000
      8911        77  SAPE      H9R           -33.4649569118       25.1855755636        8.9059927277  MEMB      77              0.0000000000
      8912        77  SAPE      C210          -31.5795274496       24.5665767887        7.9844926751  MEMB      77              0.0000000000
      8913        77  SAPE      H10R          -32.0998232235       24.0338032033        7.1600136692  MEMB      77              0.0000000000
      8914        77  SAPE      H10S          -30.6467767399       24.0530559753        8.3016570641  MEMB      77              0.0000000000
      8915        77  SAPE      C211          -31.1792126648       25.9570466179        7.4964167509  MEMB      77              0.0000000000
      8916        77  SAPE      H11R          -31.9187032774       26.7413388204        7.7155955239  MEMB      77              0.0000000000
      8917        77  SAPE      C212          -30.0549302410       26.3667666834        6.8207118784  MEMB      77              0.0000000000
      8918        77  SAPE      H12R          -30.0404038985       27.3601480201        6.3485018490  MEMB      77              0.0000000000
      8919        77  SAPE      C213          -28.9855677150       25.4203963686        6.3699007154  MEMB      77              0.0000000000
      8920        77  SAPE      H13R          -29.3046300343       24.7152435445        5.5728562956  MEMB      77              0.0000000000
      8921        77  SAPE      H13S          -28.6207727849       24.8119155911        7.2248848024  MEMB      77              0.0000000000
      8922        77  SAPE      C214          -27.7446662753       26.1878057474        5.8237106941  MEMB      77              0.0000000000
      8923        77  SAPE      H14R          -27.5182062464       27.1398751379        6.3259852442  MEMB      77              0.0000000000
      8924        77  SAPE      C215          -26.8783737680       25.7308002249        4.9260960065  MEMB      77              0.0000000000
      8925        77  SAPE      H15R          -25.9577225141       26.2926540564        4.7099442499  MEMB      77              0.0000000000
      8926        77  SAPE      C216          -26.9974656800       24.3869669378        4.3023313034  MEMB      77              0.0000000000
      8927        77  SAPE      H16R          -27.3476222168       23.5766081221        4.9768900577  MEMB      77              0.0000000000
      8928        77  SAPE      H16S          -25.9733249162       23.9975819555        4.1183862563  MEMB      77              0.0000000000
      8929        77  SAPE      C217          -27.6290236626       24.3119169810        2.9484599976  MEMB      77              0.0000000000
      8930        77  SAPE      H17R          -28.6624145907       24.7157098343        3.0065598384  MEMB      77              0.0000000000
      8931        77  SAPE      H17S          -27.5869419850       23.2178297661        2.7599835052  MEMB      77              0.0000000000
      8932        77  SAPE      C218          -26.6635738008       24.8684466873        1.9024303470  MEMB      77              0.0000000000
      8933        77  SAPE      H18R          -25.6816514424       24.4129210349        2.1527237309  MEMB      77              0.0000000000
      8934        77  SAPE      H18S          -26.4919272412       25.9521957330        2.0766337370  MEMB      77              0.0000000000
      8935        77  SAPE      C219          -27.0892194675       24.3856409486        0.4584073759  MEMB      77              0.0000000000
      8936        77  SAPE      H19R          -27.2193167534       23.2833915397        0.4089893350  MEMB      77              0.0000000000
      8937        77  SAPE      H19S          -26.1811280198       24.4655431585       -0.1766572379  MEMB      77              0.0000000000
      8938        77  SAPE      C220          -28.1955835340       25.1010581788       -0.1886491345  MEMB      77              0.0000000000
      8939        77  SAPE      H20R          -29.1211255318       25.0093362300        0.4190337786  MEMB      77              0.0000000000
      8940        77  SAPE      H20S          -28.5019835999       24.6422212981       -1.1529669003  MEMB      77              0.0000000000
      8941        77  SAPE      H20T          -27.9553493445       26.1416628497       -0.4948377525  MEMB      77              0.0000000000
      8942        77  SAPE      C33           -26.9011533405       26.3364440810       12.0162443012  MEMB      77              0.0000000000
      8943        77  SAPE      H3X           -25.9529915422       26.8995348302       12.1512964863  MEMB      77              0.0000000000
      8944        77  SAPE      H3Y           -27.5266113719       27.1835452093       11.6619239934  MEMB      77              0.0000000000
      8945        77  SAPE      C34           -26.7604412329       25.5166309896       10.7177515852  MEMB      77              0.0000000000
      8946        77  SAPE      H4X           -26.4258813328       26.2355581134        9.9395906346  MEMB      77              0.0000000000
      8947        77  SAPE      H4Y           -27.7458315825       25.1159260627       10.3971863767  MEMB      77              0.0000000000
      8948        77  SAPE      C35           -25.6658509076       24.4352526848       10.7045493892  MEMB      77              0.0000000000
      8949        77  SAPE      H5X           -25.8694210935       23.5064611337       11.2792022277  MEMB      77              0.0000000000
      8950        77  SAPE      H5Y           -24.7322734834       24.8114037749       11.1749373427  MEMB      77              0.0000000000
      8951        77  SAPE      C36           -25.1411505356       23.9173382623        9.2999790140  MEMB      77              0.0000000000
      8952        77  SAPE      H6X           -24.3214330349       23.2000325695        9.5187417933  MEMB      77              0.0000000000
      8953        77  SAPE      H6Y           -24.6409576394       24.7995336966        8.8462630657  MEMB      77              0.0000000000
      8954        77  SAPE      C37           -26.2886491102       23.3375805753        8.4352757680  MEMB      77              0.0000000000
      8955        77  SAPE      H7X           -25.7530081370       23.0614177763        7.5019251927  MEMB      77              0.0000000000
      8956        77  SAPE      H7Y           -27.1524550459       23.9930108775        8.1932620513  MEMB      77              0.0000000000
      8957        77  SAPE      C38           -26.8844338508       22.0900006300        9.0464190516  MEMB      77              0.0000000000
      8958        77  SAPE      H8X           -27.7129420013       22.3648165904        9.7337124733  MEMB      77              0.0000000000
      8959        77  SAPE      H8Y           -26.1934395830       21.5141428278        9.6985206933  MEMB      77              0.0000000000
      8960        77  SAPE      C39           -27.4908564705       21.1352620124        7.9966794839  MEMB      77              0.0000000000
      8961        77  SAPE      H9X           -27.8103264551       20.3011531154        8.6573776355  MEMB      77              0.0000000000
      8962        77  SAPE      H9Y           -26.7856212654       20.6599095229        7.2818343160  MEMB      77              0.0000000000
      8963        77  SAPE      C310          -28.6997090983       21.7021190410        7.1771341568  MEMB      77              0.0000000000
      8964        77  SAPE      H10X          -28.3013489442       22.3140890557        6.3398030270  MEMB      77              0.0000000000
      8965        77  SAPE      H10Y          -29.2812824910       22.3671163987        7.8508339880  MEMB      77              0.0000000000
      8966        77  SAPE      C311          -29.4700162603       20.5486289295        6.5727511577  MEMB      77              0.0000000000
      8967        77  SAPE      H11X          -29.8704384409       19.9689589377        7.4317996814  MEMB      77              0.0000000000
      8968        77  SAPE      H11Y          -28.8306904380       19.8867867730        5.9502167334  MEMB      77              0.0000000000
      8969        77  SAPE      C312          -30.6970480974       20.9824794689        5.6969060886  MEMB      77              0.0000000000
      8970        77  SAPE      H12X          -31.4827239539       21.5571072669        6.2324786798  MEMB      77              0.0000000000
      8971        77  SAPE      H12Y          -31.1285193332       20.1039022484        5.1713068231  MEMB      77              0.0000000000
      8972        77  SAPE      C313          -30.3673534682       21.8124355976        4.5157248626  MEMB      77              0.0000000000
      8973        77  SAPE      H13X          -29.4087843939       21.3910252422        4.1444035507  MEMB      77              0.0000000000
      8974        77  SAPE      H13Y          -30.2949961183       22.8701827584        4.8477732903  MEMB      77              0.0000000000
      8975        77  SAPE      C314          -31.4020125718       21.9147971992        3.3953531010  MEMB      77              0.0000000000
      8976        77  SAPE      H14X          -32.3871053797       22.2252974350        3.8046240257  MEMB      77              0.0000000000
      8977        77  SAPE      H14Y          -31.5259534726       20.8400606055        3.1425655517  MEMB      77              0.0000000000
      8978        77  SAPE      C315          -30.8292428947       22.7261209938        2.1960476396  MEMB      77              0.0000000000
      8979        77  SAPE      H15X          -29.7799239877       22.4315915972        1.9804015734  MEMB      77              0.0000000000
      8980        77  SAPE      H15Y          -30.7529726487       23.7606448344        2.5938716763  MEMB      77              0.0000000000
      8981        77  SAPE      C316          -31.6646475509       22.6301576725        0.8674645032  MEMB      77              0.0000000000
      8982        77  SAPE      H16X          -31.2134719124       23.2614089504        0.0723030101  MEMB      77              0.0000000000
      8983        77  SAPE      H16Y          -32.6420832481       23.0800910755        1.1440516864  MEMB      77              0.0000000000
      8984        77  SAPE      C317          -31.8083444201       21.1625290480        0.2909963461  MEMB      77              0.0000000000
      8985        77  SAPE      H17X          -32.4644664799       21.1209236860       -0.6046005201  MEMB      77              0.0000000000
      8986        77  SAPE      H17Y          -32.3897240129       20.5621407066        1.0230158497  MEMB      77              0.0000000000
      8987        77  SAPE      C318          -30.4895209489       20.5178432136       -0.2147566919  MEMB      77              0.0000000000
      8988        77  SAPE      H18X          -29.7895827073       20.3468085488        0.6309121599  MEMB      77              0.0000000000
      8989        77  SAPE      H18Y          -29.9937451276       21.2109833364       -0.9275559193  MEMB      77              0.0000000000
      8990        77  SAPE      H18Z          -30.7551083546       19.5413346660       -0.6732492625  MEMB      77              0.0000000000
      8991        78  OSM       N             -33.8064233453        9.6715132193       21.4364110557  MEMB      78              0.0000000000
      8992        78  OSM       C15           -32.9738100252        8.5404180120       21.8570199385  MEMB      78              0.0000000000
      8993        78  OSM       H15A          -32.7553352458        8.6182909080       22.9118206716  MEMB      78              0.0000000000
      8994        78  OSM       H15B          -32.0807109278        8.6815857640       21.2663883931  MEMB      78              0.0000000000
      8995        78  OSM       H15C          -33.5031915856        7.6029877441       21.7711140735  MEMB      78              0.0000000000
      8996        78  OSM       C14           -33.0390219092       10.9209114442       21.5294499695  MEMB      78              0.0000000000
      8997        78  OSM       H14A          -32.0456668672       10.7465222337       21.1431419022  MEMB      78              0.0000000000
      8998        78  OSM       H14B          -32.7550086910       11.1080766948       22.5544892824  MEMB      78              0.0000000000
      8999        78  OSM       H14C          -33.6571021988       11.7349607942       21.1805943500  MEMB      78              0.0000000000
      9000        78  OSM       C13           -34.3107376239        9.3197826191       19.9905452063  MEMB      78              0.0000000000
      9001        78  OSM       H13A          -34.8846975287        8.4376194346       20.2329457479  MEMB      78              0.0000000000
      9002        78  OSM       H13B          -33.4542310617        9.2141230361       19.3412128395  MEMB      78              0.0000000000
      9003        78  OSM       H13C          -34.9533904507       10.1098520492       19.6311184081  MEMB      78              0.0000000000
      9004        78  OSM       C12           -35.0405974487        9.8631721616       22.4699131877  MEMB      78              0.0000000000
      9005        78  OSM       H12A          -34.6670183499       10.0185368862       23.4712625510  MEMB      78              0.0000000000
      9006        78  OSM       H12B          -35.5329743356        8.9022728012       22.4446623689  MEMB      78              0.0000000000
      9007        78  OSM       C11           -36.0040815576       11.0337538641       22.2903016203  MEMB      78              0.0000000000
      9008        78  OSM       H11A          -35.4190757782       11.9405294570       22.5545879549  MEMB      78              0.0000000000
      9009        78  OSM       H11B          -36.7594329743       11.1106905261       23.1013786507  MEMB      78              0.0000000000
      9010        78  OSM       P             -37.7468389861       10.7650502789       20.3055022050  MEMB      78              0.0000000000
      9011        78  OSM       O13           -37.7734515127        9.4521920425       19.6445286550  MEMB      78              0.0000000000
      9012        78  OSM       O14           -38.8166710954       11.0048648164       21.3283380302  MEMB      78              0.0000000000
      9013        78  OSM       O11           -37.7345682530       11.9034989003       19.2237022083  MEMB      78              0.0000000000
      9014        78  OSM       O12           -36.3712400460       11.0140349450       20.9242879254  MEMB      78              0.0000000000
      9015        78  OSM       C1S           -36.6180536550       11.9783742959       18.3577244465  MEMB      78              0.0000000000
      9016        78  OSM       H1S           -35.8923272693       11.1433216604       18.4593575712  MEMB      78              0.0000000000
      9017        78  OSM       H1T           -36.0619657588       12.9154860083       18.5743084406  MEMB      78              0.0000000000
      9018        78  OSM       NF            -35.9285134301       11.9077438657       16.0463183947  MEMB      78              0.0000000000
      9019        78  OSM       HNF           -35.6538228861       12.6793293383       15.4778027777  MEMB      78              0.0000000000
      9020        78  OSM       C2S           -37.1137763073       12.0605421910       16.8659607166  MEMB      78              0.0000000000
      9021        78  OSM       H2S           -37.7382940878       11.1441585305       16.7985848340  MEMB      78              0.0000000000
      9022        78  OSM       C3S           -37.8643890677       13.4129035081       16.5609746965  MEMB      78              0.0000000000
      9023        78  OSM       H3S           -37.1027049992       14.2192144676       16.4975649082  MEMB      78              0.0000000000
      9024        78  OSM       O3            -38.7724174620       13.8971244397       17.5592971344  MEMB      78              0.0000000000
      9025        78  OSM       HO3           -38.7993568571       13.1905702249       18.2086472572  MEMB      78              0.0000000000
      9026        78  OSM       C4S           -38.5904791134       13.2329397185       15.1766176184  MEMB      78              0.0000000000
      9027        78  OSM       H4S           -39.2331752558       12.3508778531       15.0391100533  MEMB      78              0.0000000000
      9028        78  OSM       C5S           -38.3505478498       14.1084017562       14.1419274474  MEMB      78              0.0000000000
      9029        78  OSM       H5S           -37.4267996588       14.7046251485       14.1071851732  MEMB      78              0.0000000000
      9030        78  OSM       C6S           -39.0409115371       13.9955616840       12.7462459840  MEMB      78              0.0000000000
      9031        78  OSM       H6S           -38.2805785715       13.9271691653       11.9390665381  MEMB      78              0.0000000000
      9032        78  OSM       H6T           -39.4571454810       15.0252825500       12.7189523261  MEMB      78              0.0000000000
      9033        78  OSM       C7S           -40.1521096304       12.9813707785       12.5030697980  MEMB      78              0.0000000000
      9034        78  OSM       H7S           -41.0165385649       13.2111753415       13.1620640168  MEMB      78              0.0000000000
      9035        78  OSM       H7T           -39.6751308924       11.9997318278       12.7109087784  MEMB      78              0.0000000000
      9036        78  OSM       C8S           -40.7328643894       12.9203777329       11.0836491631  MEMB      78              0.0000000000
      9037        78  OSM       H8S           -41.2628764533       13.8584841003       10.8127885714  MEMB      78              0.0000000000
      9038        78  OSM       H8T           -41.5530806318       12.1774807227       10.9853107600  MEMB      78              0.0000000000
      9039        78  OSM       C9S           -39.6668799619       12.6687813711        9.9319732679  MEMB      78              0.0000000000
      9040        78  OSM       H9S           -39.0501792185       13.5869478953        9.8272303170  MEMB      78              0.0000000000
      9041        78  OSM       H9T           -40.2897946157       12.6665407616        9.0120315716  MEMB      78              0.0000000000
      9042        78  OSM       C10S          -38.6680104531       11.5311115995       10.0135218916  MEMB      78              0.0000000000
      9043        78  OSM       H10S          -39.1931191111       10.5707105238       10.2038157807  MEMB      78              0.0000000000
      9044        78  OSM       H10T          -37.9167802737       11.7223381865       10.8093896799  MEMB      78              0.0000000000
      9045        78  OSM       C11S          -37.8120965400       11.2775550494        8.7959106795  MEMB      78              0.0000000000
      9046        78  OSM       H11S          -37.1299233442       10.4320542728        9.0284815718  MEMB      78              0.0000000000
      9047        78  OSM       H11T          -37.1633199702       12.1792928100        8.8126104503  MEMB      78              0.0000000000
      9048        78  OSM       C12S          -38.3275507014       10.8911196789        7.4982228741  MEMB      78              0.0000000000
      9049        78  OSM       H12S          -39.1719699261       11.5279222357        7.1579883044  MEMB      78              0.0000000000
      9050        78  OSM       H12T          -38.7571087522        9.8667182625        7.5182894604  MEMB      78              0.0000000000
      9051        78  OSM       C13S          -37.2548013809       10.8211300235        6.3410582213  MEMB      78              0.0000000000
      9052        78  OSM       H13S          -37.5593838702       10.1122959741        5.5416182935  MEMB      78              0.0000000000
      9053        78  OSM       H13T          -36.3606940528       10.3421521938        6.7943500460  MEMB      78              0.0000000000
      9054        78  OSM       C14S          -36.9637870111       12.2908330420        5.8820506355  MEMB      78              0.0000000000
      9055        78  OSM       H14S          -36.9163245244       12.9999656463        6.7359822855  MEMB      78              0.0000000000
      9056        78  OSM       H14T          -37.8540099057       12.7597101523        5.4109043643  MEMB      78              0.0000000000
      9057        78  OSM       C15S          -35.6720759432       12.2841151734        5.2603216694  MEMB      78              0.0000000000
      9058        78  OSM       H15S          -34.9831839407       11.4392858039        5.4748256358  MEMB      78              0.0000000000
      9059        78  OSM       H15T          -35.1301455600       13.2000470105        5.5792277595  MEMB      78              0.0000000000
      9060        78  OSM       C16S          -35.8159962278       12.4400213669        3.7088991466  MEMB      78              0.0000000000
      9061        78  OSM       H16S          -36.8886411012       12.2896654459        3.4616202358  MEMB      78              0.0000000000
      9062        78  OSM       H16T          -35.2753166274       11.6215473455        3.1872810651  MEMB      78              0.0000000000
      9063        78  OSM       C17S          -35.3620849616       13.7813977751        3.2026177458  MEMB      78              0.0000000000
      9064        78  OSM       H17S          -34.2583665114       13.7774381512        3.0756893019  MEMB      78              0.0000000000
      9065        78  OSM       H17T          -35.6368359685       14.6490160420        3.8398567087  MEMB      78              0.0000000000
      9066        78  OSM       C18S          -35.8036063248       14.1414216793        1.7760904262  MEMB      78              0.0000000000
      9067        78  OSM       H18S          -36.8886716131       13.9494431572        1.6343211367  MEMB      78              0.0000000000
      9068        78  OSM       H18T          -35.1510535660       13.5655598265        1.0855248718  MEMB      78              0.0000000000
      9069        78  OSM       H18U          -35.5735708260       15.2051679007        1.5528212651  MEMB      78              0.0000000000
      9070        78  OSM       C1F           -35.1695768839       10.7622148467       15.8335484173  MEMB      78              0.0000000000
      9071        78  OSM       OF            -35.2742386463        9.7403098104       16.5655453214  MEMB      78              0.0000000000
      9072        78  OSM       C2F           -34.1813071314       10.7531088494       14.6954624030  MEMB      78              0.0000000000
      9073        78  OSM       H2F           -33.6682654060        9.7679306007       14.6723768417  MEMB      78              0.0000000000
      9074        78  OSM       H2G           -33.4324625405       11.5205325953       14.9863467564  MEMB      78              0.0000000000
      9075        78  OSM       C3F           -34.8563769541       11.1728709181       13.3735706843  MEMB      78              0.0000000000
      9076        78  OSM       H3F           -35.1311246227       12.2333378153       13.5586239143  MEMB      78              0.0000000000
      9077        78  OSM       H3G           -35.7705242295       10.5434220172       13.3240741873  MEMB      78              0.0000000000
      9078        78  OSM       C4F           -33.8587284569       10.9677680507       12.2168657255  MEMB      78              0.0000000000
      9079        78  OSM       H4F           -33.3823549411        9.9866947022       12.4287242169  MEMB      78              0.0000000000
      9080        78  OSM       H4G           -33.0522218049       11.7246009948       12.3220892268  MEMB      78              0.0000000000
      9081        78  OSM       C5F           -34.4454571345       11.0069291019       10.8088529131  MEMB      78              0.0000000000
      9082        78  OSM       H5F           -34.9257349743       11.9786203816       10.5649873473  MEMB      78              0.0000000000
      9083        78  OSM       H5G           -35.1708454288       10.1671587829       10.7548286093  MEMB      78              0.0000000000
      9084        78  OSM       C6F           -33.3432472756       10.5522900829        9.7326585690  MEMB      78              0.0000000000
      9085        78  OSM       H6F           -32.9697144435        9.5189657939        9.8970810302  MEMB      78              0.0000000000
      9086        78  OSM       H6G           -32.5069275278       11.2793736154        9.8116498755  MEMB      78              0.0000000000
      9087        78  OSM       C7F           -33.7370323474       10.5781031681        8.2655939681  MEMB      78              0.0000000000
      9088        78  OSM       H7F           -34.1045366041       11.5918332989        7.9979877441  MEMB      78              0.0000000000
      9089        78  OSM       H7G           -34.5869006888        9.8628531578        8.2440951488  MEMB      78              0.0000000000
      9090        78  OSM       C8F           -32.5176161450       10.2491270907        7.2640704167  MEMB      78              0.0000000000
      9091        78  OSM       H8F           -31.8602338459       11.1223154330        7.4633482557  MEMB      78              0.0000000000
      9092        78  OSM       H8G           -32.9190555220       10.2090848555        6.2289067922  MEMB      78              0.0000000000
      9093        78  OSM       C9F           -31.6952715074        8.9573208547        7.3616169261  MEMB      78              0.0000000000
      9094        78  OSM       H9F           -30.6501306631        9.1565703900        7.6408666697  MEMB      78              0.0000000000
      9095        78  OSM       C10F          -32.1456162000        7.7452256506        7.0321983787  MEMB      78              0.0000000000
      9096        78  OSM       H10F          -31.4505865718        6.9474264952        7.3329485672  MEMB      78              0.0000000000
      9097        78  OSM       C11F          -33.5385263931        7.2834881836        6.5081768026  MEMB      78              0.0000000000
      9098        78  OSM       H11F          -34.2981662235        8.0074691285        6.8730327701  MEMB      78              0.0000000000
      9099        78  OSM       H11G          -33.8648455793        6.3360354473        6.9879366452  MEMB      78              0.0000000000
      9100        78  OSM       C12F          -33.7027028266        7.1840973217        4.9443218833  MEMB      78              0.0000000000
      9101        78  OSM       H12F          -34.7071696043        6.7223217453        4.8341827974  MEMB      78              0.0000000000
      9102        78  OSM       H12G          -32.9671999584        6.3898785502        4.6941752289  MEMB      78              0.0000000000
      9103        78  OSM       C13F          -33.4735025514        8.3893692912        4.0578539139  MEMB      78              0.0000000000
      9104        78  OSM       H13F          -32.4720212532        8.8266626503        4.2581807393  MEMB      78              0.0000000000
      9105        78  OSM       H13G          -34.1614446111        9.2556935699        4.1605141588  MEMB      78              0.0000000000
      9106        78  OSM       C14F          -33.6019608853        7.8080226611        2.6596240489  MEMB      78              0.0000000000
      9107        78  OSM       H14F          -34.5868195054        7.4496825492        2.2908881808  MEMB      78              0.0000000000
      9108        78  OSM       H14G          -32.9504081788        6.9084336129        2.6828654646  MEMB      78              0.0000000000
      9109        78  OSM       C15F          -33.1078985010        8.8355024156        1.5621367733  MEMB      78              0.0000000000
      9110        78  OSM       H15F          -32.0101157768        8.8741224783        1.7285754764  MEMB      78              0.0000000000
      9111        78  OSM       H15G          -33.5672050358        9.8052084791        1.8502843009  MEMB      78              0.0000000000
      9112        78  OSM       C16F          -33.5263300382        8.4390902376        0.1448338098  MEMB      78              0.0000000000
      9113        78  OSM       H16F          -34.6310130593        8.5124476042        0.0520159915  MEMB      78              0.0000000000
      9114        78  OSM       H16G          -33.2156185815        7.4185878525       -0.1655769580  MEMB      78              0.0000000000
      9115        78  OSM       C17F          -32.9359962436        9.4180462653       -0.9828692264  MEMB      78              0.0000000000
      9116        78  OSM       H17F          -33.0896945104       10.5010463786       -0.7884252728  MEMB      78              0.0000000000
      9117        78  OSM       H17G          -33.3753040338        9.1811207134       -1.9754403505  MEMB      78              0.0000000000
      9118        78  OSM       C18F          -31.4390573548        9.2822426510       -1.1336667000  MEMB      78              0.0000000000
      9119        78  OSM       H18F          -31.0132119563        9.6296681214       -0.1681242236  MEMB      78              0.0000000000
      9120        78  OSM       H18G          -31.0729246435       10.0254015765       -1.8739255865  MEMB      78              0.0000000000
      9121        78  OSM       H18H          -31.1098241817        8.2399491560       -1.3325407686  MEMB      78              0.0000000000
      9122        79  CHL1      C3            -33.8627810636      -15.9994546302       17.3120200000  MEMB      79              0.0000000000
      9123        79  CHL1      H3            -34.2226020152      -14.9851498774       17.0362700000  MEMB      79              0.0000000000
      9124        79  CHL1      O3            -34.1137311364      -16.2069551698       18.6879800000  MEMB      79              0.0000000000
      9125        79  CHL1      H3'           -34.8176055513      -15.6199052256       18.9735000000  MEMB      79              0.0000000000
      9126        79  CHL1      C4            -34.6723939415      -16.9968671366       16.4474700000  MEMB      79              0.0000000000
      9127        79  CHL1      H4A           -34.3705084127      -18.0342548371       16.7063400000  MEMB      79              0.0000000000
      9128        79  CHL1      H4B           -35.7269196709      -17.0931651770       16.7836600000  MEMB      79              0.0000000000
      9129        79  CHL1      C5            -34.4761276688      -16.5927226572       15.0010700000  MEMB      79              0.0000000000
      9130        79  CHL1      C6            -35.4974288569      -16.0506639581       14.3020600000  MEMB      79              0.0000000000
      9131        79  CHL1      H6            -36.4846776927      -15.9467938537       14.7759300000  MEMB      79              0.0000000000
      9132        79  CHL1      C7            -35.4056459136      -15.7529842446       12.8650100000  MEMB      79              0.0000000000
      9133        79  CHL1      H7A           -36.3138436782      -16.0310582162       12.2886500000  MEMB      79              0.0000000000
      9134        79  CHL1      H7B           -35.3241784876      -14.6468424414       12.8006700000  MEMB      79              0.0000000000
      9135        79  CHL1      C8            -34.1209049476      -16.3555550347       12.1880600000  MEMB      79              0.0000000000
      9136        79  CHL1      H8            -34.2977377865      -17.4519520285       12.2193000000  MEMB      79              0.0000000000
      9137        79  CHL1      C14           -33.9566623966      -15.7921823363       10.8601800000  MEMB      79              0.0000000000
      9138        79  CHL1      H14           -33.7386455892      -14.7109696350       10.9934000000  MEMB      79              0.0000000000
      9139        79  CHL1      C15           -35.2007312720      -15.8030168067        9.8876100000  MEMB      79              0.0000000000
      9140        79  CHL1      H15A          -35.6931518041      -16.7965418238        9.8186400000  MEMB      79              0.0000000000
      9141        79  CHL1      H15B          -35.8317048875      -14.8962681199       10.0059400000  MEMB      79              0.0000000000
      9142        79  CHL1      C16           -34.5525310357      -15.6579047637        8.5053700000  MEMB      79              0.0000000000
      9143        79  CHL1      H16A          -34.7701969053      -16.6112345618        7.9780100000  MEMB      79              0.0000000000
      9144        79  CHL1      H16B          -35.0069333927      -14.8266852101        7.9249300000  MEMB      79              0.0000000000
      9145        79  CHL1      C17           -33.0082237120      -15.6825833212        8.6516100000  MEMB      79              0.0000000000
      9146        79  CHL1      H17           -32.8923908852      -14.5793014876        8.7121200000  MEMB      79              0.0000000000
      9147        79  CHL1      C13           -32.7497145238      -16.3735077701       10.0457100000  MEMB      79              0.0000000000
      9148        79  CHL1      C18           -32.8158042111      -17.9089947464        9.8073200000  MEMB      79              0.0000000000
      9149        79  CHL1      H18A          -33.4724563132      -18.0460724591        8.9216900000  MEMB      79              0.0000000000
      9150        79  CHL1      H18B          -31.7637063955      -18.1305233101        9.5274200000  MEMB      79              0.0000000000
      9151        79  CHL1      H18C          -32.9147946563      -18.3953793290       10.8012700000  MEMB      79              0.0000000000
      9152        79  CHL1      C12           -31.4705899609      -15.8987053459       10.8525200000  MEMB      79              0.0000000000
      9153        79  CHL1      H12A          -30.4604831314      -16.2535934615       10.5557700000  MEMB      79              0.0000000000
      9154        79  CHL1      H12B          -31.5193509687      -14.7898293955       10.8042800000  MEMB      79              0.0000000000
      9155        79  CHL1      C11           -31.4802624814      -16.3454543381       12.3069400000  MEMB      79              0.0000000000
      9156        79  CHL1      H11A          -31.2392997010      -17.4282367745       12.3688200000  MEMB      79              0.0000000000
      9157        79  CHL1      H11B          -30.6420568503      -15.9008361583       12.8849100000  MEMB      79              0.0000000000
      9158        79  CHL1      C9            -32.8606934429      -16.0926622130       13.0610500000  MEMB      79              0.0000000000
      9159        79  CHL1      H9            -32.7789130209      -14.9883337033       13.1509800000  MEMB      79              0.0000000000
      9160        79  CHL1      C10           -33.0229541971      -16.6620700653       14.4791100000  MEMB      79              0.0000000000
      9161        79  CHL1      C19           -32.6572319085      -18.1305199894       14.3956100000  MEMB      79              0.0000000000
      9162        79  CHL1      H19A          -33.2296931616      -18.6123679124       13.5743700000  MEMB      79              0.0000000000
      9163        79  CHL1      H19B          -31.5893643688      -18.3127660760       14.1490800000  MEMB      79              0.0000000000
      9164        79  CHL1      H19C          -32.9277904532      -18.7310506478       15.2903000000  MEMB      79              0.0000000000
      9165        79  CHL1      C1            -32.0887536843      -15.8290434969       15.4642200000  MEMB      79              0.0000000000
      9166        79  CHL1      H1A           -31.0699335370      -16.1951470970       15.2145900000  MEMB      79              0.0000000000
      9167        79  CHL1      H1B           -32.0531074233      -14.7509217818       15.1983000000  MEMB      79              0.0000000000
      9168        79  CHL1      C2            -32.4084712249      -16.1300621261       16.9274900000  MEMB      79              0.0000000000
      9169        79  CHL1      H2A           -31.7155107751      -15.5348684202       17.5598500000  MEMB      79              0.0000000000
      9170        79  CHL1      H2B           -32.1329710731      -17.1996264810       17.0477200000  MEMB      79              0.0000000000
      9171        79  CHL1      C20           -32.1494617131      -16.1185970433        7.4459300000  MEMB      79              0.0000000000
      9172        79  CHL1      H20           -32.2298639119      -17.1991282044        7.2003500000  MEMB      79              0.0000000000
      9173        79  CHL1      C21           -30.7169379901      -15.7882063536        7.7879200000  MEMB      79              0.0000000000
      9174        79  CHL1      H21A          -30.2303431770      -16.6747472799        8.2479400000  MEMB      79              0.0000000000
      9175        79  CHL1      H21B          -30.6458862814      -14.9130746266        8.4686700000  MEMB      79              0.0000000000
      9176        79  CHL1      H21C          -30.0974133043      -15.5016152507        6.9113500000  MEMB      79              0.0000000000
      9177        79  CHL1      C22           -32.6462050301      -15.3002914243        6.2182100000  MEMB      79              0.0000000000
      9178        79  CHL1      H22A          -33.6992619849      -15.5860094742        6.0090600000  MEMB      79              0.0000000000
      9179        79  CHL1      H22B          -32.5563944490      -14.2116922993        6.4211900000  MEMB      79              0.0000000000
      9180        79  CHL1      C23           -32.0368853507      -15.5038365889        4.8237900000  MEMB      79              0.0000000000
      9181        79  CHL1      H23A          -30.9470158713      -15.3182632869        4.9336300000  MEMB      79              0.0000000000
      9182        79  CHL1      H23B          -32.1673450664      -16.5828489702        4.5935300000  MEMB      79              0.0000000000
      9183        79  CHL1      C24           -32.5340987527      -14.6258931546        3.7295500000  MEMB      79              0.0000000000
      9184        79  CHL1      H24A          -33.6066949022      -14.6637796763        3.4424500000  MEMB      79              0.0000000000
      9185        79  CHL1      H24B          -32.1792489030      -13.6279456234        4.0649600000  MEMB      79              0.0000000000
      9186        79  CHL1      C25           -31.8826199344      -14.7641074489        2.3530200000  MEMB      79              0.0000000000
      9187        79  CHL1      H25           -32.2513481075      -15.6923656902        1.8665200000  MEMB      79              0.0000000000
      9188        79  CHL1      C26           -32.3619913385      -13.6878419737        1.4671400000  MEMB      79              0.0000000000
      9189        79  CHL1      H26A          -32.1029030072      -12.7143671373        1.9357000000  MEMB      79              0.0000000000
      9190        79  CHL1      H26B          -31.7738313452      -13.5715865716        0.5318000000  MEMB      79              0.0000000000
      9191        79  CHL1      H26C          -33.4330948582      -13.7491140156        1.1785500000  MEMB      79              0.0000000000
      9192        79  CHL1      C27           -30.4030349038      -14.8705368210        2.3745600000  MEMB      79              0.0000000000
      9193        79  CHL1      H27A          -29.8218379763      -13.9737799955        2.6784600000  MEMB      79              0.0000000000
      9194        79  CHL1      H27B          -30.1785735663      -15.7746685831        2.9799400000  MEMB      79              0.0000000000
      9195        79  CHL1      H27C          -30.0714778650      -15.0688870277        1.3329100000  MEMB      79              0.0000000000
      9196        80  SAPE      N             -32.1809224916      -22.8981904142       18.5363481529  MEMB      80              0.0000000000
      9197        80  SAPE      HN1           -33.2177033024      -22.9793584910       18.5462228205  MEMB      80              0.0000000000
      9198        80  SAPE      HN2           -31.8194641498      -22.3621986167       19.3510018708  MEMB      80              0.0000000000
      9199        80  SAPE      HN3           -31.8270234934      -22.3925916632       17.6992547185  MEMB      80              0.0000000000
      9200        80  SAPE      C12           -31.5114627168      -24.2709436733       18.6960651145  MEMB      80              0.0000000000
      9201        80  SAPE      H12A          -31.6343626314      -24.6973789480       17.6775516690  MEMB      80              0.0000000000
      9202        80  SAPE      H12B          -31.8833903197      -24.7320123445       19.6359622412  MEMB      80              0.0000000000
      9203        80  SAPE      C11           -30.0682713548      -24.0358734609       18.9895507019  MEMB      80              0.0000000000
      9204        80  SAPE      H11A          -29.5307819609      -23.3695655585       18.2814122954  MEMB      80              0.0000000000
      9205        80  SAPE      H11B          -29.6936029439      -25.0747710707       18.8685701912  MEMB      80              0.0000000000
      9206        80  SAPE      P             -28.9062117355      -22.5960663627       20.8061958770  MEMB      80              0.0000000000
      9207        80  SAPE      O13           -29.3935142719      -21.2780875550       20.4166281950  MEMB      80              0.0000000000
      9208        80  SAPE      O14           -28.5094602732      -22.7083537733       22.2588299741  MEMB      80              0.0000000000
      9209        80  SAPE      O12           -29.9873747293      -23.6655700268       20.3618841589  MEMB      80              0.0000000000
      9210        80  SAPE      O11           -27.7009216091      -23.0478795553       19.9344978112  MEMB      80              0.0000000000
      9211        80  SAPE      C1            -26.6503308553      -22.1534875759       19.6512183424  MEMB      80              0.0000000000
      9212        80  SAPE      HA            -26.6840132742      -21.2315025495       20.2701932084  MEMB      80              0.0000000000
      9213        80  SAPE      HB            -25.7447876134      -22.7354313468       19.9262706818  MEMB      80              0.0000000000
      9214        80  SAPE      C2            -26.6742161024      -21.5811848575       18.2405602965  MEMB      80              0.0000000000
      9215        80  SAPE      HS            -25.9391872366      -20.7509698642       18.1713029506  MEMB      80              0.0000000000
      9216        80  SAPE      O21           -27.9440181524      -21.1824758317       17.8381033173  MEMB      80              0.0000000000
      9217        80  SAPE      C21           -28.1423100911      -19.9926866034       17.2896582982  MEMB      80              0.0000000000
      9218        80  SAPE      O22           -27.2937918059      -19.1773514894       17.0717691648  MEMB      80              0.0000000000
      9219        80  SAPE      C22           -29.5709196560      -19.9155173725       16.7963558166  MEMB      80              0.0000000000
      9220        80  SAPE      H2R           -30.3146251311      -20.4541029239       17.4217747192  MEMB      80              0.0000000000
      9221        80  SAPE      H2S           -29.8632549722      -18.8653122454       16.5820427149  MEMB      80              0.0000000000
      9222        80  SAPE      C3            -26.2096970926      -22.7076983120       17.2141844997  MEMB      80              0.0000000000
      9223        80  SAPE      HX            -27.0425292113      -23.4257744034       17.3725459112  MEMB      80              0.0000000000
      9224        80  SAPE      HY            -25.2402019462      -23.1705524580       17.4973206515  MEMB      80              0.0000000000
      9225        80  SAPE      O31           -26.1912547809      -22.3186998717       15.7595406804  MEMB      80              0.0000000000
      9226        80  SAPE      C31           -25.1770398974      -21.5845284671       15.3131938009  MEMB      80              0.0000000000
      9227        80  SAPE      O32           -24.2439573921      -21.1096659983       15.9428478989  MEMB      80              0.0000000000
      9228        80  SAPE      C32           -25.3785007254      -21.4538470860       13.7857309959  MEMB      80              0.0000000000
      9229        80  SAPE      H2X           -26.3612553583      -21.0167866900       13.5073559221  MEMB      80              0.0000000000
      9230        80  SAPE      H2Y           -25.1680133972      -22.4675238139       13.3826483576  MEMB      80              0.0000000000
      9231        80  SAPE      C23           -29.5387953721      -20.6021730071       15.3859792952  MEMB      80              0.0000000000
      9232        80  SAPE      H3R           -29.5090021605      -21.7040122319       15.5252043227  MEMB      80              0.0000000000
      9233        80  SAPE      H3S           -28.6576859700      -20.3179743344       14.7718140289  MEMB      80              0.0000000000
      9234        80  SAPE      C24           -30.6926015727      -20.1748100218       14.5318283491  MEMB      80              0.0000000000
      9235        80  SAPE      H4R           -30.4415696860      -20.4054693360       13.4744259588  MEMB      80              0.0000000000
      9236        80  SAPE      H4S           -30.7661559748      -19.0662553977       14.5359994963  MEMB      80              0.0000000000
      9237        80  SAPE      C25           -32.0300137128      -20.7082598284       15.0153297760  MEMB      80              0.0000000000
      9238        80  SAPE      H5R           -32.4378528258      -20.2207637529       15.9131134577  MEMB      80              0.0000000000
      9239        80  SAPE      C26           -32.7804084844      -21.7291305694       14.4563171135  MEMB      80              0.0000000000
      9240        80  SAPE      H6R           -33.7194743247      -22.0148849377       14.9528047074  MEMB      80              0.0000000000
      9241        80  SAPE      C27           -32.4223945616      -22.5046638064       13.2110165719  MEMB      80              0.0000000000
      9242        80  SAPE      H7R           -31.7096097090      -21.8621406193       12.6511748460  MEMB      80              0.0000000000
      9243        80  SAPE      H7S           -33.3401582355      -22.4660674760       12.5860835340  MEMB      80              0.0000000000
      9244        80  SAPE      C28           -31.8158180617      -23.8593746506       13.5147339708  MEMB      80              0.0000000000
      9245        80  SAPE      H8R           -32.3237773377      -24.3464281032       14.3601669977  MEMB      80              0.0000000000
      9246        80  SAPE      C29           -30.6507461743      -24.3388804966       13.0034760899  MEMB      80              0.0000000000
      9247        80  SAPE      H9R           -30.5048668945      -25.4155003518       13.1755487234  MEMB      80              0.0000000000
      9248        80  SAPE      C210          -29.7372100730      -23.6777871060       11.9747222723  MEMB      80              0.0000000000
      9249        80  SAPE      H10R          -29.7725149594      -22.5677137277       11.9462304811  MEMB      80              0.0000000000
      9250        80  SAPE      H10S          -30.1054765762      -23.9945773284       10.9755505219  MEMB      80              0.0000000000
      9251        80  SAPE      C211          -28.3775880660      -24.1375107763       12.0780793493  MEMB      80              0.0000000000
      9252        80  SAPE      H11R          -27.8846534022      -24.1957301917       13.0597237882  MEMB      80              0.0000000000
      9253        80  SAPE      C212          -27.5419466789      -24.2864313299       11.0156304855  MEMB      80              0.0000000000
      9254        80  SAPE      H12R          -26.5088371065      -24.5614965768       11.2745198568  MEMB      80              0.0000000000
      9255        80  SAPE      C213          -27.8201343520      -23.9872358260        9.5479437486  MEMB      80              0.0000000000
      9256        80  SAPE      H13R          -27.5234193211      -22.9171414531        9.5135982966  MEMB      80              0.0000000000
      9257        80  SAPE      H13S          -28.9023176138      -23.9849399555        9.2965574658  MEMB      80              0.0000000000
      9258        80  SAPE      C214          -27.0799360604      -24.9246206770        8.6241109688  MEMB      80              0.0000000000
      9259        80  SAPE      H14R          -26.5975021405      -25.8342241602        9.0112537363  MEMB      80              0.0000000000
      9260        80  SAPE      C215          -26.9803096927      -24.7325996994        7.3065298646  MEMB      80              0.0000000000
      9261        80  SAPE      H15R          -26.4760460271      -25.5104391427        6.7143437806  MEMB      80              0.0000000000
      9262        80  SAPE      C216          -27.5459403377      -23.5830028123        6.4603497851  MEMB      80              0.0000000000
      9263        80  SAPE      H16R          -27.6301796072      -22.7195657877        7.1543969911  MEMB      80              0.0000000000
      9264        80  SAPE      H16S          -28.5144880137      -23.9339393983        6.0443207016  MEMB      80              0.0000000000
      9265        80  SAPE      C217          -26.6921443672      -23.2912988609        5.1967198105  MEMB      80              0.0000000000
      9266        80  SAPE      H17R          -25.6198523183      -23.0595770729        5.3722642269  MEMB      80              0.0000000000
      9267        80  SAPE      H17S          -27.0781721271      -22.3794472451        4.6929046312  MEMB      80              0.0000000000
      9268        80  SAPE      C218          -26.7312931718      -24.4830481062        4.2310072184  MEMB      80              0.0000000000
      9269        80  SAPE      H18R          -27.5116165953      -25.1547190042        4.6484702097  MEMB      80              0.0000000000
      9270        80  SAPE      H18S          -25.7128501245      -24.9040660607        4.3718571332  MEMB      80              0.0000000000
      9271        80  SAPE      C219          -27.1008899486      -24.1635003177        2.7574075703  MEMB      80              0.0000000000
      9272        80  SAPE      H19R          -27.9305883615      -23.4255805222        2.7947704126  MEMB      80              0.0000000000
      9273        80  SAPE      H19S          -27.5511822875      -25.0785787122        2.3167387166  MEMB      80              0.0000000000
      9274        80  SAPE      C220          -25.8771291116      -23.8502688893        1.8456338961  MEMB      80              0.0000000000
      9275        80  SAPE      H20R          -26.1195543947      -23.8286486063        0.7616213573  MEMB      80              0.0000000000
      9276        80  SAPE      H20S          -25.0646517619      -24.6000664330        1.9552021295  MEMB      80              0.0000000000
      9277        80  SAPE      H20T          -25.3578493632      -22.9880844394        2.3160674035  MEMB      80              0.0000000000
      9278        80  SAPE      C33           -24.3257779387      -20.4834490942       13.1093388203  MEMB      80              0.0000000000
      9279        80  SAPE      H3X           -23.3265372566      -20.8765877111       13.3944373696  MEMB      80              0.0000000000
      9280        80  SAPE      H3Y           -24.4407015963      -19.4836374984       13.5799666811  MEMB      80              0.0000000000
      9281        80  SAPE      C34           -24.5437744099      -20.5868088207       11.5410294954  MEMB      80              0.0000000000
      9282        80  SAPE      H4X           -25.6053968296      -20.3919289579       11.2777799110  MEMB      80              0.0000000000
      9283        80  SAPE      H4Y           -24.3463768825      -21.6338277748       11.2262178226  MEMB      80              0.0000000000
      9284        80  SAPE      C35           -23.6984114065      -19.6243913124       10.7444160140  MEMB      80              0.0000000000
      9285        80  SAPE      H5X           -22.6483362109      -19.6708022350       11.1042894258  MEMB      80              0.0000000000
      9286        80  SAPE      H5Y           -24.1639834663      -18.6623640394       11.0478411993  MEMB      80              0.0000000000
      9287        80  SAPE      C36           -23.8213189598      -19.6633166325        9.2381580797  MEMB      80              0.0000000000
      9288        80  SAPE      H6X           -24.8984431481      -19.5906982750        8.9757626029  MEMB      80              0.0000000000
      9289        80  SAPE      H6Y           -23.5120013017      -20.6677063157        8.8778179673  MEMB      80              0.0000000000
      9290        80  SAPE      C37           -22.9797136409      -18.6291457314        8.5130904824  MEMB      80              0.0000000000
      9291        80  SAPE      H7X           -21.9672109500      -18.5933973284        8.9690304670  MEMB      80              0.0000000000
      9292        80  SAPE      H7Y           -23.4347548505      -17.6472491248        8.7643623016  MEMB      80              0.0000000000
      9293        80  SAPE      C38           -22.9384931294      -18.8997936196        7.0045805227  MEMB      80              0.0000000000
      9294        80  SAPE      H8X           -22.3738513076      -19.8487865341        6.8824620669  MEMB      80              0.0000000000
      9295        80  SAPE      H8Y           -22.3837889445      -18.0461485669        6.5597046633  MEMB      80              0.0000000000
      9296        80  SAPE      C39           -24.3019213070      -19.1444649466        6.2857558119  MEMB      80              0.0000000000
      9297        80  SAPE      H9X           -24.8202327666      -19.8845934033        6.9321961172  MEMB      80              0.0000000000
      9298        80  SAPE      H9Y           -24.0990468185      -19.6885926686        5.3386086854  MEMB      80              0.0000000000
      9299        80  SAPE      C310          -25.2242722439      -17.9556403894        6.3679334465  MEMB      80              0.0000000000
      9300        80  SAPE      H10X          -24.7729470175      -17.0077762896        6.0043688746  MEMB      80              0.0000000000
      9301        80  SAPE      H10Y          -25.5615128114      -17.9280781543        7.4261538388  MEMB      80              0.0000000000
      9302        80  SAPE      C311          -26.4892554449      -18.0960467194        5.5118453468  MEMB      80              0.0000000000
      9303        80  SAPE      H11X          -27.0878049881      -17.1712163232        5.6558873061  MEMB      80              0.0000000000
      9304        80  SAPE      H11Y          -26.9761818202      -19.0665750012        5.7470011630  MEMB      80              0.0000000000
      9305        80  SAPE      C312          -26.1386585742      -18.2557550906        4.0161099447  MEMB      80              0.0000000000
      9306        80  SAPE      H12X          -25.4455962498      -19.0798113048        3.7424011506  MEMB      80              0.0000000000
      9307        80  SAPE      H12Y          -25.5489056083      -17.3858203953        3.6559362456  MEMB      80              0.0000000000
      9308        80  SAPE      C313          -27.5221330655      -18.5150572584        3.2313217151  MEMB      80              0.0000000000
      9309        80  SAPE      H13X          -28.1094844451      -17.6579490201        3.6246470421  MEMB      80              0.0000000000
      9310        80  SAPE      H13Y          -27.9030645884      -19.5282360076        3.4816807095  MEMB      80              0.0000000000
      9311        80  SAPE      C314          -27.3868965274      -18.2293221652        1.7345832920  MEMB      80              0.0000000000
      9312        80  SAPE      H14X          -26.6083691308      -18.8944253422        1.3034753553  MEMB      80              0.0000000000
      9313        80  SAPE      H14Y          -27.0019955485      -17.1996075330        1.5737737407  MEMB      80              0.0000000000
      9314        80  SAPE      C315          -28.7149972897      -18.6195419567        0.9561213943  MEMB      80              0.0000000000
      9315        80  SAPE      H15X          -28.5282717168      -18.4085313671       -0.1185558570  MEMB      80              0.0000000000
      9316        80  SAPE      H15Y          -29.5021694607      -17.9254302479        1.3206620563  MEMB      80              0.0000000000
      9317        80  SAPE      C316          -29.1896597689      -20.0483311477        1.2515363606  MEMB      80              0.0000000000
      9318        80  SAPE      H16X          -29.6563958736      -20.2836193736        2.2319033199  MEMB      80              0.0000000000
      9319        80  SAPE      H16Y          -28.3629599015      -20.7897315262        1.2863741621  MEMB      80              0.0000000000
      9320        80  SAPE      C317          -30.2221490344      -20.5237297398        0.2647752754  MEMB      80              0.0000000000
      9321        80  SAPE      H17X          -30.5053326067      -21.5666391986        0.5225886107  MEMB      80              0.0000000000
      9322        80  SAPE      H17Y          -29.8066588294      -20.5935009733       -0.7632431188  MEMB      80              0.0000000000
      9323        80  SAPE      C318          -31.5627445861      -19.8592938138        0.2643179969  MEMB      80              0.0000000000
      9324        80  SAPE      H18X          -31.5261978115      -18.8905879807       -0.2784472558  MEMB      80              0.0000000000
      9325        80  SAPE      H18Y          -31.8880728886      -19.7098967888        1.3160607183  MEMB      80              0.0000000000
      9326        80  SAPE      H18Z          -32.2617695694      -20.4995923964       -0.3150809468  MEMB      80              0.0000000000
      9327        81  SOPE      N              22.2087733113      -32.0498749259       20.4100917252  MEMB      81              0.0000000000
      9328        81  SOPE      HN1            22.6045174903      -31.7700065630       19.4899503349  MEMB      81              0.0000000000
      9329        81  SOPE      HN2            23.0130884341      -32.2060898176       21.0506182015  MEMB      81              0.0000000000
      9330        81  SOPE      HN3            21.6148205756      -32.8952703079       20.2912346697  MEMB      81              0.0000000000
      9331        81  SOPE      C12            21.3471635555      -31.0081414732       21.0065073636  MEMB      81              0.0000000000
      9332        81  SOPE      H12A           21.1633158134      -31.4309637893       22.0173199950  MEMB      81              0.0000000000
      9333        81  SOPE      H12B           20.3781844903      -31.0113656821       20.4630091236  MEMB      81              0.0000000000
      9334        81  SOPE      C11            22.0329564531      -29.6414909305       21.1364141942  MEMB      81              0.0000000000
      9335        81  SOPE      H11A           21.3029637620      -28.9934818262       21.6669949625  MEMB      81              0.0000000000
      9336        81  SOPE      H11B           22.0432656552      -29.2939227355       20.0812311945  MEMB      81              0.0000000000
      9337        81  SOPE      P              24.5067704923      -28.9289561841       21.1132520342  MEMB      81              0.0000000000
      9338        81  SOPE      O13            25.7682179949      -29.4614618905       21.8785305665  MEMB      81              0.0000000000
      9339        81  SOPE      O14            24.1419766208      -27.4739960515       21.0904730670  MEMB      81              0.0000000000
      9340        81  SOPE      O12            23.3049167379      -29.7234951388       21.7504199651  MEMB      81              0.0000000000
      9341        81  SOPE      O11            24.6306928222      -29.4241050393       19.6143110838  MEMB      81              0.0000000000
      9342        81  SOPE      C1             24.4119993631      -28.4704423825       18.5818600037  MEMB      81              0.0000000000
      9343        81  SOPE      HA             25.3981998447      -28.1712576362       18.1668682293  MEMB      81              0.0000000000
      9344        81  SOPE      HB             23.7713878296      -27.6082961671       18.8658349559  MEMB      81              0.0000000000
      9345        81  SOPE      C2             23.7100781782      -29.1611815768       17.3258659349  MEMB      81              0.0000000000
      9346        81  SOPE      HS             22.7910296224      -29.6403073994       17.7260024810  MEMB      81              0.0000000000
      9347        81  SOPE      O21            24.6533079038      -30.1469994423       16.7839209754  MEMB      81              0.0000000000
      9348        81  SOPE      C21            24.0747267407      -31.2418276873       16.3297193063  MEMB      81              0.0000000000
      9349        81  SOPE      O22            22.9191585505      -31.5315288386       16.2553664925  MEMB      81              0.0000000000
      9350        81  SOPE      C22            25.2517614026      -32.0751455771       15.7106366522  MEMB      81              0.0000000000
      9351        81  SOPE      H2R            24.7543396979      -32.8883866215       15.1400827266  MEMB      81              0.0000000000
      9352        81  SOPE      H2S            25.7716533855      -32.5033816861       16.5941791408  MEMB      81              0.0000000000
      9353        81  SOPE      C3             23.2883393664      -28.1255155518       16.2238042864  MEMB      81              0.0000000000
      9354        81  SOPE      HX             24.1924450623      -27.5414032865       15.9486197123  MEMB      81              0.0000000000
      9355        81  SOPE      HY             22.5307836396      -27.4515889062       16.6779553003  MEMB      81              0.0000000000
      9356        81  SOPE      O31            22.6804274181      -28.7882920660       15.0291023432  MEMB      81              0.0000000000
      9357        81  SOPE      C31            22.0602063988      -27.9143629442       14.2273800459  MEMB      81              0.0000000000
      9358        81  SOPE      O32            22.1263762605      -26.6832469354       14.2256096880  MEMB      81              0.0000000000
      9359        81  SOPE      C32            21.3192115334      -28.7020892773       13.1246621702  MEMB      81              0.0000000000
      9360        81  SOPE      H2X            20.4100249724      -28.2185838393       12.7076221187  MEMB      81              0.0000000000
      9361        81  SOPE      H2Y            20.9570208436      -29.6586415141       13.5584213239  MEMB      81              0.0000000000
      9362        81  SOPE      C23            26.1937474351      -31.2863727943       14.7061196694  MEMB      81              0.0000000000
      9363        81  SOPE      H3R            27.0413997842      -31.9933928263       14.5799095877  MEMB      81              0.0000000000
      9364        81  SOPE      H3S            26.6501328125      -30.4004827977       15.1972735419  MEMB      81              0.0000000000
      9365        81  SOPE      C24            25.7122547599      -30.9558291612       13.3243479876  MEMB      81              0.0000000000
      9366        81  SOPE      H4R            25.2664806940      -31.7513727109       12.6897479154  MEMB      81              0.0000000000
      9367        81  SOPE      H4S            24.9802102078      -30.1285850570       13.4430867285  MEMB      81              0.0000000000
      9368        81  SOPE      C25            26.9120332515      -30.3573088244       12.5327721081  MEMB      81              0.0000000000
      9369        81  SOPE      H5R            27.3884783230      -29.6621526249       13.2567046800  MEMB      81              0.0000000000
      9370        81  SOPE      H5S            27.5874084717      -31.1930145898       12.2503080055  MEMB      81              0.0000000000
      9371        81  SOPE      C26            26.4757710961      -29.5886259974       11.3453819440  MEMB      81              0.0000000000
      9372        81  SOPE      H6R            25.7506745201      -28.7823041344       11.5870446123  MEMB      81              0.0000000000
      9373        81  SOPE      H6S            27.3871219731      -29.1201042656       10.9161399284  MEMB      81              0.0000000000
      9374        81  SOPE      C27            25.8429483929      -30.4457675602       10.2673247365  MEMB      81              0.0000000000
      9375        81  SOPE      H7R            26.5797131302      -31.1675864954        9.8544381302  MEMB      81              0.0000000000
      9376        81  SOPE      H7S            24.9051330311      -30.9378571440       10.6029904208  MEMB      81              0.0000000000
      9377        81  SOPE      C28            25.3681691482      -29.5511041053        9.1306509261  MEMB      81              0.0000000000
      9378        81  SOPE      H8R            24.5808316866      -30.0808721282        8.5529258539  MEMB      81              0.0000000000
      9379        81  SOPE      H8S            24.9705456326      -28.5839328956        9.5058791451  MEMB      81              0.0000000000
      9380        81  SOPE      C29            26.5272006757      -29.3179132220        8.1832992552  MEMB      81              0.0000000000
      9381        81  SOPE      H91            27.0147410347      -28.3567127829        8.4032942573  MEMB      81              0.0000000000
      9382        81  SOPE      C210           26.9498935835      -30.0832378986        7.1780140050  MEMB      81              0.0000000000
      9383        81  SOPE      H101           27.6959194666      -29.5747019893        6.5496539111  MEMB      81              0.0000000000
      9384        81  SOPE      C211           26.1871774502      -31.3564195523        6.8059984379  MEMB      81              0.0000000000
      9385        81  SOPE      H11R           25.9112804149      -31.9161177020        7.7252045577  MEMB      81              0.0000000000
      9386        81  SOPE      H11S           26.8240205729      -32.0139855137        6.1764270028  MEMB      81              0.0000000000
      9387        81  SOPE      C212           24.8473378754      -31.1365946421        5.9219350980  MEMB      81              0.0000000000
      9388        81  SOPE      H12R           23.9817486688      -30.7457116398        6.4983783709  MEMB      81              0.0000000000
      9389        81  SOPE      H12S           24.6713054691      -32.1593396657        5.5252915234  MEMB      81              0.0000000000
      9390        81  SOPE      C213           24.8636030197      -30.4264701972        4.5347991350  MEMB      81              0.0000000000
      9391        81  SOPE      H13R           25.6457773888      -30.9906823307        3.9832660589  MEMB      81              0.0000000000
      9392        81  SOPE      H13S           25.1448971634      -29.3594526102        4.6639038066  MEMB      81              0.0000000000
      9393        81  SOPE      C214           23.4553194947      -30.3033226355        3.8466857168  MEMB      81              0.0000000000
      9394        81  SOPE      H14R           22.6389637911      -30.1828676289        4.5905781408  MEMB      81              0.0000000000
      9395        81  SOPE      H14S           23.2947442804      -31.2580081812        3.3016049465  MEMB      81              0.0000000000
      9396        81  SOPE      C215           23.2527798976      -29.0720140509        2.9531917613  MEMB      81              0.0000000000
      9397        81  SOPE      H15R           23.2305582308      -28.2151398188        3.6600108644  MEMB      81              0.0000000000
      9398        81  SOPE      H15S           22.2095961314      -29.0610436381        2.5711349143  MEMB      81              0.0000000000
      9399        81  SOPE      C216           24.3829246267      -28.9368854331        1.8437323697  MEMB      81              0.0000000000
      9400        81  SOPE      H16R           25.2255736203      -28.5435664199        2.4516492307  MEMB      81              0.0000000000
      9401        81  SOPE      H16S           24.0014947018      -28.1490029611        1.1595714547  MEMB      81              0.0000000000
      9402        81  SOPE      C217           24.6704025225      -30.2076415142        1.0591512116  MEMB      81              0.0000000000
      9403        81  SOPE      H17R           23.7338346724      -30.5482555707        0.5680872916  MEMB      81              0.0000000000
      9404        81  SOPE      H17S           24.8713999912      -31.0542422795        1.7499409789  MEMB      81              0.0000000000
      9405        81  SOPE      C218           25.8398564451      -30.1146961172        0.0783758254  MEMB      81              0.0000000000
      9406        81  SOPE      H18R           26.6857318323      -29.7602303462        0.7054099435  MEMB      81              0.0000000000
      9407        81  SOPE      H18S           25.6421646703      -29.2798590959       -0.6275170752  MEMB      81              0.0000000000
      9408        81  SOPE      H18T           25.9745402133      -30.9430612769       -0.6496283712  MEMB      81              0.0000000000
      9409        81  SOPE      C33            22.3467563840      -29.0160230725       11.9055180069  MEMB      81              0.0000000000
      9410        81  SOPE      H3X            23.2368139156      -29.5724249191       12.2695731389  MEMB      81              0.0000000000
      9411        81  SOPE      H3Y            22.6283301993      -28.0016181094       11.5505262868  MEMB      81              0.0000000000
      9412        81  SOPE      C34            21.7276822129      -29.8414221772       10.8407137248  MEMB      81              0.0000000000
      9413        81  SOPE      H4X            21.3894924981      -30.7634205195       11.3602017973  MEMB      81              0.0000000000
      9414        81  SOPE      H4Y            22.5346853216      -30.0492998181       10.1059661976  MEMB      81              0.0000000000
      9415        81  SOPE      C35            20.5050841358      -29.1947752600       10.1501807062  MEMB      81              0.0000000000
      9416        81  SOPE      H5X            19.5942821049      -29.4065578112       10.7501042845  MEMB      81              0.0000000000
      9417        81  SOPE      H5Y            20.3672616862      -29.7628666146        9.2054063420  MEMB      81              0.0000000000
      9418        81  SOPE      C36            20.6411771440      -27.6953992021        9.8276014145  MEMB      81              0.0000000000
      9419        81  SOPE      H6X            21.5857788973      -27.5089033449        9.2732843360  MEMB      81              0.0000000000
      9420        81  SOPE      H6Y            20.7243360433      -27.2578654306       10.8454274651  MEMB      81              0.0000000000
      9421        81  SOPE      C37            19.5420221854      -26.8931365429        9.0865586807  MEMB      81              0.0000000000
      9422        81  SOPE      H7X            18.6651535469      -27.1071785580        9.7343309171  MEMB      81              0.0000000000
      9423        81  SOPE      H7Y            19.2620848733      -27.3380989071        8.1078024234  MEMB      81              0.0000000000
      9424        81  SOPE      C38            19.8975594826      -25.3744956234        8.9551714718  MEMB      81              0.0000000000
      9425        81  SOPE      H8X            20.0051192499      -24.9887732300        9.9914966764  MEMB      81              0.0000000000
      9426        81  SOPE      H8Y            19.0969740689      -24.7596403591        8.4911277562  MEMB      81              0.0000000000
      9427        81  SOPE      C39            21.2318502171      -25.0362390022        8.2747440024  MEMB      81              0.0000000000
      9428        81  SOPE      H9X            22.0099741168      -25.3410514229        9.0068178865  MEMB      81              0.0000000000
      9429        81  SOPE      H9Y            21.2453587007      -23.9309276804        8.1632729481  MEMB      81              0.0000000000
      9430        81  SOPE      C310           21.3748004517      -25.6805197618        6.9264607509  MEMB      81              0.0000000000
      9431        81  SOPE      H10X           20.4854734230      -25.4927804212        6.2875771709  MEMB      81              0.0000000000
      9432        81  SOPE      H10Y           21.4038812485      -26.7835436995        7.0561278518  MEMB      81              0.0000000000
      9433        81  SOPE      C311           22.6533089449      -25.3099651846        6.1119110018  MEMB      81              0.0000000000
      9434        81  SOPE      H11X           22.4234972871      -24.3710485234        5.5642404193  MEMB      81              0.0000000000
      9435        81  SOPE      H11Y           22.7222431656      -25.9792429019        5.2278087145  MEMB      81              0.0000000000
      9436        81  SOPE      C312           23.9621163045      -25.2914511255        6.8765672501  MEMB      81              0.0000000000
      9437        81  SOPE      H12X           24.2324585772      -26.2789818689        7.3078659961  MEMB      81              0.0000000000
      9438        81  SOPE      H12Y           23.7732465263      -24.6827844661        7.7866075697  MEMB      81              0.0000000000
      9439        81  SOPE      C313           25.0236484582      -24.4693411589        6.1451369371  MEMB      81              0.0000000000
      9440        81  SOPE      H13X           25.6701148969      -24.1304498785        6.9827259078  MEMB      81              0.0000000000
      9441        81  SOPE      H13Y           24.5729697889      -23.6779052005        5.5088677287  MEMB      81              0.0000000000
      9442        81  SOPE      C314           25.8771225073      -25.2276214552        5.0925707042  MEMB      81              0.0000000000
      9443        81  SOPE      H14X           26.5165929612      -25.8954154108        5.7085654336  MEMB      81              0.0000000000
      9444        81  SOPE      H14Y           26.5115917844      -24.4888307002        4.5578194774  MEMB      81              0.0000000000
      9445        81  SOPE      C315           25.2798264994      -26.0601789058        4.0026340720  MEMB      81              0.0000000000
      9446        81  SOPE      H15X           24.6845491507      -26.8723903017        4.4719725282  MEMB      81              0.0000000000
      9447        81  SOPE      H15Y           26.1326915300      -26.6169579423        3.5588550177  MEMB      81              0.0000000000
      9448        81  SOPE      C316           24.5189493895      -25.2727238371        2.9706938230  MEMB      81              0.0000000000
      9449        81  SOPE      H16X           23.6937243560      -24.6720677988        3.4094840088  MEMB      81              0.0000000000
      9450        81  SOPE      H16Y           24.0136524234      -26.0398833184        2.3458230808  MEMB      81              0.0000000000
      9451        81  SOPE      C317           25.3440537151      -24.3467177768        2.0618564285  MEMB      81              0.0000000000
      9452        81  SOPE      H17X           25.8999432198      -23.6549509711        2.7302610833  MEMB      81              0.0000000000
      9453        81  SOPE      H17Y           24.6912651026      -23.7502511094        1.3892369370  MEMB      81              0.0000000000
      9454        81  SOPE      C318           26.2473385701      -25.2437059747        1.1331711701  MEMB      81              0.0000000000
      9455        81  SOPE      H18X           26.7842738966      -24.5832864785        0.4191202583  MEMB      81              0.0000000000
      9456        81  SOPE      H18Y           25.5723330150      -25.9814369585        0.6489791303  MEMB      81              0.0000000000
      9457        81  SOPE      H18Z           27.1171608032      -25.7095880754        1.6437428983  MEMB      81              0.0000000000
      9458        82  POPC      N               9.9947599382      -35.6199664630       19.7284631918  MEMB      82              0.0000000000
      9459        82  POPC      C12            10.5442287751      -36.7044096638       20.6809289450  MEMB      82              0.0000000000
      9460        82  POPC      H12A            9.6686012680      -36.9573377661       21.2603283542  MEMB      82              0.0000000000
      9461        82  POPC      H12B           11.3449413775      -36.2570786354       21.2511519607  MEMB      82              0.0000000000
      9462        82  POPC      C13            11.0766885182      -34.7828079196       19.0797856509  MEMB      82              0.0000000000
      9463        82  POPC      H13A           11.7785616856      -35.5486875342       18.7844853836  MEMB      82              0.0000000000
      9464        82  POPC      H13B           10.6154299236      -34.1970792836       18.2984005631  MEMB      82              0.0000000000
      9465        82  POPC      H13C           11.4985469737      -34.2281397274       19.9048789478  MEMB      82              0.0000000000
      9466        82  POPC      C14             9.1138064300      -36.2256573783       18.6983131702  MEMB      82              0.0000000000
      9467        82  POPC      H14A            8.3020217624      -36.7973785717       19.1232137462  MEMB      82              0.0000000000
      9468        82  POPC      H14B            8.7582884405      -35.3799162998       18.1284633059  MEMB      82              0.0000000000
      9469        82  POPC      H14C            9.6179430448      -36.9151369297       18.0373559577  MEMB      82              0.0000000000
      9470        82  POPC      C15             9.1212791506      -34.7113935819       20.5874522870  MEMB      82              0.0000000000
      9471        82  POPC      H15A            9.4534300199      -34.4501343989       21.5813434805  MEMB      82              0.0000000000
      9472        82  POPC      H15B            8.1898700032      -35.2167254202       20.7960586358  MEMB      82              0.0000000000
      9473        82  POPC      H15C            8.9498996917      -33.8043967586       20.0267510777  MEMB      82              0.0000000000
      9474        82  POPC      C11            11.1243823498      -37.9897879140       19.9481442527  MEMB      82              0.0000000000
      9475        82  POPC      H11A           10.2858733215      -38.6835219369       19.7246344490  MEMB      82              0.0000000000
      9476        82  POPC      H11B           11.6879073950      -38.6340119555       20.6564773708  MEMB      82              0.0000000000
      9477        82  POPC      P              12.6016621881      -38.9325638918       17.9922621536  MEMB      82              0.0000000000
      9478        82  POPC      O13            12.9032758120      -38.6223015971       16.5928299535  MEMB      82              0.0000000000
      9479        82  POPC      O14            11.8800803864      -40.1545123671       18.2645983413  MEMB      82              0.0000000000
      9480        82  POPC      O12            11.8521134758      -37.7309994775       18.7338623477  MEMB      82              0.0000000000
      9481        82  POPC      O11            13.9852022171      -38.9366571649       18.6933596805  MEMB      82              0.0000000000
      9482        82  POPC      C1             14.6811360361      -37.7616694600       19.1125936736  MEMB      82              0.0000000000
      9483        82  POPC      HA             15.1276294637      -38.0561438829       20.0863746381  MEMB      82              0.0000000000
      9484        82  POPC      HB             13.9300301491      -36.9445532966       19.1624161058  MEMB      82              0.0000000000
      9485        82  POPC      C2             15.9045606691      -37.4505873942       18.1606617979  MEMB      82              0.0000000000
      9486        82  POPC      HS             16.5613731458      -36.6937649298       18.6403887383  MEMB      82              0.0000000000
      9487        82  POPC      O21            15.3811554232      -36.8565058900       16.9296062238  MEMB      82              0.0000000000
      9488        82  POPC      C21            14.8259488387      -35.6407227431       16.9534875345  MEMB      82              0.0000000000
      9489        82  POPC      O22            14.7068927872      -34.9179627453       17.9216737013  MEMB      82              0.0000000000
      9490        82  POPC      C22            14.4242283896      -35.2766870251       15.5127336921  MEMB      82              0.0000000000
      9491        82  POPC      H2R            14.7095632417      -36.1729951789       14.9215173474  MEMB      82              0.0000000000
      9492        82  POPC      H2S            15.0080497830      -34.4055862137       15.1457770280  MEMB      82              0.0000000000
      9493        82  POPC      C3             16.7789320476      -38.7105971845       17.8797126134  MEMB      82              0.0000000000
      9494        82  POPC      HX             17.0528463425      -39.2173858975       18.8296900155  MEMB      82              0.0000000000
      9495        82  POPC      HY             17.6783684785      -38.3309897712       17.3493985103  MEMB      82              0.0000000000
      9496        82  POPC      O31            16.1620101312      -39.7156015955       17.1427371456  MEMB      82              0.0000000000
      9497        82  POPC      C31            16.2208480284      -39.5255067080       15.8413039628  MEMB      82              0.0000000000
      9498        82  POPC      O32            16.6827592116      -38.6178811571       15.2688262642  MEMB      82              0.0000000000
      9499        82  POPC      C32            15.5813059149      -40.6663903449       15.1803961677  MEMB      82              0.0000000000
      9500        82  POPC      H2X            14.6946870264      -41.0182394097       15.7499838781  MEMB      82              0.0000000000
      9501        82  POPC      H2Y            16.3533881028      -41.4650125182       15.1600889448  MEMB      82              0.0000000000
      9502        82  POPC      C23            12.9302797484      -34.9251102524       15.5346790054  MEMB      82              0.0000000000
      9503        82  POPC      H3R            12.8914452389      -33.9352668323       16.0376922407  MEMB      82              0.0000000000
      9504        82  POPC      H3S            12.4164409250      -35.7055714643       16.1356539299  MEMB      82              0.0000000000
      9505        82  POPC      C24            12.5080685081      -34.7064574609       14.0699618478  MEMB      82              0.0000000000
      9506        82  POPC      H4R            13.4124116175      -34.4572895715       13.4746469688  MEMB      82              0.0000000000
      9507        82  POPC      H4S            11.6376397361      -34.0196910359       13.9990624637  MEMB      82              0.0000000000
      9508        82  POPC      C25            12.0895532384      -36.0638544683       13.5034536260  MEMB      82              0.0000000000
      9509        82  POPC      H5R            11.2833888057      -36.5706667437       14.0757829731  MEMB      82              0.0000000000
      9510        82  POPC      H5S            12.9688774081      -36.7301653482       13.3725345182  MEMB      82              0.0000000000
      9511        82  POPC      C26            11.5740098513      -35.9236578686       12.0555589622  MEMB      82              0.0000000000
      9512        82  POPC      H6R            10.6718802299      -35.2796789917       11.9795704796  MEMB      82              0.0000000000
      9513        82  POPC      H6S            11.4694302788      -36.9530364178       11.6508810914  MEMB      82              0.0000000000
      9514        82  POPC      C27            12.6323595434      -35.3641141898       11.0807117480  MEMB      82              0.0000000000
      9515        82  POPC      H7R            13.6374238987      -35.7499692061       11.3550884293  MEMB      82              0.0000000000
      9516        82  POPC      H7S            12.6922999019      -34.2744972503       11.2891884265  MEMB      82              0.0000000000
      9517        82  POPC      C28            12.3032446857      -35.5087805298        9.6415477402  MEMB      82              0.0000000000
      9518        82  POPC      H8R            11.2397590843      -35.3258020800        9.3772788858  MEMB      82              0.0000000000
      9519        82  POPC      H8S            12.4639237826      -36.5818816230        9.4028902397  MEMB      82              0.0000000000
      9520        82  POPC      C29            13.1902004221      -34.5790177001        8.8553628154  MEMB      82              0.0000000000
      9521        82  POPC      H91            12.6320486869      -33.6411841045        8.7177585046  MEMB      82              0.0000000000
      9522        82  POPC      C210           14.4045887058      -34.8274667812        8.3908233865  MEMB      82              0.0000000000
      9523        82  POPC      H101           14.9860300908      -34.1606105101        7.7371951069  MEMB      82              0.0000000000
      9524        82  POPC      C211           15.1051622365      -36.1449730766        8.6266432273  MEMB      82              0.0000000000
      9525        82  POPC      H11R           15.1283548909      -36.3618954418        9.7160136797  MEMB      82              0.0000000000
      9526        82  POPC      H11S           16.1704585986      -36.1125958527        8.3129294621  MEMB      82              0.0000000000
      9527        82  POPC      C212           14.5536217805      -37.2881333614        7.7629296381  MEMB      82              0.0000000000
      9528        82  POPC      H12R           13.5080233033      -37.4846115443        8.0829931352  MEMB      82              0.0000000000
      9529        82  POPC      H12S           15.1761906238      -38.1995802624        7.8893944738  MEMB      82              0.0000000000
      9530        82  POPC      C213           14.5447407696      -37.1119675865        6.2390729629  MEMB      82              0.0000000000
      9531        82  POPC      H13R           13.9706737418      -36.1786626970        6.0554705277  MEMB      82              0.0000000000
      9532        82  POPC      H13S           13.8599422611      -37.8459894776        5.7630646376  MEMB      82              0.0000000000
      9533        82  POPC      C214           15.8823688538      -37.0164026342        5.4547388275  MEMB      82              0.0000000000
      9534        82  POPC      H14R           16.3073218149      -38.0397717257        5.3744144398  MEMB      82              0.0000000000
      9535        82  POPC      H14S           16.6426018798      -36.4670501400        6.0502040332  MEMB      82              0.0000000000
      9536        82  POPC      C215           15.5998901228      -36.2405368618        4.1351091723  MEMB      82              0.0000000000
      9537        82  POPC      H15R           16.5570557140      -36.0895390860        3.5916436722  MEMB      82              0.0000000000
      9538        82  POPC      H15S           15.2186224404      -35.2099320317        4.2988450482  MEMB      82              0.0000000000
      9539        82  POPC      C216           14.6686913924      -36.9523990140        3.1372744819  MEMB      82              0.0000000000
      9540        82  POPC      H16R           14.5661477988      -36.2653040474        2.2702642772  MEMB      82              0.0000000000
      9541        82  POPC      H16S           13.6912940858      -37.1313840101        3.6342462394  MEMB      82              0.0000000000
      9542        82  POPC      C217           15.4308075037      -38.2721656153        2.7331155385  MEMB      82              0.0000000000
      9543        82  POPC      H17R           15.3592526920      -39.0276540785        3.5445562736  MEMB      82              0.0000000000
      9544        82  POPC      H17S           16.5063916890      -38.0682541264        2.5437483615  MEMB      82              0.0000000000
      9545        82  POPC      C218           14.9002585668      -38.7228444983        1.3133156649  MEMB      82              0.0000000000
      9546        82  POPC      H18R           13.9347184830      -38.2301072344        1.0698745350  MEMB      82              0.0000000000
      9547        82  POPC      H18S           14.7644249939      -39.8227540406        1.2354112923  MEMB      82              0.0000000000
      9548        82  POPC      H18T           15.7466852841      -38.4406517759        0.6513115394  MEMB      82              0.0000000000
      9549        82  POPC      C33            15.2381108678      -40.3683576860       13.7025931548  MEMB      82              0.0000000000
      9550        82  POPC      H3X            16.2089876998      -40.2501258442       13.1755821643  MEMB      82              0.0000000000
      9551        82  POPC      H3Y            14.7200368839      -39.3898285245       13.6109364048  MEMB      82              0.0000000000
      9552        82  POPC      C34            14.4421881232      -41.5203333453       12.9821288505  MEMB      82              0.0000000000
      9553        82  POPC      H4X            13.5843842109      -41.7595545835       13.6464081350  MEMB      82              0.0000000000
      9554        82  POPC      H4Y            15.1571642369      -42.3693532570       12.9342224232  MEMB      82              0.0000000000
      9555        82  POPC      C35            13.8545345954      -41.2825004199       11.6076656993  MEMB      82              0.0000000000
      9556        82  POPC      H5X            14.6843945321      -41.3653737074       10.8736453385  MEMB      82              0.0000000000
      9557        82  POPC      H5Y            13.3965071494      -40.2805553791       11.4640057317  MEMB      82              0.0000000000
      9558        82  POPC      C36            12.7967618624      -42.4241485041       11.3257886758  MEMB      82              0.0000000000
      9559        82  POPC      H6X            11.9147904381      -42.3315289636       11.9950188728  MEMB      82              0.0000000000
      9560        82  POPC      H6Y            13.3771053293      -43.2886774341       11.7132309713  MEMB      82              0.0000000000
      9561        82  POPC      C37            12.2812970526      -42.6655452976        9.9392835387  MEMB      82              0.0000000000
      9562        82  POPC      H7X            11.5853349000      -43.5284130092        9.8656842389  MEMB      82              0.0000000000
      9563        82  POPC      H7Y            13.1358845721      -42.9458125633        9.2870163188  MEMB      82              0.0000000000
      9564        82  POPC      C38            11.4991263002      -41.3586121145        9.4205937447  MEMB      82              0.0000000000
      9565        82  POPC      H8X            12.1235629819      -40.4461956310        9.5296623402  MEMB      82              0.0000000000
      9566        82  POPC      H8Y            10.4675204971      -41.2192120733        9.8087666317  MEMB      82              0.0000000000
      9567        82  POPC      C39            11.2036453492      -41.3231674347        7.8845992431  MEMB      82              0.0000000000
      9568        82  POPC      H9X            10.6246335367      -42.2108890764        7.5514075267  MEMB      82              0.0000000000
      9569        82  POPC      H9Y            12.1307842419      -41.2895808125        7.2733650046  MEMB      82              0.0000000000
      9570        82  POPC      C310           10.2290031941      -40.1536851742        7.4888157578  MEMB      82              0.0000000000
      9571        82  POPC      H10X           10.8057579040      -39.2342584982        7.7261537461  MEMB      82              0.0000000000
      9572        82  POPC      H10Y            9.2976304084      -40.3214249778        8.0708208138  MEMB      82              0.0000000000
      9573        82  POPC      C311            9.9063490390      -40.0075899750        6.0592447960  MEMB      82              0.0000000000
      9574        82  POPC      H11X            9.2266712518      -39.1488158722        5.8725203710  MEMB      82              0.0000000000
      9575        82  POPC      H11Y            9.4387371117      -40.8898396356        5.5721142015  MEMB      82              0.0000000000
      9576        82  POPC      C312           11.1767929574      -39.7362832600        5.1879056761  MEMB      82              0.0000000000
      9577        82  POPC      H12X           11.7025987553      -40.7045006586        5.0450609485  MEMB      82              0.0000000000
      9578        82  POPC      H12Y           11.8214299425      -39.0642439047        5.7938152327  MEMB      82              0.0000000000
      9579        82  POPC      C313           10.8087400738      -39.2153908973        3.8181637281  MEMB      82              0.0000000000
      9580        82  POPC      H13X           10.0865193824      -39.8990506236        3.3228586436  MEMB      82              0.0000000000
      9581        82  POPC      H13Y           11.6481325652      -39.1833234165        3.0910375232  MEMB      82              0.0000000000
      9582        82  POPC      C314           10.2044270922      -37.7767807085        3.7921695405  MEMB      82              0.0000000000
      9583        82  POPC      H14X           11.0404108611      -37.1670266823        4.1967092951  MEMB      82              0.0000000000
      9584        82  POPC      H14Y            9.4028838064      -37.6557708020        4.5519102239  MEMB      82              0.0000000000
      9585        82  POPC      C315            9.7735365953      -37.3052761452        2.4064239231  MEMB      82              0.0000000000
      9586        82  POPC      H15X            8.9139135429      -37.8890997283        2.0133331767  MEMB      82              0.0000000000
      9587        82  POPC      H15Y           10.5920013174      -37.3940808778        1.6604001475  MEMB      82              0.0000000000
      9588        82  POPC      C316            9.4751746512      -35.7715103795        2.3888472217  MEMB      82              0.0000000000
      9589        82  POPC      H16X           10.4140937715      -35.1782719391        2.3602117860  MEMB      82              0.0000000000
      9590        82  POPC      H16Y            8.7913221012      -35.5628082824        3.2392053269  MEMB      82              0.0000000000
      9591        82  POPC      H16Z            8.8560048707      -35.6395225855        1.4758684771  MEMB      82              0.0000000000
      9592        83  SOPE      N              24.8116735875       28.2592455816       23.1746734935  MEMB      83              0.0000000000
      9593        83  SOPE      HN1            25.7830381650       28.1342016428       23.5245518439  MEMB      83              0.0000000000
      9594        83  SOPE      HN2            24.0973268596       27.8278937497       23.7953540702  MEMB      83              0.0000000000
      9595        83  SOPE      HN3            24.6915048799       27.8683393480       22.2184561034  MEMB      83              0.0000000000
      9596        83  SOPE      C12            24.5974263439       29.7455082128       23.1185902470  MEMB      83              0.0000000000
      9597        83  SOPE      H12A           25.5531182196       30.2120851045       22.7972180899  MEMB      83              0.0000000000
      9598        83  SOPE      H12B           24.4453941734       30.0068966414       24.1876474191  MEMB      83              0.0000000000
      9599        83  SOPE      C11            23.3392793906       30.1532139594       22.3561781754  MEMB      83              0.0000000000
      9600        83  SOPE      H11A           23.1961098774       31.2400946484       22.5364943892  MEMB      83              0.0000000000
      9601        83  SOPE      H11B           22.5243818338       29.5785763399       22.8461318704  MEMB      83              0.0000000000
      9602        83  SOPE      P              24.0048562929       30.7899706572       19.8646881708  MEMB      83              0.0000000000
      9603        83  SOPE      O13            25.4240474607       30.7407820172       19.7702508081  MEMB      83              0.0000000000
      9604        83  SOPE      O14            23.3761662053       32.1324908371       20.0266158451  MEMB      83              0.0000000000
      9605        83  SOPE      O12            23.5297081034       29.8713705212       21.0322194366  MEMB      83              0.0000000000
      9606        83  SOPE      O11            23.3092137981       29.9599542492       18.6567838235  MEMB      83              0.0000000000
      9607        83  SOPE      C1             21.9782066611       29.5042183551       18.7229147919  MEMB      83              0.0000000000
      9608        83  SOPE      HA             21.4583435518       29.9656344722       19.5896087511  MEMB      83              0.0000000000
      9609        83  SOPE      HB             21.9111962600       28.3956220032       18.7519791486  MEMB      83              0.0000000000
      9610        83  SOPE      C2             21.2197304432       29.9964885282       17.4645255478  MEMB      83              0.0000000000
      9611        83  SOPE      HS             20.1582320453       29.6811997565       17.3743300202  MEMB      83              0.0000000000
      9612        83  SOPE      O21            21.9707631566       29.6527714148       16.2580570622  MEMB      83              0.0000000000
      9613        83  SOPE      C21            21.7239440425       28.4914925280       15.7876147515  MEMB      83              0.0000000000
      9614        83  SOPE      O22            21.0400435774       27.6609271440       16.3278000692  MEMB      83              0.0000000000
      9615        83  SOPE      C22            22.3876464564       28.3281198788       14.4881247444  MEMB      83              0.0000000000
      9616        83  SOPE      H2R            22.1146703188       27.3275838203       14.0897116388  MEMB      83              0.0000000000
      9617        83  SOPE      H2S            23.4670536613       28.2729228864       14.7453298465  MEMB      83              0.0000000000
      9618        83  SOPE      C3             21.0460517039       31.5741029883       17.5161352137  MEMB      83              0.0000000000
      9619        83  SOPE      HX             22.0164889899       32.1116214548       17.4557513635  MEMB      83              0.0000000000
      9620        83  SOPE      HY             20.5881352455       31.8812370580       18.4806568723  MEMB      83              0.0000000000
      9621        83  SOPE      O31            20.2002647600       32.0551562730       16.4028267686  MEMB      83              0.0000000000
      9622        83  SOPE      C31            20.7505113255       32.6104753232       15.3473445756  MEMB      83              0.0000000000
      9623        83  SOPE      O32            21.9534765517       32.6791138705       15.1213864470  MEMB      83              0.0000000000
      9624        83  SOPE      C32            19.5336776492       32.8022775989       14.4174290932  MEMB      83              0.0000000000
      9625        83  SOPE      H2X            18.8674809323       33.5990347792       14.8119929232  MEMB      83              0.0000000000
      9626        83  SOPE      H2Y            18.9645697092       31.8483448362       14.3962378256  MEMB      83              0.0000000000
      9627        83  SOPE      C23            21.9989985808       29.5271347512       13.5108996112  MEMB      83              0.0000000000
      9628        83  SOPE      H3R            22.3257224483       30.4921856108       13.9538996547  MEMB      83              0.0000000000
      9629        83  SOPE      H3S            20.8973242095       29.5071915933       13.3686430244  MEMB      83              0.0000000000
      9630        83  SOPE      C24            22.8614255275       29.3499030663       12.2275290082  MEMB      83              0.0000000000
      9631        83  SOPE      H4R            22.9340181429       28.2783686123       11.9431609859  MEMB      83              0.0000000000
      9632        83  SOPE      H4S            22.3206864845       29.7898483782       11.3624442591  MEMB      83              0.0000000000
      9633        83  SOPE      C25            24.3160406227       29.8955037918       12.4217440276  MEMB      83              0.0000000000
      9634        83  SOPE      H5R            24.6952408305       29.3504521929       13.3125003185  MEMB      83              0.0000000000
      9635        83  SOPE      H5S            24.9453853490       29.5586614316       11.5704012967  MEMB      83              0.0000000000
      9636        83  SOPE      C26            24.5469087029       31.4168871935       12.2741852037  MEMB      83              0.0000000000
      9637        83  SOPE      H6R            23.7822664845       31.7707286158       11.5500029812  MEMB      83              0.0000000000
      9638        83  SOPE      H6S            24.3795087904       31.8864726082       13.2670536179  MEMB      83              0.0000000000
      9639        83  SOPE      C27            25.9279196808       31.8526973880       11.8329443511  MEMB      83              0.0000000000
      9640        83  SOPE      H7R            26.6550446460       31.6385721407       12.6452005658  MEMB      83              0.0000000000
      9641        83  SOPE      H7S            26.1503154773       31.1673286383       10.9872901613  MEMB      83              0.0000000000
      9642        83  SOPE      C28            26.2420920296       33.2586049937       11.3217198997  MEMB      83              0.0000000000
      9643        83  SOPE      H8R            26.2056892895       33.9719756551       12.1726590196  MEMB      83              0.0000000000
      9644        83  SOPE      H8S            27.2499790467       33.3245763541       10.8589746091  MEMB      83              0.0000000000
      9645        83  SOPE      C29            25.1710229841       33.7661948338       10.3767026335  MEMB      83              0.0000000000
      9646        83  SOPE      H91            24.2769849051       34.0870884966       10.9314310058  MEMB      83              0.0000000000
      9647        83  SOPE      C210           25.2317173283       33.7066158954        9.0430564576  MEMB      83              0.0000000000
      9648        83  SOPE      H101           24.3613350043       33.9692987792        8.4238367593  MEMB      83              0.0000000000
      9649        83  SOPE      C211           26.3802351993       33.1188683269        8.2252080917  MEMB      83              0.0000000000
      9650        83  SOPE      H11R           26.0587309691       32.1670671841        7.7508343171  MEMB      83              0.0000000000
      9651        83  SOPE      H11S           27.2768075972       33.0161806593        8.8732313029  MEMB      83              0.0000000000
      9652        83  SOPE      C212           26.7452758848       33.9109510879        6.8773926836  MEMB      83              0.0000000000
      9653        83  SOPE      H12R           27.5537867487       33.3023958687        6.4188168129  MEMB      83              0.0000000000
      9654        83  SOPE      H12S           27.1831539889       34.8881349044        7.1735274955  MEMB      83              0.0000000000
      9655        83  SOPE      C213           25.5849172684       34.2032242698        5.9817927545  MEMB      83              0.0000000000
      9656        83  SOPE      H13R           24.9290453577       35.0089610121        6.3754184687  MEMB      83              0.0000000000
      9657        83  SOPE      H13S           25.1064733571       33.2223517179        5.7737026194  MEMB      83              0.0000000000
      9658        83  SOPE      C214           25.9999772620       34.5805075157        4.5355215253  MEMB      83              0.0000000000
      9659        83  SOPE      H14R           26.6674816630       33.7824795781        4.1457648852  MEMB      83              0.0000000000
      9660        83  SOPE      H14S           26.5851549461       35.5209342453        4.4490015546  MEMB      83              0.0000000000
      9661        83  SOPE      C215           24.7954849253       34.8342699689        3.6261101502  MEMB      83              0.0000000000
      9662        83  SOPE      H15R           24.1569979037       35.6315349477        4.0631727240  MEMB      83              0.0000000000
      9663        83  SOPE      H15S           24.1906389691       33.9062714946        3.5406655207  MEMB      83              0.0000000000
      9664        83  SOPE      C216           25.2034691763       35.1829032000        2.1663250180  MEMB      83              0.0000000000
      9665        83  SOPE      H16R           25.8288155752       34.3357280800        1.8119845329  MEMB      83              0.0000000000
      9666        83  SOPE      H16S           25.8326464351       36.0951438138        2.0871169414  MEMB      83              0.0000000000
      9667        83  SOPE      C217           23.9874941112       35.3996089773        1.3059941641  MEMB      83              0.0000000000
      9668        83  SOPE      H17R           23.4051479440       36.2297707594        1.7598941907  MEMB      83              0.0000000000
      9669        83  SOPE      H17S           23.2678837167       34.5667498411        1.4570842892  MEMB      83              0.0000000000
      9670        83  SOPE      C218           24.2666144627       35.8385815691       -0.1172047036  MEMB      83              0.0000000000
      9671        83  SOPE      H18R           24.6805756242       35.0239453115       -0.7491270101  MEMB      83              0.0000000000
      9672        83  SOPE      H18S           24.8055996186       36.8100774929       -0.1206423566  MEMB      83              0.0000000000
      9673        83  SOPE      H18T           23.3759017086       36.1990893591       -0.6748668476  MEMB      83              0.0000000000
      9674        83  SOPE      C33            20.0416296337       33.3440098627       13.0558102015  MEMB      83              0.0000000000
      9675        83  SOPE      H3X            20.7523236074       34.1979378895       13.0622785756  MEMB      83              0.0000000000
      9676        83  SOPE      H3Y            19.0484648205       33.5368832760       12.5967411955  MEMB      83              0.0000000000
      9677        83  SOPE      C34            20.5454112802       32.2657122182       12.1211013846  MEMB      83              0.0000000000
      9678        83  SOPE      H4X            19.9287327892       31.3422471815       12.0858701547  MEMB      83              0.0000000000
      9679        83  SOPE      H4Y            21.5997805383       32.0045264862       12.3543573922  MEMB      83              0.0000000000
      9680        83  SOPE      C35            20.6097682858       32.7878797198       10.7320002222  MEMB      83              0.0000000000
      9681        83  SOPE      H5X            21.3133216681       33.6474157740       10.7550451955  MEMB      83              0.0000000000
      9682        83  SOPE      H5Y            19.6717874387       33.1435621645       10.2545045204  MEMB      83              0.0000000000
      9683        83  SOPE      C36            21.0818505164       31.7086059439        9.6870049783  MEMB      83              0.0000000000
      9684        83  SOPE      H6X            20.5605262775       30.7772282804        9.9953511216  MEMB      83              0.0000000000
      9685        83  SOPE      H6Y            22.1594532052       31.4941632771        9.8516488263  MEMB      83              0.0000000000
      9686        83  SOPE      C37            20.8167612821       31.9572290971        8.2623895812  MEMB      83              0.0000000000
      9687        83  SOPE      H7X            19.7276145406       31.8770182556        8.0583146426  MEMB      83              0.0000000000
      9688        83  SOPE      H7Y            21.1784243246       31.0791761998        7.6857231356  MEMB      83              0.0000000000
      9689        83  SOPE      C38            21.4243375613       33.2583116962        7.7149274840  MEMB      83              0.0000000000
      9690        83  SOPE      H8X            22.4905346175       33.1856233262        8.0186727443  MEMB      83              0.0000000000
      9691        83  SOPE      H8Y            20.8139407796       34.0957529329        8.1154632458  MEMB      83              0.0000000000
      9692        83  SOPE      C39            21.3620586670       33.4658721250        6.0975046653  MEMB      83              0.0000000000
      9693        83  SOPE      H9X            21.5314373697       32.4354345336        5.7182552525  MEMB      83              0.0000000000
      9694        83  SOPE      H9Y            22.2434934202       34.1007327799        5.8643825274  MEMB      83              0.0000000000
      9695        83  SOPE      C310           20.1516385661       34.0684687470        5.4478043036  MEMB      83              0.0000000000
      9696        83  SOPE      H10X           19.9222149513       34.9893963498        6.0253665922  MEMB      83              0.0000000000
      9697        83  SOPE      H10Y           19.2546425120       33.4422845699        5.6417445881  MEMB      83              0.0000000000
      9698        83  SOPE      C311           20.1938209805       34.4778675226        3.9489128505  MEMB      83              0.0000000000
      9699        83  SOPE      H11X           20.6320632737       35.4968499653        3.8861552616  MEMB      83              0.0000000000
      9700        83  SOPE      H11Y           19.1036407093       34.5624814320        3.7522717082  MEMB      83              0.0000000000
      9701        83  SOPE      C312           20.9174582989       33.5483995765        2.9812935066  MEMB      83              0.0000000000
      9702        83  SOPE      H12X           21.9404600078       33.6861707279        3.3921548946  MEMB      83              0.0000000000
      9703        83  SOPE      H12Y           20.8427294633       33.9003404151        1.9301638438  MEMB      83              0.0000000000
      9704        83  SOPE      C313           20.5548217745       32.0619861925        3.0186055998  MEMB      83              0.0000000000
      9705        83  SOPE      H13X           19.5201345357       31.8917413894        2.6515093590  MEMB      83              0.0000000000
      9706        83  SOPE      H13Y           20.4095125056       31.8000241924        4.0884564100  MEMB      83              0.0000000000
      9707        83  SOPE      C314           21.7125343769       31.1208490355        2.5084025583  MEMB      83              0.0000000000
      9708        83  SOPE      H14X           22.2580286287       31.5761563890        1.6543216750  MEMB      83              0.0000000000
      9709        83  SOPE      H14Y           21.2780423287       30.1689501995        2.1350032339  MEMB      83              0.0000000000
      9710        83  SOPE      C315           22.8135840854       30.8766306088        3.6243484899  MEMB      83              0.0000000000
      9711        83  SOPE      H15X           22.2854195049       30.4873018080        4.5208903156  MEMB      83              0.0000000000
      9712        83  SOPE      H15Y           23.2518301476       31.8660912418        3.8758024531  MEMB      83              0.0000000000
      9713        83  SOPE      C316           24.0057209354       29.9124493159        3.2785092105  MEMB      83              0.0000000000
      9714        83  SOPE      H16X           23.7967272846       28.9346404195        2.7942242582  MEMB      83              0.0000000000
      9715        83  SOPE      H16Y           24.3504283831       29.5598523630        4.2740862039  MEMB      83              0.0000000000
      9716        83  SOPE      C317           25.2638410245       30.6251247841        2.7394606341  MEMB      83              0.0000000000
      9717        83  SOPE      H17X           26.1711014290       29.9979791453        2.6057148333  MEMB      83              0.0000000000
      9718        83  SOPE      H17Y           25.5389838957       31.4199304471        3.4653411737  MEMB      83              0.0000000000
      9719        83  SOPE      C318           25.0031499831       31.2735229114        1.3880369988  MEMB      83              0.0000000000
      9720        83  SOPE      H18X           24.2864893369       30.7023790226        0.7599336968  MEMB      83              0.0000000000
      9721        83  SOPE      H18Y           25.9525969745       31.3869438436        0.8223451650  MEMB      83              0.0000000000
      9722        83  SOPE      H18Z           24.5887265762       32.3033932544        1.4320967729  MEMB      83              0.0000000000
      9723        84  SAPC      N             -25.7515005669      -27.8567142254       19.9251798002  MEMB      84              0.0000000000
      9724        84  SAPC      C12           -25.2770988390      -28.8407029172       18.9051635957  MEMB      84              0.0000000000
      9725        84  SAPC      H12A          -25.0443731154      -28.3030542233       17.9978749938  MEMB      84              0.0000000000
      9726        84  SAPC      H12B          -26.1555111623      -29.3797906204       18.5824000311  MEMB      84              0.0000000000
      9727        84  SAPC      C13           -24.5569547322      -27.3672599663       20.8623152737  MEMB      84              0.0000000000
      9728        84  SAPC      H13A          -24.3239893878      -28.0943001348       21.6262128526  MEMB      84              0.0000000000
      9729        84  SAPC      H13B          -23.6785376720      -27.1036758541       20.2919585941  MEMB      84              0.0000000000
      9730        84  SAPC      H13C          -24.9661917757      -26.5685397937       21.4631240735  MEMB      84              0.0000000000
      9731        84  SAPC      C14           -26.2975801193      -26.6325117866       19.2604241555  MEMB      84              0.0000000000
      9732        84  SAPC      H14A          -27.0603361606      -27.0268164261       18.6053462800  MEMB      84              0.0000000000
      9733        84  SAPC      H14B          -26.8486539264      -26.1030825456       20.0235898786  MEMB      84              0.0000000000
      9734        84  SAPC      H14C          -25.5761958868      -26.0644649092       18.6918054583  MEMB      84              0.0000000000
      9735        84  SAPC      C15           -26.7431902481      -28.4972237642       20.8522664016  MEMB      84              0.0000000000
      9736        84  SAPC      H15A          -27.1148005149      -27.8398031351       21.6243441051  MEMB      84              0.0000000000
      9737        84  SAPC      H15B          -27.6498476199      -28.5523342480       20.2680273985  MEMB      84              0.0000000000
      9738        84  SAPC      H15C          -26.3230284689      -29.3205390705       21.4108502100  MEMB      84              0.0000000000
      9739        84  SAPC      C11           -24.2250759837      -29.8555298517       19.2158627429  MEMB      84              0.0000000000
      9740        84  SAPC      H11A          -23.2275108553      -29.3949022715       19.3802015025  MEMB      84              0.0000000000
      9741        84  SAPC      H11B          -24.0427910666      -30.4435204412       18.2910058206  MEMB      84              0.0000000000
      9742        84  SAPC      P             -25.5656168036      -31.8645749624       20.2619215523  MEMB      84              0.0000000000
      9743        84  SAPC      O13           -25.2451246074      -32.7380975068       21.3887916529  MEMB      84              0.0000000000
      9744        84  SAPC      O14           -26.9912322581      -31.4090166451       20.1886266942  MEMB      84              0.0000000000
      9745        84  SAPC      O12           -24.5708257716      -30.6515173593       20.2682584517  MEMB      84              0.0000000000
      9746        84  SAPC      O11           -25.2413238607      -32.5672330864       18.8711896269  MEMB      84              0.0000000000
      9747        84  SAPC      C1            -25.1160648879      -34.0096483476       18.8708417295  MEMB      84              0.0000000000
      9748        84  SAPC      HA            -24.1285701824      -34.3809358802       19.2191529669  MEMB      84              0.0000000000
      9749        84  SAPC      HB            -25.8808451508      -34.5540454294       19.4650334985  MEMB      84              0.0000000000
      9750        84  SAPC      C2            -25.3816175595      -34.4918184439       17.5126262362  MEMB      84              0.0000000000
      9751        84  SAPC      HS            -25.2871185405      -35.5957075438       17.4300432266  MEMB      84              0.0000000000
      9752        84  SAPC      O21           -24.2896061157      -33.9603220445       16.7752129410  MEMB      84              0.0000000000
      9753        84  SAPC      C21           -24.1312917093      -34.4891655063       15.5664098421  MEMB      84              0.0000000000
      9754        84  SAPC      O22           -24.5974866850      -35.5296105556       15.1439871578  MEMB      84              0.0000000000
      9755        84  SAPC      C22           -23.0997034929      -33.6469217801       14.8463753608  MEMB      84              0.0000000000
      9756        84  SAPC      H2R           -23.2107445383      -32.5651595941       15.0739299873  MEMB      84              0.0000000000
      9757        84  SAPC      H2S           -22.1391287525      -34.0043417388       15.2751740767  MEMB      84              0.0000000000
      9758        84  SAPC      C3            -26.7570555698      -34.1452464891       16.8976430510  MEMB      84              0.0000000000
      9759        84  SAPC      HX            -27.4647798347      -34.3840414616       17.7200934239  MEMB      84              0.0000000000
      9760        84  SAPC      HY            -26.9530003147      -34.7637180949       15.9957454743  MEMB      84              0.0000000000
      9761        84  SAPC      O31           -26.7608688729      -32.7240200922       16.5953238765  MEMB      84              0.0000000000
      9762        84  SAPC      C31           -27.8132700766      -32.2804969207       15.9172693388  MEMB      84              0.0000000000
      9763        84  SAPC      O32           -28.6879438673      -33.0080200846       15.4787678958  MEMB      84              0.0000000000
      9764        84  SAPC      C32           -27.8240105958      -30.7607244056       15.9351581143  MEMB      84              0.0000000000
      9765        84  SAPC      H2X           -27.9060405918      -30.4258413184       16.9913046378  MEMB      84              0.0000000000
      9766        84  SAPC      H2Y           -28.7965353705      -30.4136752890       15.5251907038  MEMB      84              0.0000000000
      9767        84  SAPC      C23           -23.0896701448      -33.9234862564       13.3410026179  MEMB      84              0.0000000000
      9768        84  SAPC      H3R           -23.2788123586      -34.9771850886       13.0439088948  MEMB      84              0.0000000000
      9769        84  SAPC      H3S           -22.1949373494      -33.6080308112       12.7628487952  MEMB      84              0.0000000000
      9770        84  SAPC      C24           -24.1727935896      -33.1212338186       12.5926730390  MEMB      84              0.0000000000
      9771        84  SAPC      H4R           -23.9055303773      -33.3864354894       11.5474171721  MEMB      84              0.0000000000
      9772        84  SAPC      H4S           -23.9469059225      -32.0382441438       12.6947954969  MEMB      84              0.0000000000
      9773        84  SAPC      C25           -25.5289123858      -33.4334510663       13.0565289379  MEMB      84              0.0000000000
      9774        84  SAPC      H5R           -25.8041767649      -32.9992902531       14.0290174494  MEMB      84              0.0000000000
      9775        84  SAPC      C26           -26.5429390819      -34.0387431555       12.3982048851  MEMB      84              0.0000000000
      9776        84  SAPC      H6R           -27.4923944939      -34.2121585620       12.9258991569  MEMB      84              0.0000000000
      9777        84  SAPC      C27           -26.5598916165      -34.5942503255       10.9911318254  MEMB      84              0.0000000000
      9778        84  SAPC      H7R           -25.8547969046      -35.4498281896       10.9193759609  MEMB      84              0.0000000000
      9779        84  SAPC      H7S           -26.0651870262      -33.8540794859       10.3265002115  MEMB      84              0.0000000000
      9780        84  SAPC      C28           -27.9727739348      -34.9835066571       10.4496724585  MEMB      84              0.0000000000
      9781        84  SAPC      H8R           -28.7847614459      -35.3504614001       11.0946688728  MEMB      84              0.0000000000
      9782        84  SAPC      C29           -28.1959863777      -34.9100811329        9.1385197076  MEMB      84              0.0000000000
      9783        84  SAPC      H9R           -29.2243106093      -35.1987039422        8.8753732131  MEMB      84              0.0000000000
      9784        84  SAPC      C210          -27.2202957424      -34.5287853421        8.0452779497  MEMB      84              0.0000000000
      9785        84  SAPC      H10R          -26.2414748404      -34.9596216708        8.3462944027  MEMB      84              0.0000000000
      9786        84  SAPC      H10S          -27.0467251739      -33.4386223263        7.9198228152  MEMB      84              0.0000000000
      9787        84  SAPC      C211          -27.6774226472      -35.0962583963        6.7979805850  MEMB      84              0.0000000000
      9788        84  SAPC      H11R          -27.0974320628      -35.9460573416        6.4088122228  MEMB      84              0.0000000000
      9789        84  SAPC      C212          -28.5393793464      -34.5119409980        5.9074341156  MEMB      84              0.0000000000
      9790        84  SAPC      H12R          -28.8052178728      -35.0787978017        5.0029991706  MEMB      84              0.0000000000
      9791        84  SAPC      C213          -29.2431015538      -33.1753723942        5.9584059262  MEMB      84              0.0000000000
      9792        84  SAPC      H13R          -29.7175594120      -32.9131736686        6.9281803491  MEMB      84              0.0000000000
      9793        84  SAPC      H13S          -30.0918458371      -33.2861246177        5.2501072483  MEMB      84              0.0000000000
      9794        84  SAPC      C214          -28.2482715459      -32.0329725331        5.5971972099  MEMB      84              0.0000000000
      9795        84  SAPC      H14R          -27.7500779851      -31.5228494750        6.4347999625  MEMB      84              0.0000000000
      9796        84  SAPC      C215          -27.7992909974      -31.8446027921        4.3231134183  MEMB      84              0.0000000000
      9797        84  SAPC      H15R          -27.0377523394      -31.0632291087        4.1834202547  MEMB      84              0.0000000000
      9798        84  SAPC      C216          -28.2270567041      -32.7283230884        3.1182554339  MEMB      84              0.0000000000
      9799        84  SAPC      H16R          -29.1914246622      -33.2536878532        3.2865033730  MEMB      84              0.0000000000
      9800        84  SAPC      H16S          -27.4360403613      -33.4560288845        2.8370832566  MEMB      84              0.0000000000
      9801        84  SAPC      C217          -28.3508501832      -31.7904313170        1.9227849786  MEMB      84              0.0000000000
      9802        84  SAPC      H17R          -28.9462165178      -30.8927334935        2.1948109188  MEMB      84              0.0000000000
      9803        84  SAPC      H17S          -28.9001259975      -32.2632385417        1.0807228394  MEMB      84              0.0000000000
      9804        84  SAPC      C218          -27.0592893866      -31.1357080463        1.4325336385  MEMB      84              0.0000000000
      9805        84  SAPC      H18R          -26.2149672931      -31.8539054100        1.3574757958  MEMB      84              0.0000000000
      9806        84  SAPC      H18S          -26.7365050458      -30.3203271767        2.1146518360  MEMB      84              0.0000000000
      9807        84  SAPC      C219          -27.2291511462      -30.4699606030        0.0670166081  MEMB      84              0.0000000000
      9808        84  SAPC      H19R          -28.0397789159      -29.7103269320        0.0796764065  MEMB      84              0.0000000000
      9809        84  SAPC      H19S          -27.6159545413      -31.2554801337       -0.6168417449  MEMB      84              0.0000000000
      9810        84  SAPC      C220          -26.0103368398      -29.9103062787       -0.6204410787  MEMB      84              0.0000000000
      9811        84  SAPC      H20R          -25.8672367043      -30.4959318072       -1.5536523852  MEMB      84              0.0000000000
      9812        84  SAPC      H20S          -25.1079237309      -30.1948402804       -0.0381930521  MEMB      84              0.0000000000
      9813        84  SAPC      H20T          -26.0246764879      -28.8142185516       -0.8012909053  MEMB      84              0.0000000000
      9814        84  SAPC      C33           -26.6611171117      -30.2224802359       15.1001085241  MEMB      84              0.0000000000
      9815        84  SAPC      H3X           -26.7607708688      -30.6185311975       14.0668934245  MEMB      84              0.0000000000
      9816        84  SAPC      H3Y           -25.7160392870      -30.6570975328       15.4903094884  MEMB      84              0.0000000000
      9817        84  SAPC      C34           -26.4001025236      -28.7329029204       15.0905407973  MEMB      84              0.0000000000
      9818        84  SAPC      H4X           -25.3025340686      -28.6104002125       14.9694723273  MEMB      84              0.0000000000
      9819        84  SAPC      H4Y           -26.7926022388      -28.1982192302       15.9818200303  MEMB      84              0.0000000000
      9820        84  SAPC      C35           -26.9928857700      -28.0515877155       13.8379214959  MEMB      84              0.0000000000
      9821        84  SAPC      H5X           -26.8428424454      -26.9516815089       13.8828070845  MEMB      84              0.0000000000
      9822        84  SAPC      H5Y           -28.0931466118      -28.2052358760       13.8497282742  MEMB      84              0.0000000000
      9823        84  SAPC      C36           -26.3149452292      -28.5635711510       12.4823277546  MEMB      84              0.0000000000
      9824        84  SAPC      H6X           -26.7003778582      -29.5859567135       12.2811060632  MEMB      84              0.0000000000
      9825        84  SAPC      H6Y           -25.2251641882      -28.7497093580       12.5921033400  MEMB      84              0.0000000000
      9826        84  SAPC      C37           -26.4961217835      -27.6453937325       11.2448552925  MEMB      84              0.0000000000
      9827        84  SAPC      H7X           -26.2641394723      -26.5766176278       11.4403614929  MEMB      84              0.0000000000
      9828        84  SAPC      H7Y           -27.5691057256      -27.7079202316       10.9635784998  MEMB      84              0.0000000000
      9829        84  SAPC      C38           -25.7123735625      -28.2799677899       10.1618192175  MEMB      84              0.0000000000
      9830        84  SAPC      H8X           -24.6772826315      -28.5359363961       10.4738895657  MEMB      84              0.0000000000
      9831        84  SAPC      H8Y           -25.4249813638      -27.4115381089        9.5312981981  MEMB      84              0.0000000000
      9832        84  SAPC      C39           -26.4124277012      -29.4833373463        9.5808001587  MEMB      84              0.0000000000
      9833        84  SAPC      H9X           -27.3862418801      -29.1099936150        9.1978883539  MEMB      84              0.0000000000
      9834        84  SAPC      H9Y           -26.6551391578      -30.1323735628       10.4492258569  MEMB      84              0.0000000000
      9835        84  SAPC      C310          -25.6831377706      -30.1264598172        8.3550668907  MEMB      84              0.0000000000
      9836        84  SAPC      H10X          -25.4986145097      -29.4065871946        7.5292007316  MEMB      84              0.0000000000
      9837        84  SAPC      H10Y          -26.2127903014      -31.0642657968        8.0824692682  MEMB      84              0.0000000000
      9838        84  SAPC      C311          -24.2125384299      -30.5732716637        8.7134412109  MEMB      84              0.0000000000
      9839        84  SAPC      H11X          -24.2976506401      -31.3031239594        9.5467433462  MEMB      84              0.0000000000
      9840        84  SAPC      H11Y          -23.5585974614      -29.7486533428        9.0693723104  MEMB      84              0.0000000000
      9841        84  SAPC      C312          -23.5912700521      -31.4288581657        7.5473625609  MEMB      84              0.0000000000
      9842        84  SAPC      H12X          -22.6881974789      -31.9122007254        7.9776659758  MEMB      84              0.0000000000
      9843        84  SAPC      H12Y          -23.0892293653      -30.8339520528        6.7546696310  MEMB      84              0.0000000000
      9844        84  SAPC      C313          -24.3950059717      -32.5692632815        6.7857099271  MEMB      84              0.0000000000
      9845        84  SAPC      H13X          -25.2974448356      -32.2181299593        6.2410710962  MEMB      84              0.0000000000
      9846        84  SAPC      H13Y          -24.6136610000      -33.2995762739        7.5938890933  MEMB      84              0.0000000000
      9847        84  SAPC      C314          -23.4755008873      -33.2021660886        5.6575678320  MEMB      84              0.0000000000
      9848        84  SAPC      H14X          -22.5092864498      -33.5751135009        6.0596382984  MEMB      84              0.0000000000
      9849        84  SAPC      H14Y          -23.1784018573      -32.4636887876        4.8825161198  MEMB      84              0.0000000000
      9850        84  SAPC      C315          -24.1089250629      -34.4295878996        5.0033323323  MEMB      84              0.0000000000
      9851        84  SAPC      H15X          -25.0591936000      -34.5382569907        5.5685765249  MEMB      84              0.0000000000
      9852        84  SAPC      H15Y          -23.5239840417      -35.3627383017        5.1496037104  MEMB      84              0.0000000000
      9853        84  SAPC      C316          -24.4408875709      -34.3256246306        3.5318037724  MEMB      84              0.0000000000
      9854        84  SAPC      H16X          -23.5227703786      -34.0940933646        2.9506196422  MEMB      84              0.0000000000
      9855        84  SAPC      H16Y          -25.0752149082      -33.4136543100        3.5156775005  MEMB      84              0.0000000000
      9856        84  SAPC      C317          -25.3416694432      -35.4743879588        2.7869960148  MEMB      84              0.0000000000
      9857        84  SAPC      H17X          -25.5727537904      -35.1727520752        1.7429957983  MEMB      84              0.0000000000
      9858        84  SAPC      H17Y          -26.2848990985      -35.5633107405        3.3672827620  MEMB      84              0.0000000000
      9859        84  SAPC      C318          -24.6628621097      -36.8204881959        2.6972727922  MEMB      84              0.0000000000
      9860        84  SAPC      H18X          -24.7968403071      -37.5035093335        3.5632144012  MEMB      84              0.0000000000
      9861        84  SAPC      H18Y          -23.5964775934      -36.6951770235        2.4118925990  MEMB      84              0.0000000000
      9862        84  SAPC      H18Z          -25.1535517741      -37.3808667102        1.8729427040  MEMB      84              0.0000000000
      9863        85  CHL1      C3            -25.0431705132       30.6918901318       17.3965150000  MEMB      85              0.0000000000
      9864        85  CHL1      H3            -26.1123882285       30.6539700171       17.0971050000  MEMB      85              0.0000000000
      9865        85  CHL1      O3            -24.7674566868       30.0414702682       18.6034850000  MEMB      85              0.0000000000
      9866        85  CHL1      H3'           -23.8137635126       30.0935266623       18.7001750000  MEMB      85              0.0000000000
      9867        85  CHL1      C4            -24.2544313162       29.8825053938       16.3283950000  MEMB      85              0.0000000000
      9868        85  CHL1      H4A           -23.2136554717       29.9142782989       16.7158250000  MEMB      85              0.0000000000
      9869        85  CHL1      H4B           -24.5429801255       28.8115274250       16.2646350000  MEMB      85              0.0000000000
      9870        85  CHL1      C5            -24.4453991940       30.5111325527       14.9599050000  MEMB      85              0.0000000000
      9871        85  CHL1      C6            -24.9007687900       29.7066243430       14.0342750000  MEMB      85              0.0000000000
      9872        85  CHL1      H6            -25.0169640867       28.6165854925       14.1254250000  MEMB      85              0.0000000000
      9873        85  CHL1      C7            -25.1635140786       30.1957452852       12.6003750000  MEMB      85              0.0000000000
      9874        85  CHL1      H7A           -24.7099956163       29.6193445704       11.7658650000  MEMB      85              0.0000000000
      9875        85  CHL1      H7B           -26.2500704160       30.1118566141       12.3843050000  MEMB      85              0.0000000000
      9876        85  CHL1      C8            -24.7405467636       31.6923607382       12.4043250000  MEMB      85              0.0000000000
      9877        85  CHL1      H8            -23.6385305291       31.7260414261       12.2674350000  MEMB      85              0.0000000000
      9878        85  CHL1      C14           -25.4388287946       32.3157296412       11.1365850000  MEMB      85              0.0000000000
      9879        85  CHL1      H14           -26.5190808192       32.3619719892       11.3919950000  MEMB      85              0.0000000000
      9880        85  CHL1      C15           -25.4398200818       31.5963307874        9.7458750000  MEMB      85              0.0000000000
      9881        85  CHL1      H15A          -24.4693739676       31.1349476762        9.4635750000  MEMB      85              0.0000000000
      9882        85  CHL1      H15B          -26.2175410382       30.8045193699        9.6958050000  MEMB      85              0.0000000000
      9883        85  CHL1      C16           -25.7842967962       32.6960364172        8.7069950000  MEMB      85              0.0000000000
      9884        85  CHL1      H16A          -25.0874489996       32.7015662280        7.8417250000  MEMB      85              0.0000000000
      9885        85  CHL1      H16B          -26.7385596337       32.4837843289        8.1791250000  MEMB      85              0.0000000000
      9886        85  CHL1      C17           -25.8345486018       34.0111881839        9.5329850000  MEMB      85              0.0000000000
      9887        85  CHL1      H17           -26.8709372990       34.1816710993        9.8951250000  MEMB      85              0.0000000000
      9888        85  CHL1      C13           -25.0356717829       33.7384519877       10.8399950000  MEMB      85              0.0000000000
      9889        85  CHL1      C18           -23.5187397034       33.8656076965       10.6808350000  MEMB      85              0.0000000000
      9890        85  CHL1      H18A          -23.3756048586       34.9247037036       10.3772650000  MEMB      85              0.0000000000
      9891        85  CHL1      H18B          -22.9532285530       33.8622799150       11.6371250000  MEMB      85              0.0000000000
      9892        85  CHL1      H18C          -23.1591896151       33.1606543376        9.9010450000  MEMB      85              0.0000000000
      9893        85  CHL1      C12           -25.4917350837       34.6009112042       12.0310250000  MEMB      85              0.0000000000
      9894        85  CHL1      H12A          -25.1480331039       35.6555504834       11.9683950000  MEMB      85              0.0000000000
      9895        85  CHL1      H12B          -26.5979229571       34.5270107907       11.9588050000  MEMB      85              0.0000000000
      9896        85  CHL1      C11           -24.9226513936       34.0437497751       13.3540550000  MEMB      85              0.0000000000
      9897        85  CHL1      H11A          -23.8387166793       34.2874903514       13.3532950000  MEMB      85              0.0000000000
      9898        85  CHL1      H11B          -25.4390455033       34.5959051058       14.1681650000  MEMB      85              0.0000000000
      9899        85  CHL1      C9            -25.0695941686       32.5380797420       13.5941750000  MEMB      85              0.0000000000
      9900        85  CHL1      H9            -26.1581333540       32.4406270481       13.7939350000  MEMB      85              0.0000000000
      9901        85  CHL1      C10           -24.3439351612       32.0293835317       14.8872650000  MEMB      85              0.0000000000
      9902        85  CHL1      C19           -22.8290119332       32.3807168241       14.8885950000  MEMB      85              0.0000000000
      9903        85  CHL1      H19A          -22.6365692460       33.4719635027       14.9689950000  MEMB      85              0.0000000000
      9904        85  CHL1      H19B          -22.3262529926       31.8827247223       15.7450750000  MEMB      85              0.0000000000
      9905        85  CHL1      H19C          -22.2952517125       32.0024159231       13.9906550000  MEMB      85              0.0000000000
      9906        85  CHL1      C1            -24.9137650028       32.7482827096       16.0940550000  MEMB      85              0.0000000000
      9907        85  CHL1      H1A           -24.7253706543       33.8431621630       16.1021250000  MEMB      85              0.0000000000
      9908        85  CHL1      H1B           -26.0002400880       32.6350437846       15.8914350000  MEMB      85              0.0000000000
      9909        85  CHL1      C2            -24.6815730564       32.1480674121       17.4523850000  MEMB      85              0.0000000000
      9910        85  CHL1      H2A           -25.2145413426       32.7703265970       18.2027550000  MEMB      85              0.0000000000
      9911        85  CHL1      H2B           -23.6220796158       32.1607713319       17.7865050000  MEMB      85              0.0000000000
      9912        85  CHL1      C20           -25.5028854453       35.2291945552        8.6147850000  MEMB      85              0.0000000000
      9913        85  CHL1      H20           -24.5225153527       34.9876372960        8.1512750000  MEMB      85              0.0000000000
      9914        85  CHL1      C21           -25.3201117696       36.6239181929        9.2861150000  MEMB      85              0.0000000000
      9915        85  CHL1      H21A          -24.4747415203       36.5391871952       10.0019950000  MEMB      85              0.0000000000
      9916        85  CHL1      H21B          -26.2239492245       37.0089629146        9.8049050000  MEMB      85              0.0000000000
      9917        85  CHL1      H21C          -24.9396503398       37.4132918743        8.6031450000  MEMB      85              0.0000000000
      9918        85  CHL1      C22           -26.4195577534       35.3408949674        7.4028250000  MEMB      85              0.0000000000
      9919        85  CHL1      H22A          -27.1139133378       34.4751478830        7.4546650000  MEMB      85              0.0000000000
      9920        85  CHL1      H22B          -27.0984379146       36.2194030353        7.4434350000  MEMB      85              0.0000000000
      9921        85  CHL1      C23           -25.6689726686       35.3922913276        6.0032550000  MEMB      85              0.0000000000
      9922        85  CHL1      H23A          -24.9017797543       36.1954687175        5.9777050000  MEMB      85              0.0000000000
      9923        85  CHL1      H23B          -25.0609871207       34.4672329728        5.9087850000  MEMB      85              0.0000000000
      9924        85  CHL1      C24           -26.5810580410       35.5474450437        4.8558150000  MEMB      85              0.0000000000
      9925        85  CHL1      H24A          -26.8332019474       34.5453349487        4.4477550000  MEMB      85              0.0000000000
      9926        85  CHL1      H24B          -27.5047194062       36.0345720330        5.2351350000  MEMB      85              0.0000000000
      9927        85  CHL1      C25           -26.0174364000       36.3316609282        3.6664150000  MEMB      85              0.0000000000
      9928        85  CHL1      H25           -25.6159702191       37.2517072132        4.1425050000  MEMB      85              0.0000000000
      9929        85  CHL1      C26           -24.7717668259       35.6427956781        3.1518950000  MEMB      85              0.0000000000
      9930        85  CHL1      H26A          -24.8498040047       34.5407713308        3.0345550000  MEMB      85              0.0000000000
      9931        85  CHL1      H26B          -24.5967848582       35.9400881414        2.0958150000  MEMB      85              0.0000000000
      9932        85  CHL1      H26C          -23.8943840717       35.9786551177        3.7449450000  MEMB      85              0.0000000000
      9933        85  CHL1      C27           -26.9506724429       36.5996726211        2.5066850000  MEMB      85              0.0000000000
      9934        85  CHL1      H27A          -27.4459144404       35.7179812112        2.0465950000  MEMB      85              0.0000000000
      9935        85  CHL1      H27B          -27.9028166640       37.0680757829        2.8358350000  MEMB      85              0.0000000000
      9936        85  CHL1      H27C          -26.4784939511       37.1795373205        1.6850250000  MEMB      85              0.0000000000
      9937        86  SLPC      N              21.3102142875      -37.5067288066       15.7520759976  MEMB      86              0.0000000000
      9938        86  SLPC      C13            21.9182923950      -36.1185191143       16.1820630657  MEMB      86              0.0000000000
      9939        86  SLPC      H13A           21.7493332363      -35.3673631677       15.4246877012  MEMB      86              0.0000000000
      9940        86  SLPC      H13B           21.4877215176      -35.8369646215       17.1316606962  MEMB      86              0.0000000000
      9941        86  SLPC      H13C           22.9930418349      -36.0986414564       16.2865557187  MEMB      86              0.0000000000
      9942        86  SLPC      C14            21.5437086266      -38.5486722236       16.8841924421  MEMB      86              0.0000000000
      9943        86  SLPC      H14A           22.5775572889      -38.6268342458       17.1865949493  MEMB      86              0.0000000000
      9944        86  SLPC      H14B           21.0731427682      -38.1416314802       17.7669639448  MEMB      86              0.0000000000
      9945        86  SLPC      H14C           21.2531019020      -39.5409423953       16.5721862553  MEMB      86              0.0000000000
      9946        86  SLPC      C15            21.9992799046      -37.8523972906       14.4867340137  MEMB      86              0.0000000000
      9947        86  SLPC      H15A           21.5227844729      -38.6769463505       13.9773512674  MEMB      86              0.0000000000
      9948        86  SLPC      H15B           22.0217346829      -37.0602229323       13.7530067700  MEMB      86              0.0000000000
      9949        86  SLPC      H15C           23.0091509971      -38.1752735398       14.6924320510  MEMB      86              0.0000000000
      9950        86  SLPC      C12            19.8512389233      -37.3251974853       15.3877359127  MEMB      86              0.0000000000
      9951        86  SLPC      H12A           19.5910295571      -38.2323469266       14.8625968005  MEMB      86              0.0000000000
      9952        86  SLPC      H12B           19.7056978001      -36.5997447455       14.6010108924  MEMB      86              0.0000000000
      9953        86  SLPC      C11            18.9275861010      -37.1972342960       16.6138837590  MEMB      86              0.0000000000
      9954        86  SLPC      H11A           18.9234496064      -38.1911241467       17.1103583207  MEMB      86              0.0000000000
      9955        86  SLPC      H11B           17.9183900350      -37.1482414472       16.1518836500  MEMB      86              0.0000000000
      9956        86  SLPC      P              18.3271820505      -35.3719276978       18.4262356302  MEMB      86              0.0000000000
      9957        86  SLPC      O13            16.9270658865      -35.8816194655       18.2851429495  MEMB      86              0.0000000000
      9958        86  SLPC      O14            19.0467533891      -35.4385711812       19.7421735303  MEMB      86              0.0000000000
      9959        86  SLPC      O12            19.2464879792      -35.9859386606       17.3037522042  MEMB      86              0.0000000000
      9960        86  SLPC      O11            18.4140388526      -33.8707268751       17.9360104995  MEMB      86              0.0000000000
      9961        86  SLPC      C1             19.5525977841      -33.1670993336       17.5349543374  MEMB      86              0.0000000000
      9962        86  SLPC      HA             19.6328221808      -32.3595064842       18.2936894657  MEMB      86              0.0000000000
      9963        86  SLPC      HB             20.5353396006      -33.6569564373       17.7040091369  MEMB      86              0.0000000000
      9964        86  SLPC      C2             19.3813863147      -32.5410627496       16.0928086426  MEMB      86              0.0000000000
      9965        86  SLPC      HS             18.4827453185      -31.8879518499       16.0782616993  MEMB      86              0.0000000000
      9966        86  SLPC      O21            19.2875863239      -33.5296198783       15.0935403684  MEMB      86              0.0000000000
      9967        86  SLPC      C21            18.2038318033      -33.5530487494       14.3993593782  MEMB      86              0.0000000000
      9968        86  SLPC      O22            17.2747920558      -32.8058302858       14.4985977674  MEMB      86              0.0000000000
      9969        86  SLPC      C22            18.2452853419      -34.6016572184       13.3285591435  MEMB      86              0.0000000000
      9970        86  SLPC      H2R            19.2468486278      -35.0815820256       13.2991628014  MEMB      86              0.0000000000
      9971        86  SLPC      H2S            17.7042701097      -35.5373367420       13.5857118928  MEMB      86              0.0000000000
      9972        86  SLPC      C3             20.6090451213      -31.6594058801       15.6812425594  MEMB      86              0.0000000000
      9973        86  SLPC      HX             21.5391841980      -32.2058380922       15.9469007013  MEMB      86              0.0000000000
      9974        86  SLPC      HY             20.4159417748      -30.8311806632       16.3961375245  MEMB      86              0.0000000000
      9975        86  SLPC      O31            20.5242841795      -31.1940168323       14.3347815054  MEMB      86              0.0000000000
      9976        86  SLPC      C31            21.2413924952      -31.7140525975       13.3648735070  MEMB      86              0.0000000000
      9977        86  SLPC      O32            22.0980248465      -32.5327297134       13.4001745869  MEMB      86              0.0000000000
      9978        86  SLPC      C32            20.6991432830      -31.1224360990       12.0874840058  MEMB      86              0.0000000000
      9979        86  SLPC      H2X            20.4731511125      -30.0725133107       12.3719322195  MEMB      86              0.0000000000
      9980        86  SLPC      H2Y            19.7871894449      -31.5870335452       11.6552678364  MEMB      86              0.0000000000
      9981        86  SLPC      C23            17.8622340721      -34.0648341599       11.9572765666  MEMB      86              0.0000000000
      9982        86  SLPC      H3R            18.7656269631      -33.5266258582       11.5987602508  MEMB      86              0.0000000000
      9983        86  SLPC      H3S            17.0229173318      -33.3371734191       11.9378215667  MEMB      86              0.0000000000
      9984        86  SLPC      C24            17.3776361103      -35.2330922671       11.0328963596  MEMB      86              0.0000000000
      9985        86  SLPC      H4R            16.7024054468      -34.9061959002       10.2134308018  MEMB      86              0.0000000000
      9986        86  SLPC      H4S            16.8091341946      -36.0332367019       11.5533723695  MEMB      86              0.0000000000
      9987        86  SLPC      C25            18.5944187253      -35.8324462572       10.2924266208  MEMB      86              0.0000000000
      9988        86  SLPC      H5R            19.2631996277      -36.3427606512       11.0181207673  MEMB      86              0.0000000000
      9989        86  SLPC      H5S            19.1020595063      -34.9429954852        9.8617301691  MEMB      86              0.0000000000
      9990        86  SLPC      C26            18.2491685677      -36.7771580777        9.0503881654  MEMB      86              0.0000000000
      9991        86  SLPC      H6R            19.2225438586      -36.8942809530        8.5277565928  MEMB      86              0.0000000000
      9992        86  SLPC      H6S            17.5700944572      -36.1525874039        8.4314440639  MEMB      86              0.0000000000
      9993        86  SLPC      C27            17.5770217221      -38.1045563296        9.3950216740  MEMB      86              0.0000000000
      9994        86  SLPC      H7R            16.5250850796      -37.8488219411        9.6447217181  MEMB      86              0.0000000000
      9995        86  SLPC      H7S            18.0986818857      -38.6077880058       10.2370129892  MEMB      86              0.0000000000
      9996        86  SLPC      C28            17.5360954810      -39.1568544280        8.1728831165  MEMB      86              0.0000000000
      9997        86  SLPC      H8R            17.0108406483      -40.0766733564        8.5080872762  MEMB      86              0.0000000000
      9998        86  SLPC      H8S            18.6125764947      -39.4222406283        8.1016113841  MEMB      86              0.0000000000
      9999        86  SLPC      C29            16.8154838487      -38.6821523156        6.9256208472  MEMB      86              0.0000000000
     10000        86  SLPC      H9R            15.7162000457      -38.6508032803        6.9012881053  MEMB      86              0.0000000000
     10001        86  SLPC      C210           17.3385308527      -38.3369197307        5.8308713263  MEMB      86              0.0000000000
     10002        86  SLPC      H10R           16.7038031024      -37.9688032427        5.0113525496  MEMB      86              0.0000000000
     10003        86  SLPC      C211           18.8200500715      -38.3050476406        5.4505072109  MEMB      86              0.0000000000
     10004        86  SLPC      H11R           19.0075023895      -39.2574633638        4.9100567052  MEMB      86              0.0000000000
     10005        86  SLPC      H11S           19.5198073801      -38.3919858693        6.3090533146  MEMB      86              0.0000000000
     10006        86  SLPC      C212           19.2199275430      -37.0609287516        4.6402290814  MEMB      86              0.0000000000
     10007        86  SLPC      H12R           18.3261716669      -36.4566096714        4.4257556695  MEMB      86              0.0000000000
     10008        86  SLPC      C213           20.4268197536      -36.7498248864        4.0673419559  MEMB      86              0.0000000000
     10009        86  SLPC      H13R           20.5155678225      -35.8967532990        3.3785802295  MEMB      86              0.0000000000
     10010        86  SLPC      C214           21.7020462308      -37.4846153018        4.1635438870  MEMB      86              0.0000000000
     10011        86  SLPC      H14R           21.6373484588      -38.4843961905        4.6437244021  MEMB      86              0.0000000000
     10012        86  SLPC      H14S           22.3105835125      -36.8790121422        4.8687023813  MEMB      86              0.0000000000
     10013        86  SLPC      C215           22.3176719934      -37.7673142357        2.7999892136  MEMB      86              0.0000000000
     10014        86  SLPC      H15R           21.6183311535      -38.4404326600        2.2594751433  MEMB      86              0.0000000000
     10015        86  SLPC      H15S           23.2875380925      -38.2585782366        3.0287695035  MEMB      86              0.0000000000
     10016        86  SLPC      C216           22.5868409293      -36.5618161095        1.9504552969  MEMB      86              0.0000000000
     10017        86  SLPC      H16R           23.1456479924      -35.7678055520        2.4904575597  MEMB      86              0.0000000000
     10018        86  SLPC      H16S           21.6794400843      -35.9800800031        1.6811449707  MEMB      86              0.0000000000
     10019        86  SLPC      C217           23.3005216047      -36.8373957570        0.6153136453  MEMB      86              0.0000000000
     10020        86  SLPC      H17R           22.4551696883      -37.3669673223        0.1261769427  MEMB      86              0.0000000000
     10021        86  SLPC      H17S           24.1841089679      -37.4874634858        0.7914009275  MEMB      86              0.0000000000
     10022        86  SLPC      C218           23.5936209234      -35.5753162829       -0.2016424054  MEMB      86              0.0000000000
     10023        86  SLPC      H18R           24.2443319112      -34.8849524072        0.3765392487  MEMB      86              0.0000000000
     10024        86  SLPC      H18S           22.6491279513      -35.0535120910       -0.4661695877  MEMB      86              0.0000000000
     10025        86  SLPC      H18T           24.0970248336      -35.7960917284       -1.1671294840  MEMB      86              0.0000000000
     10026        86  SLPC      C33            21.7842317171      -31.1774464272       10.9680481058  MEMB      86              0.0000000000
     10027        86  SLPC      H3X            22.7401168255      -30.9330186094       11.4787922269  MEMB      86              0.0000000000
     10028        86  SLPC      H3Y            21.6414969428      -30.3736244315       10.2145111519  MEMB      86              0.0000000000
     10029        86  SLPC      C34            21.7822227181      -32.5309103727       10.2400620264  MEMB      86              0.0000000000
     10030        86  SLPC      H4X            20.8144705540      -32.6968300419        9.7202089501  MEMB      86              0.0000000000
     10031        86  SLPC      H4Y            21.9648807178      -33.3276062881       10.9925465910  MEMB      86              0.0000000000
     10032        86  SLPC      C35            22.8058810681      -32.7005475226        9.1067048091  MEMB      86              0.0000000000
     10033        86  SLPC      H5X            23.7768291933      -32.7454405135        9.6448180345  MEMB      86              0.0000000000
     10034        86  SLPC      H5Y            22.7713051812      -31.7135661853        8.5977917548  MEMB      86              0.0000000000
     10035        86  SLPC      C36            22.6089985317      -33.7660466213        8.0083057401  MEMB      86              0.0000000000
     10036        86  SLPC      H6X            22.5501391252      -34.8092877670        8.3858032248  MEMB      86              0.0000000000
     10037        86  SLPC      H6Y            23.5992435870      -33.8209773227        7.5075874984  MEMB      86              0.0000000000
     10038        86  SLPC      C37            21.5339308098      -33.5126682861        6.8665091535  MEMB      86              0.0000000000
     10039        86  SLPC      H7X            20.5440873314      -33.4227823131        7.3629477430  MEMB      86              0.0000000000
     10040        86  SLPC      H7Y            21.5231616994      -34.3377831150        6.1226070637  MEMB      86              0.0000000000
     10041        86  SLPC      C38            21.9433174547      -32.2272612051        6.1352592584  MEMB      86              0.0000000000
     10042        86  SLPC      H8X            23.0473476654      -32.3265967559        6.0606221305  MEMB      86              0.0000000000
     10043        86  SLPC      H8Y            21.7060704101      -31.4080481168        6.8472453826  MEMB      86              0.0000000000
     10044        86  SLPC      C39            21.2487284106      -32.1322611192        4.7927904902  MEMB      86              0.0000000000
     10045        86  SLPC      H9X            21.5818330427      -32.8822038010        4.0438255613  MEMB      86              0.0000000000
     10046        86  SLPC      H9Y            21.3250571954      -31.1276379485        4.3245729411  MEMB      86              0.0000000000
     10047        86  SLPC      C310           19.6457953768      -32.2610498959        4.9832503853  MEMB      86              0.0000000000
     10048        86  SLPC      H10X           19.3092506921      -31.5818652241        5.7955109327  MEMB      86              0.0000000000
     10049        86  SLPC      H10Y           19.3500612249      -33.2901347710        5.2796395853  MEMB      86              0.0000000000
     10050        86  SLPC      C311           18.9203568710      -31.9861229504        3.6523395913  MEMB      86              0.0000000000
     10051        86  SLPC      H11X           19.4324529762      -31.1939122468        3.0654140811  MEMB      86              0.0000000000
     10052        86  SLPC      H11Y           17.8990463012      -31.6070415277        3.8703824805  MEMB      86              0.0000000000
     10053        86  SLPC      C312           18.6781934005      -33.2530035535        2.8884146395  MEMB      86              0.0000000000
     10054        86  SLPC      H12X           17.9433396162      -33.9055012819        3.4066409054  MEMB      86              0.0000000000
     10055        86  SLPC      H12Y           19.6786159285      -33.7361943613        2.8868657901  MEMB      86              0.0000000000
     10056        86  SLPC      C313           18.3074920274      -33.0197746854        1.4099081151  MEMB      86              0.0000000000
     10057        86  SLPC      H13X           19.1756579713      -32.4779038725        0.9774918907  MEMB      86              0.0000000000
     10058        86  SLPC      H13Y           17.5029493599      -32.2623177876        1.2946234966  MEMB      86              0.0000000000
     10059        86  SLPC      C314           17.9892670791      -34.2289623786        0.5251120452  MEMB      86              0.0000000000
     10060        86  SLPC      H14X           17.9490343747      -33.9574562994       -0.5514516673  MEMB      86              0.0000000000
     10061        86  SLPC      H14Y           17.0450532833      -34.7599464884        0.7717623660  MEMB      86              0.0000000000
     10062        86  SLPC      C315           19.0679932719      -35.2562796495        0.6611446582  MEMB      86              0.0000000000
     10063        86  SLPC      H15X           19.0080878718      -35.8629723511        1.5899368917  MEMB      86              0.0000000000
     10064        86  SLPC      H15Y           20.0723635187      -34.7836994195        0.7083598024  MEMB      86              0.0000000000
     10065        86  SLPC      C316           19.1281243652      -36.3140175725       -0.5083601245  MEMB      86              0.0000000000
     10066        86  SLPC      H16X           18.2308792178      -36.9687580797       -0.5325876987  MEMB      86              0.0000000000
     10067        86  SLPC      H16Y           19.9288446547      -36.9879921294       -0.1356313504  MEMB      86              0.0000000000
     10068        86  SLPC      C317           19.5284800558      -35.6345862462       -1.8962089044  MEMB      86              0.0000000000
     10069        86  SLPC      H17X           20.3534821073      -34.9175847076       -1.6972073197  MEMB      86              0.0000000000
     10070        86  SLPC      H17Y           18.6745664155      -34.9750880368       -2.1611886338  MEMB      86              0.0000000000
     10071        86  SLPC      C318           19.9276759014      -36.5763170429       -2.9543053390  MEMB      86              0.0000000000
     10072        86  SLPC      H18X           19.9056311618      -36.0548686093       -3.9350823307  MEMB      86              0.0000000000
     10073        86  SLPC      H18Y           19.3061537377      -37.4944407300       -3.0255846807  MEMB      86              0.0000000000
     10074        86  SLPC      H18Z           20.9581079682      -36.9680870421       -2.8162929046  MEMB      86              0.0000000000
     10075        87  CHL1      C3             35.6353657475      -23.2583811148       17.4036950000  MEMB      87              0.0000000000
     10076        87  CHL1      H3             36.2695841143      -24.1246115484       17.6896050000  MEMB      87              0.0000000000
     10077        87  CHL1      O3             35.2143348525      -22.6749128852       18.5963050000  MEMB      87              0.0000000000
     10078        87  CHL1      H3'            35.1985673122      -23.3671303723       19.2612850000  MEMB      87              0.0000000000
     10079        87  CHL1      C4             36.4156220268      -22.2938624084       16.4334250000  MEMB      87              0.0000000000
     10080        87  CHL1      H4A            35.9388206743      -21.2919245524       16.4891250000  MEMB      87              0.0000000000
     10081        87  CHL1      H4B            37.4267153091      -22.0748778061       16.8384650000  MEMB      87              0.0000000000
     10082        87  CHL1      C5             36.5508504335      -22.8095319934       14.9884250000  MEMB      87              0.0000000000
     10083        87  CHL1      C6             37.7573850841      -22.7584084188       14.3658550000  MEMB      87              0.0000000000
     10084        87  CHL1      H6             38.5933628168      -22.4783592214       15.0236650000  MEMB      87              0.0000000000
     10085        87  CHL1      C7             38.0294506995      -23.1093262292       12.9567850000  MEMB      87              0.0000000000
     10086        87  CHL1      H7A            38.5041856261      -22.2180188950       12.4936150000  MEMB      87              0.0000000000
     10087        87  CHL1      H7B            38.7158452593      -23.9827966207       12.9417250000  MEMB      87              0.0000000000
     10088        87  CHL1      C8             36.6933730515      -23.3727665969       12.2009050000  MEMB      87              0.0000000000
     10089        87  CHL1      H8             36.3180595976      -22.3380186776       12.0500650000  MEMB      87              0.0000000000
     10090        87  CHL1      C14            36.9323397515      -24.0984424175       10.8807750000  MEMB      87              0.0000000000
     10091        87  CHL1      H14            37.1803936001      -25.1384656051       11.1826850000  MEMB      87              0.0000000000
     10092        87  CHL1      C15            38.0980246079      -23.6484852425       10.0599450000  MEMB      87              0.0000000000
     10093        87  CHL1      H15A           38.1668892425      -22.5414383733       10.1233350000  MEMB      87              0.0000000000
     10094        87  CHL1      H15B           38.9908820923      -24.0342829888       10.5968750000  MEMB      87              0.0000000000
     10095        87  CHL1      C16            37.8174040582      -24.2150367381        8.6988250000  MEMB      87              0.0000000000
     10096        87  CHL1      H16A           37.6013799852      -23.3308549480        8.0617350000  MEMB      87              0.0000000000
     10097        87  CHL1      H16B           38.7035616726      -24.8005151651        8.3728450000  MEMB      87              0.0000000000
     10098        87  CHL1      C17            36.4500101902      -24.9758358765        8.7238450000  MEMB      87              0.0000000000
     10099        87  CHL1      H17            36.6836878058      -26.0164158637        9.0351450000  MEMB      87              0.0000000000
     10100        87  CHL1      C13            35.7355553575      -24.3336208532        9.9497850000  MEMB      87              0.0000000000
     10101        87  CHL1      C18            35.0702393503      -22.9799824550        9.5660550000  MEMB      87              0.0000000000
     10102        87  CHL1      H18A           35.9149560428      -22.3642422766        9.1896750000  MEMB      87              0.0000000000
     10103        87  CHL1      H18B           34.1674348714      -22.9456765490        8.9194650000  MEMB      87              0.0000000000
     10104        87  CHL1      H18C           34.7036014421      -22.5452182854       10.5204550000  MEMB      87              0.0000000000
     10105        87  CHL1      C12            34.7278358934      -25.2074740070       10.7202850000  MEMB      87              0.0000000000
     10106        87  CHL1      H12A           33.7996428540      -25.2657526635       10.1125250000  MEMB      87              0.0000000000
     10107        87  CHL1      H12B           35.0834268332      -26.2034990901       11.0605850000  MEMB      87              0.0000000000
     10108        87  CHL1      C11            34.4246998482      -24.6189136857       12.1704550000  MEMB      87              0.0000000000
     10109        87  CHL1      H11A           33.6943560222      -23.8052580199       11.9732950000  MEMB      87              0.0000000000
     10110        87  CHL1      H11B           33.8361027915      -25.3606653800       12.7515750000  MEMB      87              0.0000000000
     10111        87  CHL1      C9             35.6459443836      -24.2137684930       13.0065150000  MEMB      87              0.0000000000
     10112        87  CHL1      H9             36.1054015538      -25.2001305393       13.2307850000  MEMB      87              0.0000000000
     10113        87  CHL1      C10            35.2257434641      -23.3910849390       14.3576350000  MEMB      87              0.0000000000
     10114        87  CHL1      C19            34.2972648930      -22.1981641221       13.9852050000  MEMB      87              0.0000000000
     10115        87  CHL1      H19A           34.5107111901      -21.3169828609       14.6273050000  MEMB      87              0.0000000000
     10116        87  CHL1      H19B           34.3379355210      -21.9252576802       12.9090050000  MEMB      87              0.0000000000
     10117        87  CHL1      H19C           33.2477848346      -22.4934123771       14.1990550000  MEMB      87              0.0000000000
     10118        87  CHL1      C1             34.4528293302      -24.3345703885       15.3269750000  MEMB      87              0.0000000000
     10119        87  CHL1      H1A            33.4938023671      -24.5550379939       14.8112550000  MEMB      87              0.0000000000
     10120        87  CHL1      H1B            34.9735045037      -25.2970611428       15.5189150000  MEMB      87              0.0000000000
     10121        87  CHL1      C2             34.2729847122      -23.6075725910       16.7287450000  MEMB      87              0.0000000000
     10122        87  CHL1      H2A            33.6805110076      -24.2433427054       17.4209050000  MEMB      87              0.0000000000
     10123        87  CHL1      H2B            33.7474385808      -22.6292019290       16.6982550000  MEMB      87              0.0000000000
     10124        87  CHL1      C20            35.6342993911      -24.9909801417        7.4225450000  MEMB      87              0.0000000000
     10125        87  CHL1      H20            35.1028023408      -24.0395042629        7.2068550000  MEMB      87              0.0000000000
     10126        87  CHL1      C21            34.5806388859      -26.1183162530        7.4538450000  MEMB      87              0.0000000000
     10127        87  CHL1      H21A           34.0515767717      -26.1350969656        8.4306350000  MEMB      87              0.0000000000
     10128        87  CHL1      H21B           35.1532384795      -27.0673473345        7.5300450000  MEMB      87              0.0000000000
     10129        87  CHL1      H21C           33.9736926933      -26.1172008392        6.5232850000  MEMB      87              0.0000000000
     10130        87  CHL1      C22            36.5578199462      -25.1551015983        6.1649350000  MEMB      87              0.0000000000
     10131        87  CHL1      H22A           37.1850905311      -24.2480578273        6.0303250000  MEMB      87              0.0000000000
     10132        87  CHL1      H22B           37.2290996993      -26.0018744408        6.4231850000  MEMB      87              0.0000000000
     10133        87  CHL1      C23            35.9895203509      -25.4052448140        4.6847850000  MEMB      87              0.0000000000
     10134        87  CHL1      H23A           35.3672169182      -26.3255553631        4.6934950000  MEMB      87              0.0000000000
     10135        87  CHL1      H23B           35.3734123181      -24.5111202842        4.4496650000  MEMB      87              0.0000000000
     10136        87  CHL1      C24            37.1494972928      -25.5841998016        3.7006550000  MEMB      87              0.0000000000
     10137        87  CHL1      H24A           37.9759078893      -24.8750590378        3.9208250000  MEMB      87              0.0000000000
     10138        87  CHL1      H24B           37.5603319702      -26.6161360872        3.7262050000  MEMB      87              0.0000000000
     10139        87  CHL1      C25            36.8445767379      -25.2812871268        2.1966050000  MEMB      87              0.0000000000
     10140        87  CHL1      H25            36.2767741071      -26.0533396917        1.6345950000  MEMB      87              0.0000000000
     10141        87  CHL1      C26            36.0171261072      -24.0358048558        1.9950850000  MEMB      87              0.0000000000
     10142        87  CHL1      H26A           36.1543515201      -23.6358318199        0.9677050000  MEMB      87              0.0000000000
     10143        87  CHL1      H26B           34.9306895571      -24.2267101062        2.1275550000  MEMB      87              0.0000000000
     10144        87  CHL1      H26C           36.2960429451      -23.2469044680        2.7259550000  MEMB      87              0.0000000000
     10145        87  CHL1      C27            38.1350100609      -25.0235814074        1.3625350000  MEMB      87              0.0000000000
     10146        87  CHL1      H27A           37.9400571297      -24.6624567155        0.3301150000  MEMB      87              0.0000000000
     10147        87  CHL1      H27B           38.6072023971      -24.1500528761        1.8608450000  MEMB      87              0.0000000000
     10148        87  CHL1      H27C           38.9250465359      -25.8038958607        1.3983350000  MEMB      87              0.0000000000
     10149        88  CHL1      C3            -20.0720324227      -36.5222055825       17.4486150000  MEMB      88              0.0000000000
     10150        88  CHL1      H3            -19.3288472270      -37.3389903003       17.5704750000  MEMB      88              0.0000000000
     10151        88  CHL1      O3            -20.9404481680      -36.4186390052       18.5513850000  MEMB      88              0.0000000000
     10152        88  CHL1      H3'           -20.3393679565      -36.7045727661       19.2431450000  MEMB      88              0.0000000000
     10153        88  CHL1      C4            -19.3578620901      -35.1904073776       17.1882050000  MEMB      88              0.0000000000
     10154        88  CHL1      H4A           -20.1695138179      -34.4433138788       17.0563450000  MEMB      88              0.0000000000
     10155        88  CHL1      H4B           -18.7720743520      -34.8348909056       18.0627150000  MEMB      88              0.0000000000
     10156        88  CHL1      C5            -18.5600515611      -34.9489702935       15.9980050000  MEMB      88              0.0000000000
     10157        88  CHL1      C6            -17.3148813265      -34.5010268629       16.0089150000  MEMB      88              0.0000000000
     10158        88  CHL1      H6            -16.7667956885      -34.2621402286       16.9322450000  MEMB      88              0.0000000000
     10159        88  CHL1      C7            -16.5523536840      -34.3862341862       14.7400150000  MEMB      88              0.0000000000
     10160        88  CHL1      H7A           -15.9128377906      -33.4780712528       14.7162050000  MEMB      88              0.0000000000
     10161        88  CHL1      H7B           -15.8316658514      -35.2299355800       14.6842950000  MEMB      88              0.0000000000
     10162        88  CHL1      C8            -17.3558628577      -34.4279980912       13.4915350000  MEMB      88              0.0000000000
     10163        88  CHL1      H8            -17.9705434112      -33.5162320099       13.3329050000  MEMB      88              0.0000000000
     10164        88  CHL1      C14           -16.4964710744      -34.5187075999       12.2357250000  MEMB      88              0.0000000000
     10165        88  CHL1      H14           -16.0324127049      -35.5122465947       12.4142250000  MEMB      88              0.0000000000
     10166        88  CHL1      C15           -15.4152942593      -33.4506007776       11.9437550000  MEMB      88              0.0000000000
     10167        88  CHL1      H15A          -15.8859396373      -32.4530824087       12.0770350000  MEMB      88              0.0000000000
     10168        88  CHL1      H15B          -14.5120243071      -33.5869026135       12.5760850000  MEMB      88              0.0000000000
     10169        88  CHL1      C16           -15.0008478012      -33.6179811286       10.5300350000  MEMB      88              0.0000000000
     10170        88  CHL1      H16A          -15.2601793609      -32.7597292764        9.8739450000  MEMB      88              0.0000000000
     10171        88  CHL1      H16B          -13.9733223751      -33.9831153400       10.3174250000  MEMB      88              0.0000000000
     10172        88  CHL1      C17           -15.8437530334      -34.8948247326       10.0257550000  MEMB      88              0.0000000000
     10173        88  CHL1      H17           -15.3789151789      -35.8295704931       10.4058950000  MEMB      88              0.0000000000
     10174        88  CHL1      C13           -17.1814668852      -34.7775823976       10.9297950000  MEMB      88              0.0000000000
     10175        88  CHL1      C18           -18.0852645314      -33.6547007453       10.4030050000  MEMB      88              0.0000000000
     10176        88  CHL1      H18A          -18.4918261185      -34.0546726028        9.4495650000  MEMB      88              0.0000000000
     10177        88  CHL1      H18B          -19.0279507403      -33.5835275737       10.9866150000  MEMB      88              0.0000000000
     10178        88  CHL1      H18C          -17.5356750463      -32.7007596384       10.2538150000  MEMB      88              0.0000000000
     10179        88  CHL1      C12           -18.0419925478      -36.1112605741       11.0162250000  MEMB      88              0.0000000000
     10180        88  CHL1      H12A          -18.6180760578      -36.3230716998       10.0901650000  MEMB      88              0.0000000000
     10181        88  CHL1      H12B          -17.3037416832      -36.8747930687       11.3422850000  MEMB      88              0.0000000000
     10182        88  CHL1      C11           -19.0361945696      -35.8919822523       12.2010950000  MEMB      88              0.0000000000
     10183        88  CHL1      H11A          -19.8425710422      -35.1864391190       11.9073350000  MEMB      88              0.0000000000
     10184        88  CHL1      H11B          -19.4687825383      -36.9115315941       12.2888050000  MEMB      88              0.0000000000
     10185        88  CHL1      C9            -18.3616167783      -35.5186519638       13.5457650000  MEMB      88              0.0000000000
     10186        88  CHL1      H9            -17.6519743733      -36.3473178088       13.7556350000  MEMB      88              0.0000000000
     10187        88  CHL1      C10           -19.2809725578      -35.3416042685       14.7234250000  MEMB      88              0.0000000000
     10188        88  CHL1      C19           -20.3448546710      -34.2092560910       14.3897950000  MEMB      88              0.0000000000
     10189        88  CHL1      H19A          -21.0534833441      -34.3796750600       13.5512750000  MEMB      88              0.0000000000
     10190        88  CHL1      H19B          -20.9626676730      -33.8179710728       15.2261750000  MEMB      88              0.0000000000
     10191        88  CHL1      H19C          -19.7547473444      -33.3895372553       13.9270250000  MEMB      88              0.0000000000
     10192        88  CHL1      C1            -20.0481300474      -36.6614398777       14.9483250000  MEMB      88              0.0000000000
     10193        88  CHL1      H1A           -20.7494820035      -36.8704659741       14.1124250000  MEMB      88              0.0000000000
     10194        88  CHL1      H1B           -19.3108722938      -37.4889779730       15.0254850000  MEMB      88              0.0000000000
     10195        88  CHL1      C2            -20.9298743329      -36.7733491480       16.2247550000  MEMB      88              0.0000000000
     10196        88  CHL1      H2A           -21.3703769642      -37.7927848414       16.2565950000  MEMB      88              0.0000000000
     10197        88  CHL1      H2B           -21.7154166360      -36.0406888729       15.9410950000  MEMB      88              0.0000000000
     10198        88  CHL1      C20           -16.0027865239      -34.9321892424        8.4245150000  MEMB      88              0.0000000000
     10199        88  CHL1      H20           -16.5428080081      -33.9955047128        8.1689250000  MEMB      88              0.0000000000
     10200        88  CHL1      C21           -16.8214853932      -36.1029425901        7.8618150000  MEMB      88              0.0000000000
     10201        88  CHL1      H21A          -17.0212265940      -36.0725489659        6.7693450000  MEMB      88              0.0000000000
     10202        88  CHL1      H21B          -17.8222776516      -36.0324080227        8.3390650000  MEMB      88              0.0000000000
     10203        88  CHL1      H21C          -16.2841968839      -37.0554476048        8.0577450000  MEMB      88              0.0000000000
     10204        88  CHL1      C22           -14.6646019827      -34.7786320733        7.7515850000  MEMB      88              0.0000000000
     10205        88  CHL1      H22A          -14.2347775056      -33.7742884249        7.9537450000  MEMB      88              0.0000000000
     10206        88  CHL1      H22B          -13.9231901685      -35.5763924877        7.9711550000  MEMB      88              0.0000000000
     10207        88  CHL1      C23           -14.7649833538      -34.5892435340        6.2171850000  MEMB      88              0.0000000000
     10208        88  CHL1      H23A          -15.0910851679      -35.4902414656        5.6548850000  MEMB      88              0.0000000000
     10209        88  CHL1      H23B          -15.3614218292      -33.6737475886        6.0160750000  MEMB      88              0.0000000000
     10210        88  CHL1      C24           -13.4114624053      -34.2343542144        5.6016150000  MEMB      88              0.0000000000
     10211        88  CHL1      H24A          -12.7813228800      -33.5990114251        6.2600950000  MEMB      88              0.0000000000
     10212        88  CHL1      H24B          -12.8156871525      -35.1457690036        5.3809750000  MEMB      88              0.0000000000
     10213        88  CHL1      C25           -13.5770510924      -33.4658245866        4.2993250000  MEMB      88              0.0000000000
     10214        88  CHL1      H25           -14.2163262941      -32.5660229644        4.4258450000  MEMB      88              0.0000000000
     10215        88  CHL1      C26           -12.3020339978      -33.0796996156        3.6354750000  MEMB      88              0.0000000000
     10216        88  CHL1      H26A          -11.5597495533      -33.9041530912        3.5753250000  MEMB      88              0.0000000000
     10217        88  CHL1      H26B          -12.4398177793      -32.6801318922        2.6080150000  MEMB      88              0.0000000000
     10218        88  CHL1      H26C          -11.7669726127      -32.3064508737        4.2271650000  MEMB      88              0.0000000000
     10219        88  CHL1      C27           -14.3526835166      -34.2520643145        3.1657950000  MEMB      88              0.0000000000
     10220        88  CHL1      H27A          -14.8526342668      -33.5115818286        2.5054550000  MEMB      88              0.0000000000
     10221        88  CHL1      H27B          -13.6668128895      -34.8541173375        2.5322150000  MEMB      88              0.0000000000
     10222        88  CHL1      H27C          -15.1145335238      -34.9561332813        3.5635250000  MEMB      88              0.0000000000
     10223        89  SAPE      N              34.7982412585      -28.8166120864       19.3113310347  MEMB      89              0.0000000000
     10224        89  SAPE      HN1            35.3425913814      -29.1403233165       18.4864103451  MEMB      89              0.0000000000
     10225        89  SAPE      HN2            34.9533860078      -27.8261373561       19.5878992428  MEMB      89              0.0000000000
     10226        89  SAPE      HN3            35.0739156565      -29.3958637134       20.1299097884  MEMB      89              0.0000000000
     10227        89  SAPE      C12            33.3416404507      -28.8866497144       18.8861179942  MEMB      89              0.0000000000
     10228        89  SAPE      H12A           33.2382947726      -29.8377220328       18.3212267023  MEMB      89              0.0000000000
     10229        89  SAPE      H12B           33.1340745551      -28.0490690169       18.1863352123  MEMB      89              0.0000000000
     10230        89  SAPE      C11            32.4270827890      -28.8032184817       20.1037825331  MEMB      89              0.0000000000
     10231        89  SAPE      H11A           32.5576926018      -27.8002319892       20.5634347755  MEMB      89              0.0000000000
     10232        89  SAPE      H11B           32.7719732462      -29.5992064104       20.7978824995  MEMB      89              0.0000000000
     10233        89  SAPE      P              30.1946174414      -30.0705407704       20.3639398593  MEMB      89              0.0000000000
     10234        89  SAPE      O13            30.6998836824      -30.2332941391       21.7563831325  MEMB      89              0.0000000000
     10235        89  SAPE      O14            28.7498923484      -29.6866524671       20.2688518717  MEMB      89              0.0000000000
     10236        89  SAPE      O12            31.0462707581      -28.9112830358       19.7245746105  MEMB      89              0.0000000000
     10237        89  SAPE      O11            30.5275944751      -31.3648317058       19.5850189628  MEMB      89              0.0000000000
     10238        89  SAPE      C1             29.7965387222      -31.6425913978       18.3698591863  MEMB      89              0.0000000000
     10239        89  SAPE      HA             28.7899667806      -32.0602701045       18.5859109660  MEMB      89              0.0000000000
     10240        89  SAPE      HB             29.6489038252      -30.6954269479       17.8082504255  MEMB      89              0.0000000000
     10241        89  SAPE      C2             30.5352794817      -32.6781995494       17.5608896883  MEMB      89              0.0000000000
     10242        89  SAPE      HS             30.7418582720      -33.5659289436       18.1961712121  MEMB      89              0.0000000000
     10243        89  SAPE      O21            31.8012546338      -32.0296246429       17.1226454386  MEMB      89              0.0000000000
     10244        89  SAPE      C21            32.8754725047      -32.7104573139       16.9295663657  MEMB      89              0.0000000000
     10245        89  SAPE      O22            33.1239169906      -33.8445016114       17.2754139169  MEMB      89              0.0000000000
     10246        89  SAPE      C22            33.8745855239      -31.7762516429       16.2023507715  MEMB      89              0.0000000000
     10247        89  SAPE      H2R            33.3428149184      -30.8262283859       15.9809992513  MEMB      89              0.0000000000
     10248        89  SAPE      H2S            34.6471602302      -31.6071871245       16.9826496941  MEMB      89              0.0000000000
     10249        89  SAPE      C3             29.6942244956      -33.1076595629       16.2811978392  MEMB      89              0.0000000000
     10250        89  SAPE      HX             28.7643574210      -33.6482668703       16.5594275674  MEMB      89              0.0000000000
     10251        89  SAPE      HY             30.3405689887      -33.7974343009       15.6974421271  MEMB      89              0.0000000000
     10252        89  SAPE      O31            29.3849226967      -31.9663117714       15.4242394375  MEMB      89              0.0000000000
     10253        89  SAPE      C31            28.1025724473      -31.6292584308       15.2612627928  MEMB      89              0.0000000000
     10254        89  SAPE      O32            27.1652521067      -32.1787975801       15.6851080093  MEMB      89              0.0000000000
     10255        89  SAPE      C32            27.9357118464      -30.3316035039       14.4274834953  MEMB      89              0.0000000000
     10256        89  SAPE      H2X            28.0904535924      -29.5102680460       15.1594559060  MEMB      89              0.0000000000
     10257        89  SAPE      H2Y            26.8791419097      -30.3667958869       14.0858080603  MEMB      89              0.0000000000
     10258        89  SAPE      C23            34.4680221276      -32.5349907155       14.9711464051  MEMB      89              0.0000000000
     10259        89  SAPE      H3R            33.5178011467      -32.9419831066       14.5640128588  MEMB      89              0.0000000000
     10260        89  SAPE      H3S            35.0479084448      -33.4030277753       15.3513632832  MEMB      89              0.0000000000
     10261        89  SAPE      C24            35.2789836190      -31.7710090636       13.9130659417  MEMB      89              0.0000000000
     10262        89  SAPE      H4R            35.2091043236      -32.4133017809       13.0092417271  MEMB      89              0.0000000000
     10263        89  SAPE      H4S            36.3463849965      -31.7580480267       14.2209741235  MEMB      89              0.0000000000
     10264        89  SAPE      C25            34.7346515807      -30.3620221106       13.7791443023  MEMB      89              0.0000000000
     10265        89  SAPE      H5R            34.7733934440      -29.7520667710       14.6937225340  MEMB      89              0.0000000000
     10266        89  SAPE      C26            34.3594976636      -29.7435983265       12.6414291021  MEMB      89              0.0000000000
     10267        89  SAPE      H6R            33.8946296619      -28.7530174718       12.7538892310  MEMB      89              0.0000000000
     10268        89  SAPE      C27            34.4198729106      -30.4433540436       11.3004073120  MEMB      89              0.0000000000
     10269        89  SAPE      H7R            35.1626520772      -31.2694461657       11.3135269235  MEMB      89              0.0000000000
     10270        89  SAPE      H7S            34.8716220377      -29.8546648145       10.4735533572  MEMB      89              0.0000000000
     10271        89  SAPE      C28            33.0789123372      -31.0053560952       10.8329403986  MEMB      89              0.0000000000
     10272        89  SAPE      H8R            32.5610326303      -31.7646954977       11.4372613231  MEMB      89              0.0000000000
     10273        89  SAPE      C29            32.5505616116      -30.6482085490        9.6297164632  MEMB      89              0.0000000000
     10274        89  SAPE      H9R            31.7529773616      -31.3243877787        9.2881886576  MEMB      89              0.0000000000
     10275        89  SAPE      C210           33.0409344854      -29.6522756099        8.5886095395  MEMB      89              0.0000000000
     10276        89  SAPE      H10R           32.5464739074      -29.9799933248        7.6492320869  MEMB      89              0.0000000000
     10277        89  SAPE      H10S           34.1184238323      -29.8508811697        8.4045078157  MEMB      89              0.0000000000
     10278        89  SAPE      C211           32.7528798457      -28.2682745546        9.0588387825  MEMB      89              0.0000000000
     10279        89  SAPE      H11R           32.7400007183      -28.0559914035       10.1380837536  MEMB      89              0.0000000000
     10280        89  SAPE      C212           32.5843089559      -27.2640642587        8.2169085655  MEMB      89              0.0000000000
     10281        89  SAPE      H12R           32.4166598527      -26.2178278353        8.5123447534  MEMB      89              0.0000000000
     10282        89  SAPE      C213           32.7127341607      -27.2462282033        6.7203704207  MEMB      89              0.0000000000
     10283        89  SAPE      H13R           33.7514129907      -27.4879315900        6.4088469108  MEMB      89              0.0000000000
     10284        89  SAPE      H13S           32.5332015334      -26.1992935978        6.3947673800  MEMB      89              0.0000000000
     10285        89  SAPE      C214           31.8534094761      -28.1881763745        6.0006854996  MEMB      89              0.0000000000
     10286        89  SAPE      H14R           30.7828805371      -28.1609487653        6.2521340333  MEMB      89              0.0000000000
     10287        89  SAPE      C215           32.1088693645      -28.9561996371        4.9567890769  MEMB      89              0.0000000000
     10288        89  SAPE      H15R           31.3032778651      -29.6368874236        4.6442409971  MEMB      89              0.0000000000
     10289        89  SAPE      C216           33.3722096098      -29.1688638208        4.1486131568  MEMB      89              0.0000000000
     10290        89  SAPE      H16R           34.0450350904      -28.2888635704        4.0636023459  MEMB      89              0.0000000000
     10291        89  SAPE      H16S           33.2029583382      -29.5955307574        3.1368668756  MEMB      89              0.0000000000
     10292        89  SAPE      C217           34.2157375680      -30.2283165596        4.8010372336  MEMB      89              0.0000000000
     10293        89  SAPE      H17R           34.4634654387      -29.9051684244        5.8347324641  MEMB      89              0.0000000000
     10294        89  SAPE      H17S           35.1026346801      -30.4697888063        4.1769970661  MEMB      89              0.0000000000
     10295        89  SAPE      C218           33.5510757549      -31.6330556862        5.0791076333  MEMB      89              0.0000000000
     10296        89  SAPE      H18R           32.6116726899      -31.4719429937        5.6499718329  MEMB      89              0.0000000000
     10297        89  SAPE      H18S           34.4272539088      -32.1354102579        5.5420035380  MEMB      89              0.0000000000
     10298        89  SAPE      C219           33.1189603810      -32.5766905334        3.8998615218  MEMB      89              0.0000000000
     10299        89  SAPE      H19R           32.2580003728      -32.1733841529        3.3250476769  MEMB      89              0.0000000000
     10300        89  SAPE      H19S           32.8177605790      -33.5192092276        4.4050931163  MEMB      89              0.0000000000
     10301        89  SAPE      C220           34.2346862691      -32.7944910767        2.9757896520  MEMB      89              0.0000000000
     10302        89  SAPE      H20R           35.2062979663      -33.0163349066        3.4667851638  MEMB      89              0.0000000000
     10303        89  SAPE      H20S           34.5539016996      -32.1056868575        2.1646353488  MEMB      89              0.0000000000
     10304        89  SAPE      H20T           33.9336294421      -33.7132731657        2.4285013998  MEMB      89              0.0000000000
     10305        89  SAPE      C33            28.8920900265      -30.2110754547       13.2838791181  MEMB      89              0.0000000000
     10306        89  SAPE      H3X            28.7619228401      -30.9768102696       12.4895063013  MEMB      89              0.0000000000
     10307        89  SAPE      H3Y            29.9207942682      -30.3272293445       13.6871121691  MEMB      89              0.0000000000
     10308        89  SAPE      C34            28.8150641109      -28.8484513319       12.5953604485  MEMB      89              0.0000000000
     10309        89  SAPE      H4X            29.1541046324      -28.0355977254       13.2725910200  MEMB      89              0.0000000000
     10310        89  SAPE      H4Y            27.7746190555      -28.5254588334       12.3774821514  MEMB      89              0.0000000000
     10311        89  SAPE      C35            29.6474306890      -28.7277768028       11.2366280364  MEMB      89              0.0000000000
     10312        89  SAPE      H5X            30.7231139838      -28.9993636645       11.2955089426  MEMB      89              0.0000000000
     10313        89  SAPE      H5Y            29.7000971598      -27.6448355405       10.9941704580  MEMB      89              0.0000000000
     10314        89  SAPE      C36            29.0176778379      -29.4552141595       10.1135428770  MEMB      89              0.0000000000
     10315        89  SAPE      H6X            28.9161117865      -30.5405439337       10.3281699645  MEMB      89              0.0000000000
     10316        89  SAPE      H6Y            29.6919820225      -29.3181300782        9.2412805144  MEMB      89              0.0000000000
     10317        89  SAPE      C37            27.5419738110      -29.0622833233        9.8557640650  MEMB      89              0.0000000000
     10318        89  SAPE      H7X            27.6570583148      -27.9737131078        9.6657872236  MEMB      89              0.0000000000
     10319        89  SAPE      H7Y            26.8868363680      -29.1683212151       10.7467593176  MEMB      89              0.0000000000
     10320        89  SAPE      C38            26.9379894400      -29.7103203004        8.6377373606  MEMB      89              0.0000000000
     10321        89  SAPE      H8X            25.8823546059      -29.3789193950        8.5370914682  MEMB      89              0.0000000000
     10322        89  SAPE      H8Y            27.0611028100      -30.8082737759        8.7546231801  MEMB      89              0.0000000000
     10323        89  SAPE      C39            27.5915167802      -29.3395119100        7.2757698625  MEMB      89              0.0000000000
     10324        89  SAPE      H9X            28.6766967130      -29.5776147263        7.2793128426  MEMB      89              0.0000000000
     10325        89  SAPE      H9Y            27.6107163293      -28.2583501853        7.0207370705  MEMB      89              0.0000000000
     10326        89  SAPE      C310           26.9983921418      -30.1653825684        6.0739053998  MEMB      89              0.0000000000
     10327        89  SAPE      H10X           25.9502635956      -29.8423294393        5.8967492633  MEMB      89              0.0000000000
     10328        89  SAPE      H10Y           26.9440212432      -31.2505388842        6.3058548485  MEMB      89              0.0000000000
     10329        89  SAPE      C311           27.7374283934      -29.9331788147        4.8147186568  MEMB      89              0.0000000000
     10330        89  SAPE      H11X           28.6647269247      -30.5400800341        4.7365552448  MEMB      89              0.0000000000
     10331        89  SAPE      H11Y           28.0402021869      -28.8757885399        4.6579548938  MEMB      89              0.0000000000
     10332        89  SAPE      C312           26.9831182094      -30.4745501728        3.4930575460  MEMB      89              0.0000000000
     10333        89  SAPE      H12X           26.0855886625      -29.8630371477        3.2589340953  MEMB      89              0.0000000000
     10334        89  SAPE      H12Y           26.6343990844      -31.4996493662        3.7418289934  MEMB      89              0.0000000000
     10335        89  SAPE      C313           28.0061283413      -30.5055128152        2.3842903194  MEMB      89              0.0000000000
     10336        89  SAPE      H13X           29.0365636938      -30.7587837087        2.7134986345  MEMB      89              0.0000000000
     10337        89  SAPE      H13Y           28.0625155050      -29.4959442692        1.9239514931  MEMB      89              0.0000000000
     10338        89  SAPE      C314           27.6775027339      -31.4603336644        1.1761065157  MEMB      89              0.0000000000
     10339        89  SAPE      H14X           26.6994659847      -31.0606526348        0.8325665009  MEMB      89              0.0000000000
     10340        89  SAPE      H14Y           27.4819920543      -32.4620163213        1.6151154203  MEMB      89              0.0000000000
     10341        89  SAPE      C315           28.6436580376      -31.5467724667        0.0219484996  MEMB      89              0.0000000000
     10342        89  SAPE      H15X           29.5894709584      -31.9712174536        0.4214564367  MEMB      89              0.0000000000
     10343        89  SAPE      H15Y           28.8601130262      -30.4791187609       -0.1961881496  MEMB      89              0.0000000000
     10344        89  SAPE      C316           28.1546476537      -32.2879217117       -1.1897191170  MEMB      89              0.0000000000
     10345        89  SAPE      H16X           27.0784263487      -32.0593335421       -1.3440439180  MEMB      89              0.0000000000
     10346        89  SAPE      H16Y           28.1255469658      -33.3836315520       -1.0083517991  MEMB      89              0.0000000000
     10347        89  SAPE      C317           28.9238311423      -32.0443123145       -2.4823386777  MEMB      89              0.0000000000
     10348        89  SAPE      H17X           29.0004404406      -30.9481232189       -2.6461116486  MEMB      89              0.0000000000
     10349        89  SAPE      H17Y           28.3833893783      -32.5697356028       -3.2985333011  MEMB      89              0.0000000000
     10350        89  SAPE      C318           30.4408842194      -32.5670680580       -2.4707213465  MEMB      89              0.0000000000
     10351        89  SAPE      H18X           30.7343071852      -32.7117600251       -3.5324604879  MEMB      89              0.0000000000
     10352        89  SAPE      H18Y           30.4876685938      -33.5720454995       -1.9993911748  MEMB      89              0.0000000000
     10353        89  SAPE      H18Z           31.1332160969      -31.8685859295       -1.9538855905  MEMB      89              0.0000000000
     10354        90  SAPS      N              38.3409923444       23.9807213188       20.5188310745  MEMB      90              0.0000000000
     10355        90  SAPS      HN1            38.4682107199       23.4360815611       19.6420283275  MEMB      90              0.0000000000
     10356        90  SAPS      HN2            38.3264692877       24.9295171530       20.0931838388  MEMB      90              0.0000000000
     10357        90  SAPS      HN3            39.1378418447       23.8673646421       21.1774515999  MEMB      90              0.0000000000
     10358        90  SAPS      C12            37.0655334343       23.8633703777       21.1443415504  MEMB      90              0.0000000000
     10359        90  SAPS      H12A           37.0962119910       22.8949258011       21.6213885921  MEMB      90              0.0000000000
     10360        90  SAPS      C13            36.6747196363       24.9961777735       22.1240926304  MEMB      90              0.0000000000
     10361        90  SAPS      O13A           37.2177692916       26.1730477741       22.1303930946  MEMB      90              0.0000000000
     10362        90  SAPS      O13B           35.8925616679       24.6760463648       23.0291282838  MEMB      90              0.0000000000
     10363        90  SAPS      C11            35.8936075365       23.8311218818       20.0998095861  MEMB      90              0.0000000000
     10364        90  SAPS      H11A           36.0936676973       24.6342858387       19.3587127435  MEMB      90              0.0000000000
     10365        90  SAPS      H11B           34.9281923242       24.0681757887       20.5958940935  MEMB      90              0.0000000000
     10366        90  SAPS      P              36.4631861452       22.1413985128       18.1692796335  MEMB      90              0.0000000000
     10367        90  SAPS      O13            37.5011756060       21.1397532123       18.5565220069  MEMB      90              0.0000000000
     10368        90  SAPS      O14            35.5330051805       21.7170816260       17.0754987917  MEMB      90              0.0000000000
     10369        90  SAPS      O12            35.7004361004       22.5606303887       19.4457608646  MEMB      90              0.0000000000
     10370        90  SAPS      O11            37.3138143553       23.4468527577       17.7063425280  MEMB      90              0.0000000000
     10371        90  SAPS      C1             38.6882373667       23.4638717115       17.3634020774  MEMB      90              0.0000000000
     10372        90  SAPS      HA             39.2543576461       23.2848222480       18.3024281963  MEMB      90              0.0000000000
     10373        90  SAPS      HB             38.8678548583       22.6253001234       16.6571042969  MEMB      90              0.0000000000
     10374        90  SAPS      C2             39.0793718708       24.8376717493       16.7054767890  MEMB      90              0.0000000000
     10375        90  SAPS      HS             38.7936777067       25.5501080517       17.5086793774  MEMB      90              0.0000000000
     10376        90  SAPS      O21            38.4213165044       25.1118584670       15.4946963687  MEMB      90              0.0000000000
     10377        90  SAPS      C21            37.2774066395       25.7402970088       15.4908785464  MEMB      90              0.0000000000
     10378        90  SAPS      O22            36.7194769836       26.1980810023       16.4929025525  MEMB      90              0.0000000000
     10379        90  SAPS      C22            36.6434247071       25.9333387794       14.1257118903  MEMB      90              0.0000000000
     10380        90  SAPS      H2R            37.4638069837       26.1378570095       13.4049714749  MEMB      90              0.0000000000
     10381        90  SAPS      H2S            36.1298423371       24.9903317722       13.8405939354  MEMB      90              0.0000000000
     10382        90  SAPS      C3             40.6101929347       24.8344516143       16.4374922081  MEMB      90              0.0000000000
     10383        90  SAPS      HX             40.9298036125       24.3193580448       17.3685392058  MEMB      90              0.0000000000
     10384        90  SAPS      HY             41.0187103748       25.8658689360       16.3773830364  MEMB      90              0.0000000000
     10385        90  SAPS      O31            40.9196729778       23.9954240941       15.3305938091  MEMB      90              0.0000000000
     10386        90  SAPS      C31            41.0260333437       24.6554223078       14.1544991124  MEMB      90              0.0000000000
     10387        90  SAPS      O32            40.6870952689       25.8087086591       13.9865426326  MEMB      90              0.0000000000
     10388        90  SAPS      C32            41.6488677199       23.7973449679       13.1257566568  MEMB      90              0.0000000000
     10389        90  SAPS      H2X            42.6361595343       23.4946084583       13.5355457559  MEMB      90              0.0000000000
     10390        90  SAPS      H2Y            41.7560860275       24.3594791031       12.1734800601  MEMB      90              0.0000000000
     10391        90  SAPS      C23            35.5923868550       27.1178200299       14.1102690984  MEMB      90              0.0000000000
     10392        90  SAPS      H3R            35.9805045445       27.9376832274       14.7517594927  MEMB      90              0.0000000000
     10393        90  SAPS      H3S            34.7678675108       26.6819296180       14.7139975584  MEMB      90              0.0000000000
     10394        90  SAPS      C24            35.1158175973       27.7104957902       12.7361656595  MEMB      90              0.0000000000
     10395        90  SAPS      H4R            34.1815574383       28.1207960651       13.1756333158  MEMB      90              0.0000000000
     10396        90  SAPS      H4S            34.8859847373       26.8249929772       12.1057827138  MEMB      90              0.0000000000
     10397        90  SAPS      C25            36.0144724640       28.7914057091       12.1789125703  MEMB      90              0.0000000000
     10398        90  SAPS      H5R            36.1377314515       29.7174892206       12.7595806865  MEMB      90              0.0000000000
     10399        90  SAPS      C26            36.7731292237       28.6309877595       11.0799281274  MEMB      90              0.0000000000
     10400        90  SAPS      H6R            37.3031757265       29.5261819851       10.7226082501  MEMB      90              0.0000000000
     10401        90  SAPS      C27            36.8661177646       27.4398204745       10.2340718671  MEMB      90              0.0000000000
     10402        90  SAPS      H7R            36.9627462518       27.8511890797        9.2065705443  MEMB      90              0.0000000000
     10403        90  SAPS      H7S            35.9793908497       26.7707653186       10.2541148885  MEMB      90              0.0000000000
     10404        90  SAPS      C28            38.0220317280       26.5498037642       10.6182636231  MEMB      90              0.0000000000
     10405        90  SAPS      H8R            37.7873041036       25.8854008976       11.4629362624  MEMB      90              0.0000000000
     10406        90  SAPS      C29            39.2451032437       26.4586395902       10.0847189053  MEMB      90              0.0000000000
     10407        90  SAPS      H9R            39.8705749280       25.7243820655       10.6135397075  MEMB      90              0.0000000000
     10408        90  SAPS      C210           39.7841753051       27.1528894894        8.9578796204  MEMB      90              0.0000000000
     10409        90  SAPS      H10R           40.6739560773       27.7741591205        9.1958609906  MEMB      90              0.0000000000
     10410        90  SAPS      H10S           39.0135072414       27.7767016081        8.4566306647  MEMB      90              0.0000000000
     10411        90  SAPS      C211           40.2577609966       26.0916803628        7.9838220020  MEMB      90              0.0000000000
     10412        90  SAPS      H11R           41.2994473784       25.7517505332        8.0804517835  MEMB      90              0.0000000000
     10413        90  SAPS      C212           39.5860818830       25.5133008436        6.9752545025  MEMB      90              0.0000000000
     10414        90  SAPS      H12R           40.0457279506       24.6579172549        6.4584912559  MEMB      90              0.0000000000
     10415        90  SAPS      C213           38.1486616124       25.8006468844        6.5897879560  MEMB      90              0.0000000000
     10416        90  SAPS      H13R           37.5938372211       25.5027909414        7.5050869161  MEMB      90              0.0000000000
     10417        90  SAPS      H13S           37.7236488600       25.0627290956        5.8762319398  MEMB      90              0.0000000000
     10418        90  SAPS      C214           37.8190521424       27.2062408382        6.0540673639  MEMB      90              0.0000000000
     10419        90  SAPS      H14R           37.4767985468       27.9162916066        6.8213292616  MEMB      90              0.0000000000
     10420        90  SAPS      C215           37.9422083007       27.6745721508        4.8130755982  MEMB      90              0.0000000000
     10421        90  SAPS      H15R           37.9141449838       28.7650643981        4.6715162819  MEMB      90              0.0000000000
     10422        90  SAPS      C216           38.4467264783       26.9076737533        3.5732855089  MEMB      90              0.0000000000
     10423        90  SAPS      H16R           37.6521214507       26.9755598663        2.7997770192  MEMB      90              0.0000000000
     10424        90  SAPS      H16S           38.4381983200       25.8386681010        3.8757337166  MEMB      90              0.0000000000
     10425        90  SAPS      C217           39.8153554099       27.2873791423        3.0974410271  MEMB      90              0.0000000000
     10426        90  SAPS      H17R           40.5223142620       27.5203374068        3.9222186302  MEMB      90              0.0000000000
     10427        90  SAPS      H17S           39.7296330193       28.3095200591        2.6705905685  MEMB      90              0.0000000000
     10428        90  SAPS      C218           40.4434335871       26.4343492580        2.0421934056  MEMB      90              0.0000000000
     10429        90  SAPS      H18R           40.4956454696       25.3346329101        2.1912521934  MEMB      90              0.0000000000
     10430        90  SAPS      H18S           41.5119011467       26.7086829319        1.9101377855  MEMB      90              0.0000000000
     10431        90  SAPS      C219           39.6297208146       26.6354074467        0.7414522205  MEMB      90              0.0000000000
     10432        90  SAPS      H19R           39.3732610934       27.7109929894        0.6334479990  MEMB      90              0.0000000000
     10433        90  SAPS      H19S           38.6686920449       26.0819052038        0.8076340464  MEMB      90              0.0000000000
     10434        90  SAPS      C220           40.3126647278       26.2184155124       -0.5528667048  MEMB      90              0.0000000000
     10435        90  SAPS      H20R           40.4627223647       25.1234383583       -0.6661303973  MEMB      90              0.0000000000
     10436        90  SAPS      H20S           41.3256987706       26.6698802481       -0.6181580892  MEMB      90              0.0000000000
     10437        90  SAPS      H20T           39.7556849823       26.4697051957       -1.4807395513  MEMB      90              0.0000000000
     10438        90  SAPS      C33            40.8088229316       22.5651993433       12.9277175846  MEMB      90              0.0000000000
     10439        90  SAPS      H3X            40.6637941120       21.9215347684       13.8215760886  MEMB      90              0.0000000000
     10440        90  SAPS      H3Y            41.3643348306       21.9160906311       12.2175165850  MEMB      90              0.0000000000
     10441        90  SAPS      C34            39.3974802184       22.7356827424       12.2996537964  MEMB      90              0.0000000000
     10442        90  SAPS      H4X            39.4957710932       22.8652427217       11.2006204060  MEMB      90              0.0000000000
     10443        90  SAPS      H4Y            38.9973215345       23.5997299886       12.8720318816  MEMB      90              0.0000000000
     10444        90  SAPS      C35            38.5051104173       21.5825317526       12.5342163729  MEMB      90              0.0000000000
     10445        90  SAPS      H5X            38.6158980245       21.2479436789       13.5878281324  MEMB      90              0.0000000000
     10446        90  SAPS      H5Y            38.7150455924       20.7685007562       11.8078542531  MEMB      90              0.0000000000
     10447        90  SAPS      C36            36.9945541417       21.9304707535       12.3505604973  MEMB      90              0.0000000000
     10448        90  SAPS      H6X            36.6391113285       22.5339225336       13.2130147898  MEMB      90              0.0000000000
     10449        90  SAPS      H6Y            36.4624840523       20.9551754319       12.3459499643  MEMB      90              0.0000000000
     10450        90  SAPS      C37            36.6410161826       22.6162885603       10.9861999838  MEMB      90              0.0000000000
     10451        90  SAPS      H7X            37.1079169140       22.1256635189       10.1055124174  MEMB      90              0.0000000000
     10452        90  SAPS      H7Y            37.0911718099       23.6267257784       11.0896289468  MEMB      90              0.0000000000
     10453        90  SAPS      C38            35.1026586123       22.8817817737       10.8052923290  MEMB      90              0.0000000000
     10454        90  SAPS      H8X            34.6006796810       23.3445891930       11.6817325556  MEMB      90              0.0000000000
     10455        90  SAPS      H8Y            34.5533128185       21.9333047735       10.6238216096  MEMB      90              0.0000000000
     10456        90  SAPS      C39            34.8237763877       23.7755918770        9.5582172708  MEMB      90              0.0000000000
     10457        90  SAPS      H9X            35.6206777486       24.4541588097        9.1856363495  MEMB      90              0.0000000000
     10458        90  SAPS      H9Y            34.0653200884       24.4688788087        9.9806133793  MEMB      90              0.0000000000
     10459        90  SAPS      C310           34.2342761600       22.9255711954        8.4562659299  MEMB      90              0.0000000000
     10460        90  SAPS      H10X           33.2383975638       22.6199843127        8.8424819366  MEMB      90              0.0000000000
     10461        90  SAPS      H10Y           34.8982557326       22.0416834309        8.3458366300  MEMB      90              0.0000000000
     10462        90  SAPS      C311           34.1269063952       23.6093664306        7.1149705725  MEMB      90              0.0000000000
     10463        90  SAPS      H11X           34.0585103729       22.9332891175        6.2360150716  MEMB      90              0.0000000000
     10464        90  SAPS      H11Y           35.1268674314       24.0469958078        6.9078972125  MEMB      90              0.0000000000
     10465        90  SAPS      C312           32.9561991430       24.5777741292        7.1577428451  MEMB      90              0.0000000000
     10466        90  SAPS      H12X           32.9805784531       25.2119995911        8.0696011538  MEMB      90              0.0000000000
     10467        90  SAPS      H12Y           31.9377214813       24.1371087908        7.2110158269  MEMB      90              0.0000000000
     10468        90  SAPS      C313           33.0712096885       25.6232404650        6.0217286799  MEMB      90              0.0000000000
     10469        90  SAPS      H13X           34.1227716587       25.9811809993        6.0421515031  MEMB      90              0.0000000000
     10470        90  SAPS      H13Y           32.3929039087       26.4794842731        6.2243828283  MEMB      90              0.0000000000
     10471        90  SAPS      C314           32.5742446530       25.0638217283        4.6016834533  MEMB      90              0.0000000000
     10472        90  SAPS      H14X           31.5141181914       24.7402315607        4.6774623017  MEMB      90              0.0000000000
     10473        90  SAPS      H14Y           33.1295116226       24.1259884138        4.3861175529  MEMB      90              0.0000000000
     10474        90  SAPS      C315           32.6760206195       25.9864935908        3.3635651832  MEMB      90              0.0000000000
     10475        90  SAPS      H15X           32.1529520504       26.9043928103        3.7073397314  MEMB      90              0.0000000000
     10476        90  SAPS      H15Y           31.9625536606       25.6508801375        2.5808448899  MEMB      90              0.0000000000
     10477        90  SAPS      C316           34.0972562553       26.2391724457        2.9283581891  MEMB      90              0.0000000000
     10478        90  SAPS      H16X           34.7364731256       25.3308279848        2.9535241091  MEMB      90              0.0000000000
     10479        90  SAPS      H16Y           34.7241063218       26.8928325878        3.5718702934  MEMB      90              0.0000000000
     10480        90  SAPS      C317           34.1530435575       26.9034443323        1.4738855112  MEMB      90              0.0000000000
     10481        90  SAPS      H17X           35.0282275963       27.5876830522        1.4600510065  MEMB      90              0.0000000000
     10482        90  SAPS      H17Y           33.2923725223       27.6039324933        1.4201914768  MEMB      90              0.0000000000
     10483        90  SAPS      C318           34.0705937295       25.9218878417        0.2796144407  MEMB      90              0.0000000000
     10484        90  SAPS      H18X           33.2219425644       25.2057819254        0.3157367220  MEMB      90              0.0000000000
     10485        90  SAPS      H18Y           35.0495161195       25.4522998790        0.0439891119  MEMB      90              0.0000000000
     10486        90  SAPS      H18Z           33.9313236158       26.5493238128       -0.6266137274  MEMB      90              0.0000000000
     10487        91  SAPS      N              33.2497052996       29.9888621546       22.3743996963  MEMB      91              0.0000000000
     10488        91  SAPS      HN1            32.3783199328       29.4721868777       22.6096319914  MEMB      91              0.0000000000
     10489        91  SAPS      HN2            34.0371178805       29.3397714416       22.1737442118  MEMB      91              0.0000000000
     10490        91  SAPS      HN3            33.5913794552       30.5376275656       23.1890869927  MEMB      91              0.0000000000
     10491        91  SAPS      C12            33.0486344279       30.9420547725       21.2362979327  MEMB      91              0.0000000000
     10492        91  SAPS      H12A           32.2873340102       31.6057140269       21.6188916621  MEMB      91              0.0000000000
     10493        91  SAPS      C13            34.3334131102       31.7525025933       20.8887442626  MEMB      91              0.0000000000
     10494        91  SAPS      O13A           35.4030002828       31.4816921748       21.4751072021  MEMB      91              0.0000000000
     10495        91  SAPS      O13B           34.1489607384       32.7644738349       20.1310945036  MEMB      91              0.0000000000
     10496        91  SAPS      C11            32.6362814871       30.2218313359       19.9289227911  MEMB      91              0.0000000000
     10497        91  SAPS      H11A           33.5298221818       29.5974975576       19.7141824021  MEMB      91              0.0000000000
     10498        91  SAPS      H11B           32.5721354028       30.9468782408       19.0895699136  MEMB      91              0.0000000000
     10499        91  SAPS      P              30.7397868528       28.9207020069       18.7851659770  MEMB      91              0.0000000000
     10500        91  SAPS      O13            31.6987894445       28.1507714608       17.9531008572  MEMB      91              0.0000000000
     10501        91  SAPS      O14            29.5154171339       28.1710964018       19.1339636311  MEMB      91              0.0000000000
     10502        91  SAPS      O12            31.5306076831       29.4251919636       20.1107870453  MEMB      91              0.0000000000
     10503        91  SAPS      O11            30.3003632402       30.2083512194       17.9824160666  MEMB      91              0.0000000000
     10504        91  SAPS      C1             29.6204185780       31.2395020678       18.5917155426  MEMB      91              0.0000000000
     10505        91  SAPS      HA             28.6282125995       30.8622306282       18.9196098193  MEMB      91              0.0000000000
     10506        91  SAPS      HB             30.1617988132       31.6385806870       19.4760031589  MEMB      91              0.0000000000
     10507        91  SAPS      C2             29.4999491287       32.3679141939       17.5422986231  MEMB      91              0.0000000000
     10508        91  SAPS      HS             28.7383669244       33.0839640399       17.9185777811  MEMB      91              0.0000000000
     10509        91  SAPS      O21            29.1732012436       31.8130055796       16.1940551210  MEMB      91              0.0000000000
     10510        91  SAPS      C21            28.7721144567       32.6961856073       15.2961196648  MEMB      91              0.0000000000
     10511        91  SAPS      O22            28.6847681320       33.9031954056       15.4013571482  MEMB      91              0.0000000000
     10512        91  SAPS      C22            28.3410091493       32.1034574832       13.9838571918  MEMB      91              0.0000000000
     10513        91  SAPS      H2R            28.1151064900       31.0202523076       14.0836358805  MEMB      91              0.0000000000
     10514        91  SAPS      H2S            27.4057139947       32.5278623567       13.5602723187  MEMB      91              0.0000000000
     10515        91  SAPS      C3             30.8048227310       33.2194395184       17.4228220169  MEMB      91              0.0000000000
     10516        91  SAPS      HX             31.1421145996       33.5726954512       18.4207025403  MEMB      91              0.0000000000
     10517        91  SAPS      HY             30.6662023152       34.1953234076       16.9102249284  MEMB      91              0.0000000000
     10518        91  SAPS      O31            31.8060041702       32.3929240282       16.8827211311  MEMB      91              0.0000000000
     10519        91  SAPS      C31            32.5470230254       32.8588654750       15.8609688868  MEMB      91              0.0000000000
     10520        91  SAPS      O32            32.4579914359       33.8907422291       15.2860141075  MEMB      91              0.0000000000
     10521        91  SAPS      C32            33.5114502108       31.8475837379       15.5377729063  MEMB      91              0.0000000000
     10522        91  SAPS      H2X            33.0149722705       30.8541689564       15.5687184846  MEMB      91              0.0000000000
     10523        91  SAPS      H2Y            34.2956557858       31.8378042924       16.3246952159  MEMB      91              0.0000000000
     10524        91  SAPS      C23            29.5662443512       32.3255525635       13.0069162403  MEMB      91              0.0000000000
     10525        91  SAPS      H3R            30.3483688213       31.6447792027       13.4058525481  MEMB      91              0.0000000000
     10526        91  SAPS      H3S            29.9587272659       33.3593233265       13.1146021571  MEMB      91              0.0000000000
     10527        91  SAPS      C24            29.2779089721       31.8778512459       11.5431317822  MEMB      91              0.0000000000
     10528        91  SAPS      H4R            28.8753043806       30.8424114930       11.5333890733  MEMB      91              0.0000000000
     10529        91  SAPS      H4S            30.1829708656       31.7959143643       10.9040149773  MEMB      91              0.0000000000
     10530        91  SAPS      C25            28.0666397230       32.6526352417       10.9983497851  MEMB      91              0.0000000000
     10531        91  SAPS      H5R            27.0933936921       32.5770007157       11.5053720228  MEMB      91              0.0000000000
     10532        91  SAPS      C26            28.1214177461       33.4654328118        9.9432619561  MEMB      91              0.0000000000
     10533        91  SAPS      H6R            27.1424927146       33.7956730772        9.5655762367  MEMB      91              0.0000000000
     10534        91  SAPS      C27            29.1926311321       33.8744917926        9.0418716259  MEMB      91              0.0000000000
     10535        91  SAPS      H7R            28.9099901643       33.8199210019        7.9688116243  MEMB      91              0.0000000000
     10536        91  SAPS      H7S            30.0291934765       33.1551751285        9.1725150716  MEMB      91              0.0000000000
     10537        91  SAPS      C28            29.5797480313       35.2559829531        9.4116490365  MEMB      91              0.0000000000
     10538        91  SAPS      H8R            28.9257370320       36.0634594425        9.0507468962  MEMB      91              0.0000000000
     10539        91  SAPS      C29            30.6376458403       35.6896934812       10.1929313718  MEMB      91              0.0000000000
     10540        91  SAPS      H9R            30.8257878891       36.7722938228       10.2437121513  MEMB      91              0.0000000000
     10541        91  SAPS      C210           31.6685138474       34.8638134244       10.8161240977  MEMB      91              0.0000000000
     10542        91  SAPS      H10R           31.4384068687       33.7958869988       10.6138741734  MEMB      91              0.0000000000
     10543        91  SAPS      H10S           31.6501949902       35.0550467902       11.9103890728  MEMB      91              0.0000000000
     10544        91  SAPS      C211           33.0525001332       35.2399004669       10.3746903394  MEMB      91              0.0000000000
     10545        91  SAPS      H11R           33.2568572466       36.3207458515       10.3712436457  MEMB      91              0.0000000000
     10546        91  SAPS      C212           34.1180061807       34.4180703586       10.1122282493  MEMB      91              0.0000000000
     10547        91  SAPS      H12R           34.9985395590       34.7235367109        9.5279753829  MEMB      91              0.0000000000
     10548        91  SAPS      C213           34.0730108136       32.8760925525       10.2962088284  MEMB      91              0.0000000000
     10549        91  SAPS      H13R           33.0438903653       32.5916440486       10.6033264591  MEMB      91              0.0000000000
     10550        91  SAPS      H13S           34.7623975792       32.5386342632       11.0994456632  MEMB      91              0.0000000000
     10551        91  SAPS      C214           34.5512112623       32.1941158641        9.0551289202  MEMB      91              0.0000000000
     10552        91  SAPS      H14R           35.6083001789       31.9796680406        9.2709397804  MEMB      91              0.0000000000
     10553        91  SAPS      C215           33.9216104179       31.8560499468        7.9158043811  MEMB      91              0.0000000000
     10554        91  SAPS      H15R           34.5617499904       31.4612990829        7.1130634409  MEMB      91              0.0000000000
     10555        91  SAPS      C216           32.4850576422       32.0943765954        7.5414821643  MEMB      91              0.0000000000
     10556        91  SAPS      H16R           31.7343065299       32.3189375357        8.3290517432  MEMB      91              0.0000000000
     10557        91  SAPS      H16S           32.1213901658       31.1683655113        7.0469413845  MEMB      91              0.0000000000
     10558        91  SAPS      C217           32.2568795324       33.2206322021        6.4297408179  MEMB      91              0.0000000000
     10559        91  SAPS      H17R           32.8369188010       34.1532387654        6.5974324129  MEMB      91              0.0000000000
     10560        91  SAPS      H17S           31.2094718323       33.5527899751        6.2656402429  MEMB      91              0.0000000000
     10561        91  SAPS      C218           32.8836718607       32.9403436609        4.9893972801  MEMB      91              0.0000000000
     10562        91  SAPS      H18R           32.7099696931       31.9218080544        4.5810670058  MEMB      91              0.0000000000
     10563        91  SAPS      H18S           33.9920714852       32.9982458368        4.9402198047  MEMB      91              0.0000000000
     10564        91  SAPS      C219           32.3516649271       34.0249517329        3.9287677455  MEMB      91              0.0000000000
     10565        91  SAPS      H19R           32.9152360412       34.9562024241        4.1512109078  MEMB      91              0.0000000000
     10566        91  SAPS      H19S           31.2648052030       34.2332398729        4.0271185899  MEMB      91              0.0000000000
     10567        91  SAPS      C220           32.5681100526       33.4662801889        2.5217735991  MEMB      91              0.0000000000
     10568        91  SAPS      H20R           31.8657685602       32.6296720084        2.3189823503  MEMB      91              0.0000000000
     10569        91  SAPS      H20S           33.5897014069       33.0511676775        2.3863001450  MEMB      91              0.0000000000
     10570        91  SAPS      H20T           32.5109911057       34.2608526341        1.7473607389  MEMB      91              0.0000000000
     10571        91  SAPS      C33            33.9486135320       32.0475551403       14.0380638017  MEMB      91              0.0000000000
     10572        91  SAPS      H3X            34.3864068739       33.0614498179       13.9169205145  MEMB      91              0.0000000000
     10573        91  SAPS      H3Y            33.0090581823       31.9570867050       13.4520843904  MEMB      91              0.0000000000
     10574        91  SAPS      C34            35.0844349292       31.1603360175       13.5530715369  MEMB      91              0.0000000000
     10575        91  SAPS      H4X            35.7945184168       31.0141163768       14.3949277833  MEMB      91              0.0000000000
     10576        91  SAPS      H4Y            35.6083181828       31.5586532566       12.6579682620  MEMB      91              0.0000000000
     10577        91  SAPS      C35            34.6473126216       29.7812299765       13.1847205450  MEMB      91              0.0000000000
     10578        91  SAPS      H5X            33.9603492342       29.4483967472       13.9919530670  MEMB      91              0.0000000000
     10579        91  SAPS      H5Y            35.4987708556       29.0869328838       13.0195174064  MEMB      91              0.0000000000
     10580        91  SAPS      C36            33.9093725127       29.8067623266       11.8947090144  MEMB      91              0.0000000000
     10581        91  SAPS      H6X            34.5996951091       29.9324805595       11.0333322907  MEMB      91              0.0000000000
     10582        91  SAPS      H6Y            33.2947304513       30.7179623110       11.7326882635  MEMB      91              0.0000000000
     10583        91  SAPS      C37            33.0937849143       28.4919751427       11.8043549819  MEMB      91              0.0000000000
     10584        91  SAPS      H7X            32.3231629592       28.4997499957       12.6046064349  MEMB      91              0.0000000000
     10585        91  SAPS      H7Y            33.7888683131       27.6517525512       12.0169725503  MEMB      91              0.0000000000
     10586        91  SAPS      C38            32.4849647380       28.2445112404       10.4267179877  MEMB      91              0.0000000000
     10587        91  SAPS      H8X            32.2110301307       27.1703689282       10.5008770134  MEMB      91              0.0000000000
     10588        91  SAPS      H8Y            33.2314856685       28.4114293049        9.6210097447  MEMB      91              0.0000000000
     10589        91  SAPS      C39            31.2326139755       29.1081359923       10.1676896657  MEMB      91              0.0000000000
     10590        91  SAPS      H9X            31.4915267288       30.1858962497       10.0920744815  MEMB      91              0.0000000000
     10591        91  SAPS      H9Y            30.5892585240       28.9007937150       11.0494059663  MEMB      91              0.0000000000
     10592        91  SAPS      C310           30.5936019035       28.7027693525        8.7980129938  MEMB      91              0.0000000000
     10593        91  SAPS      H10X           30.2586525784       27.6594747234        8.9814963847  MEMB      91              0.0000000000
     10594        91  SAPS      H10Y           31.3272699403       28.5578765419        7.9763932536  MEMB      91              0.0000000000
     10595        91  SAPS      C311           29.3398058354       29.4808285422        8.1939001353  MEMB      91              0.0000000000
     10596        91  SAPS      H11X           29.6001437651       30.5577470224        8.2763099314  MEMB      91              0.0000000000
     10597        91  SAPS      H11Y           28.4649976267       29.3859422998        8.8721539695  MEMB      91              0.0000000000
     10598        91  SAPS      C312           29.0531964023       28.9609162313        6.8199297395  MEMB      91              0.0000000000
     10599        91  SAPS      H12X           28.9516278622       27.8589513622        6.9183031668  MEMB      91              0.0000000000
     10600        91  SAPS      H12Y           29.8675842747       29.2989802791        6.1440548242  MEMB      91              0.0000000000
     10601        91  SAPS      C313           27.7098407809       29.4973819649        6.2192705213  MEMB      91              0.0000000000
     10602        91  SAPS      H13X           26.8880731770       29.2674208449        6.9307039123  MEMB      91              0.0000000000
     10603        91  SAPS      H13Y           27.5152336528       28.9447108946        5.2753409113  MEMB      91              0.0000000000
     10604        91  SAPS      C314           27.6086436302       31.0421148107        5.9441774807  MEMB      91              0.0000000000
     10605        91  SAPS      H14X           27.9099459093       31.5171820901        6.9022216109  MEMB      91              0.0000000000
     10606        91  SAPS      H14Y           26.6700570657       31.3995662876        5.4691987011  MEMB      91              0.0000000000
     10607        91  SAPS      C315           28.7342313893       31.5938453898        5.0340171687  MEMB      91              0.0000000000
     10608        91  SAPS      H15X           28.7409712394       30.9885521512        4.1024075938  MEMB      91              0.0000000000
     10609        91  SAPS      H15Y           29.7269244086       31.5052093563        5.5249598573  MEMB      91              0.0000000000
     10610        91  SAPS      C316           28.5124572542       33.1143668976        4.8675478826  MEMB      91              0.0000000000
     10611        91  SAPS      H16X           29.4749435757       33.6653027542        4.8011348590  MEMB      91              0.0000000000
     10612        91  SAPS      H16Y           28.1048543760       33.5396187069        5.8095359675  MEMB      91              0.0000000000
     10613        91  SAPS      C317           27.7633116898       33.5036339587        3.5477393411  MEMB      91              0.0000000000
     10614        91  SAPS      H17X           26.9673609276       32.7334748007        3.4603411628  MEMB      91              0.0000000000
     10615        91  SAPS      H17Y           28.4707835201       33.5486799780        2.6923005832  MEMB      91              0.0000000000
     10616        91  SAPS      C318           27.0557324572       34.8489639600        3.5431981959  MEMB      91              0.0000000000
     10617        91  SAPS      H18X           27.7095494421       35.6786121388        3.8874781093  MEMB      91              0.0000000000
     10618        91  SAPS      H18Y           26.2243865500       34.9058917537        4.2780079588  MEMB      91              0.0000000000
     10619        91  SAPS      H18Z           26.7176391987       35.2403144902        2.5599081043  MEMB      91              0.0000000000
     10620        92  CHL1      C3            -33.8139096103       30.0477050964       17.3245750000  MEMB      92              0.0000000000
     10621        92  CHL1      H3            -33.5586428542       28.9706636987       17.2288750000  MEMB      92              0.0000000000
     10622        92  CHL1      O3            -33.5999603990       30.4167452913       18.6754250000  MEMB      92              0.0000000000
     10623        92  CHL1      H3'           -34.3564771393       30.0845327880       19.1642250000  MEMB      92              0.0000000000
     10624        92  CHL1      C4            -32.8658089564       30.7238462345       16.3673250000  MEMB      92              0.0000000000
     10625        92  CHL1      H4A           -33.0169025438       31.8173164589       16.4930950000  MEMB      92              0.0000000000
     10626        92  CHL1      H4B           -31.8173259800       30.4753022887       16.6379350000  MEMB      92              0.0000000000
     10627        92  CHL1      C5            -33.2183161682       30.3028074119       14.8821350000  MEMB      92              0.0000000000
     10628        92  CHL1      C6            -32.2663874874       29.8010462322       14.0701050000  MEMB      92              0.0000000000
     10629        92  CHL1      H6            -31.2610792044       29.5225344262       14.4191050000  MEMB      92              0.0000000000
     10630        92  CHL1      C7            -32.4716392728       29.5579269694       12.6123950000  MEMB      92              0.0000000000
     10631        92  CHL1      H7A           -31.5083382817       29.6421027777       12.0653350000  MEMB      92              0.0000000000
     10632        92  CHL1      H7B           -32.9101322449       28.5379171429       12.5721150000  MEMB      92              0.0000000000
     10633        92  CHL1      C8            -33.6063101328       30.4386343887       12.0926150000  MEMB      92              0.0000000000
     10634        92  CHL1      H8            -33.2756957399       31.4946773978       12.1915550000  MEMB      92              0.0000000000
     10635        92  CHL1      C14           -33.9881265555       30.1661609075       10.6385550000  MEMB      92              0.0000000000
     10636        92  CHL1      H14           -34.3442869554       29.1137952385       10.6383650000  MEMB      92              0.0000000000
     10637        92  CHL1      C15           -32.9177742954       30.1672870854        9.4794250000  MEMB      92              0.0000000000
     10638        92  CHL1      H15A          -32.2523864719       31.0520776403        9.5727250000  MEMB      92              0.0000000000
     10639        92  CHL1      H15B          -32.4208073017       29.1910066801        9.2944250000  MEMB      92              0.0000000000
     10640        92  CHL1      C16           -33.7731119922       30.4206891213        8.1878150000  MEMB      92              0.0000000000
     10641        92  CHL1      H16A          -33.4183199552       31.4025777615        7.8079050000  MEMB      92              0.0000000000
     10642        92  CHL1      H16B          -33.5632442721       29.5752873266        7.4982050000  MEMB      92              0.0000000000
     10643        92  CHL1      C17           -35.2580384419       30.5566627660        8.6052950000  MEMB      92              0.0000000000
     10644        92  CHL1      H17           -35.5610731110       29.5059866024        8.8016750000  MEMB      92              0.0000000000
     10645        92  CHL1      C13           -35.2530519368       30.9698700105       10.0842150000  MEMB      92              0.0000000000
     10646        92  CHL1      C18           -34.9784123891       32.4634737148       10.1363850000  MEMB      92              0.0000000000
     10647        92  CHL1      H18A          -35.7669184938       33.0739259439        9.6465450000  MEMB      92              0.0000000000
     10648        92  CHL1      H18B          -34.8607957862       32.8579920862       11.1682950000  MEMB      92              0.0000000000
     10649        92  CHL1      H18C          -34.0078697478       32.5634644718        9.6049850000  MEMB      92              0.0000000000
     10650        92  CHL1      C12           -36.4223083620       30.4742360614       10.9004850000  MEMB      92              0.0000000000
     10651        92  CHL1      H12A          -37.3329115318       30.9889702838       10.5260850000  MEMB      92              0.0000000000
     10652        92  CHL1      H12B          -36.6925986012       29.4126865583       10.7150650000  MEMB      92              0.0000000000
     10653        92  CHL1      C11           -36.2549461960       30.6975423145       12.4078050000  MEMB      92              0.0000000000
     10654        92  CHL1      H11A          -36.3533830413       31.7883373165       12.5943250000  MEMB      92              0.0000000000
     10655        92  CHL1      H11B          -37.0929029210       30.1384067153       12.8763450000  MEMB      92              0.0000000000
     10656        92  CHL1      C9            -34.8850317745       30.1898074751       12.9768950000  MEMB      92              0.0000000000
     10657        92  CHL1      H9            -35.0283631615       29.0889206584       12.9342850000  MEMB      92              0.0000000000
     10658        92  CHL1      C10           -34.6640941348       30.6948074184       14.4423850000  MEMB      92              0.0000000000
     10659        92  CHL1      C19           -34.7371418838       32.2349481868       14.5988950000  MEMB      92              0.0000000000
     10660        92  CHL1      H19A          -34.0112177313       32.8819146938       14.0615050000  MEMB      92              0.0000000000
     10661        92  CHL1      H19B          -35.7598358247       32.5716808679       14.3249850000  MEMB      92              0.0000000000
     10662        92  CHL1      H19C          -34.6431566902       32.5345187068       15.6646150000  MEMB      92              0.0000000000
     10663        92  CHL1      C1            -35.6096093680       29.8956924441       15.3754150000  MEMB      92              0.0000000000
     10664        92  CHL1      H1A           -36.6678359751       30.1562987346       15.1596350000  MEMB      92              0.0000000000
     10665        92  CHL1      H1B           -35.3254114459       28.8454202775       15.1507650000  MEMB      92              0.0000000000
     10666        92  CHL1      C2            -35.3258224364       30.2534100768       16.9124750000  MEMB      92              0.0000000000
     10667        92  CHL1      H2A           -35.8725671329       29.4799112504       17.4930650000  MEMB      92              0.0000000000
     10668        92  CHL1      H2B           -35.6946249785       31.2892534431       17.0716050000  MEMB      92              0.0000000000
     10669        92  CHL1      C20           -36.1176504790       31.1718685286        7.4671250000  MEMB      92              0.0000000000
     10670        92  CHL1      H20           -35.6003049084       32.1251576370        7.2264850000  MEMB      92              0.0000000000
     10671        92  CHL1      C21           -37.5490144114       31.4614190285        7.9528650000  MEMB      92              0.0000000000
     10672        92  CHL1      H21A          -37.6511884381       32.3196920660        8.6508950000  MEMB      92              0.0000000000
     10673        92  CHL1      H21B          -37.9574382123       30.5586532800        8.4553950000  MEMB      92              0.0000000000
     10674        92  CHL1      H21C          -38.2232198224       31.7768288246        7.1280750000  MEMB      92              0.0000000000
     10675        92  CHL1      C22           -36.1383874971       30.2593317863        6.2594250000  MEMB      92              0.0000000000
     10676        92  CHL1      H22A          -35.2201628750       29.7155891174        5.9503250000  MEMB      92              0.0000000000
     10677        92  CHL1      H22B          -36.8614043251       29.4700729033        6.5571350000  MEMB      92              0.0000000000
     10678        92  CHL1      C23           -36.6176199744       31.0165475186        4.9931050000  MEMB      92              0.0000000000
     10679        92  CHL1      H23A          -36.9053293471       30.2710862599        4.2211950000  MEMB      92              0.0000000000
     10680        92  CHL1      H23B          -37.5046447482       31.6555655020        5.1910150000  MEMB      92              0.0000000000
     10681        92  CHL1      C24           -35.5701638700       31.8846303847        4.3008050000  MEMB      92              0.0000000000
     10682        92  CHL1      H24A          -36.0682841487       32.4491107496        3.4837650000  MEMB      92              0.0000000000
     10683        92  CHL1      H24B          -35.2249948527       32.7359716171        4.9256250000  MEMB      92              0.0000000000
     10684        92  CHL1      C25           -34.4080330504       31.0172688120        3.8396850000  MEMB      92              0.0000000000
     10685        92  CHL1      H25           -33.9932159502       30.2949362361        4.5748650000  MEMB      92              0.0000000000
     10686        92  CHL1      C26           -34.8342352825       30.1800043939        2.6073050000  MEMB      92              0.0000000000
     10687        92  CHL1      H26A          -33.9339628178       29.8069743967        2.0737650000  MEMB      92              0.0000000000
     10688        92  CHL1      H26B          -35.3601074604       29.2566658542        2.9316750000  MEMB      92              0.0000000000
     10689        92  CHL1      H26C          -35.4578202314       30.7643932428        1.8974050000  MEMB      92              0.0000000000
     10690        92  CHL1      C27           -33.2726819833       32.0176299021        3.3543450000  MEMB      92              0.0000000000
     10691        92  CHL1      H27A          -33.5857509612       32.7149402718        2.5480750000  MEMB      92              0.0000000000
     10692        92  CHL1      H27B          -32.8975364452       32.5874858093        4.2311950000  MEMB      92              0.0000000000
     10693        92  CHL1      H27C          -32.4321250368       31.4070948597        2.9606050000  MEMB      92              0.0000000000
     10694        93  CHL1      C3            -33.8091220165      -29.8619732836       17.3263300000  MEMB      93              0.0000000000
     10695        93  CHL1      H3            -34.8256560741      -30.3094352948       17.2989800000  MEMB      93              0.0000000000
     10696        93  CHL1      O3            -33.5130389835      -29.5520831164       18.6736700000  MEMB      93              0.0000000000
     10697        93  CHL1      H3'           -33.3304181446      -28.6101535186       18.7056800000  MEMB      93              0.0000000000
     10698        93  CHL1      C4            -32.9897507291      -30.9772068819       16.7741000000  MEMB      93              0.0000000000
     10699        93  CHL1      H4A           -31.8938230989      -30.9217999161       16.9479100000  MEMB      93              0.0000000000
     10700        93  CHL1      H4B           -33.3451818038      -31.8727883650       17.3272000000  MEMB      93              0.0000000000
     10701        93  CHL1      C5            -33.2004796470      -31.1212986560       15.2706900000  MEMB      93              0.0000000000
     10702        93  CHL1      C6            -33.2613403703      -32.3722845749       14.8063200000  MEMB      93              0.0000000000
     10703        93  CHL1      H6            -33.2087640169      -33.2246413462       15.4996600000  MEMB      93              0.0000000000
     10704        93  CHL1      C7            -33.4609951059      -32.7673778241       13.3316300000  MEMB      93              0.0000000000
     10705        93  CHL1      H7A           -32.6049328550      -33.4195382034       13.0556600000  MEMB      93              0.0000000000
     10706        93  CHL1      H7B           -34.4001858961      -33.3555337637       13.2521900000  MEMB      93              0.0000000000
     10707        93  CHL1      C8            -33.4243631886      -31.4632021509       12.3860100000  MEMB      93              0.0000000000
     10708        93  CHL1      H8            -32.3760199685      -31.1388500048       12.2125800000  MEMB      93              0.0000000000
     10709        93  CHL1      C14           -34.1299648449      -31.7437347236       10.9767500000  MEMB      93              0.0000000000
     10710        93  CHL1      H14           -35.1888641274      -31.9606716768       11.2336100000  MEMB      93              0.0000000000
     10711        93  CHL1      C15           -33.5791712243      -33.0087657739       10.1311300000  MEMB      93              0.0000000000
     10712        93  CHL1      H15A          -32.4754246248      -33.1268953442       10.0851300000  MEMB      93              0.0000000000
     10713        93  CHL1      H15B          -34.1255523487      -33.9140586424       10.4720800000  MEMB      93              0.0000000000
     10714        93  CHL1      C16           -34.0607063824      -32.5411888425        8.7615400000  MEMB      93              0.0000000000
     10715        93  CHL1      H16A          -33.1874991517      -32.3917458218        8.0911000000  MEMB      93              0.0000000000
     10716        93  CHL1      H16B          -34.6127342698      -33.3538668317        8.2427500000  MEMB      93              0.0000000000
     10717        93  CHL1      C17           -34.8179461363      -31.1454933007        8.8366500000  MEMB      93              0.0000000000
     10718        93  CHL1      H17           -35.8778168335      -31.3675975409        9.0849800000  MEMB      93              0.0000000000
     10719        93  CHL1      C13           -34.1123625617      -30.5671810407       10.0357800000  MEMB      93              0.0000000000
     10720        93  CHL1      C18           -32.6934920441      -30.2101160533        9.6625500000  MEMB      93              0.0000000000
     10721        93  CHL1      H18A          -32.6001968503      -29.3594304232        8.9540700000  MEMB      93              0.0000000000
     10722        93  CHL1      H18B          -32.0755137163      -30.0081556639       10.5634700000  MEMB      93              0.0000000000
     10723        93  CHL1      H18C          -32.0960242732      -31.0029068524        9.1637100000  MEMB      93              0.0000000000
     10724        93  CHL1      C12           -34.9104033696      -29.5064169637       10.6749700000  MEMB      93              0.0000000000
     10725        93  CHL1      H12A          -34.8121164799      -28.5846110139       10.0626600000  MEMB      93              0.0000000000
     10726        93  CHL1      H12B          -35.9928599881      -29.7296701828       10.7879800000  MEMB      93              0.0000000000
     10727        93  CHL1      C11           -34.3454880415      -29.0319564177       12.0357500000  MEMB      93              0.0000000000
     10728        93  CHL1      H11A          -33.3329335076      -28.6771439623       11.7473600000  MEMB      93              0.0000000000
     10729        93  CHL1      H11B          -35.0208660407      -28.2797030930       12.4965200000  MEMB      93              0.0000000000
     10730        93  CHL1      C9            -34.1169219613      -30.2452487359       13.0755400000  MEMB      93              0.0000000000
     10731        93  CHL1      H9            -35.1199846573      -30.5834376534       13.4128900000  MEMB      93              0.0000000000
     10732        93  CHL1      C10           -33.3695928295      -29.8359617443       14.3956800000  MEMB      93              0.0000000000
     10733        93  CHL1      C19           -31.9831704223      -29.3319754629       14.1059300000  MEMB      93              0.0000000000
     10734        93  CHL1      H19A          -32.0197191092      -28.3287936628       13.6298900000  MEMB      93              0.0000000000
     10735        93  CHL1      H19B          -31.4096222547      -29.2133376567       15.0500100000  MEMB      93              0.0000000000
     10736        93  CHL1      H19C          -31.2991240591      -29.8657107617       13.4120000000  MEMB      93              0.0000000000
     10737        93  CHL1      C1            -34.2750127446      -28.8231643591       15.1254600000  MEMB      93              0.0000000000
     10738        93  CHL1      H1A           -34.5033733459      -27.9285229017       14.5075700000  MEMB      93              0.0000000000
     10739        93  CHL1      H1B           -35.2034461232      -29.3870568901       15.3586200000  MEMB      93              0.0000000000
     10740        93  CHL1      C2            -33.6878041161      -28.6039804943       16.4943400000  MEMB      93              0.0000000000
     10741        93  CHL1      H2A           -34.3785550602      -27.8836139798       16.9824600000  MEMB      93              0.0000000000
     10742        93  CHL1      H2B           -32.6720761117      -28.1561205157       16.4493600000  MEMB      93              0.0000000000
     10743        93  CHL1      C20           -34.9347651447      -30.4680468190        7.4616400000  MEMB      93              0.0000000000
     10744        93  CHL1      H20           -33.9712030082      -30.6103355185        6.9272100000  MEMB      93              0.0000000000
     10745        93  CHL1      C21           -35.1850341055      -28.9135536838        7.5302300000  MEMB      93              0.0000000000
     10746        93  CHL1      H21A          -36.1749006551      -28.7659956051        8.0126300000  MEMB      93              0.0000000000
     10747        93  CHL1      H21B          -35.1434507689      -28.5118472579        6.4952300000  MEMB      93              0.0000000000
     10748        93  CHL1      H21C          -34.4190365371      -28.3598007226        8.1141200000  MEMB      93              0.0000000000
     10749        93  CHL1      C22           -36.1237574409      -31.0408425206        6.6188800000  MEMB      93              0.0000000000
     10750        93  CHL1      H22A          -36.0365740466      -32.1383883869        6.7675900000  MEMB      93              0.0000000000
     10751        93  CHL1      H22B          -37.0609359379      -30.6525625534        7.0719300000  MEMB      93              0.0000000000
     10752        93  CHL1      C23           -36.0846096941      -30.7627216144        5.1214200000  MEMB      93              0.0000000000
     10753        93  CHL1      H23A          -37.0965152303      -31.0571225303        4.7697200000  MEMB      93              0.0000000000
     10754        93  CHL1      H23B          -35.7582737782      -29.7090491858        4.9887800000  MEMB      93              0.0000000000
     10755        93  CHL1      C24           -35.0685942854      -31.6107227081        4.4046000000  MEMB      93              0.0000000000
     10756        93  CHL1      H24A          -34.0810190037      -31.4989783892        4.9011300000  MEMB      93              0.0000000000
     10757        93  CHL1      H24B          -35.4058887111      -32.6522671169        4.5936700000  MEMB      93              0.0000000000
     10758        93  CHL1      C25           -35.1090309943      -31.3422626726        2.8891300000  MEMB      93              0.0000000000
     10759        93  CHL1      H25           -36.1694221371      -31.3602298873        2.5581200000  MEMB      93              0.0000000000
     10760        93  CHL1      C26           -34.5535089769      -29.9331606536        2.5940700000  MEMB      93              0.0000000000
     10761        93  CHL1      H26A          -35.0204913974      -29.1688936799        3.2514500000  MEMB      93              0.0000000000
     10762        93  CHL1      H26B          -33.4690484148      -30.0150429735        2.8211300000  MEMB      93              0.0000000000
     10763        93  CHL1      H26C          -34.7203660490      -29.4935970537        1.5874600000  MEMB      93              0.0000000000
     10764        93  CHL1      C27           -34.2130396374      -32.3250453432        2.0786000000  MEMB      93              0.0000000000
     10765        93  CHL1      H27A          -33.1710845914      -32.0576684806        2.3563600000  MEMB      93              0.0000000000
     10766        93  CHL1      H27B          -34.5127412968      -33.3636785270        2.3350200000  MEMB      93              0.0000000000
     10767        93  CHL1      H27C          -34.3987402337      -32.1473342706        0.9977400000  MEMB      93              0.0000000000
     10768        94  SOPE      N              28.2323347247      -38.0286005559       20.2404911299  MEMB      94              0.0000000000
     10769        94  SOPE      HN1            27.8927427033      -37.8288319752       21.2029721698  MEMB      94              0.0000000000
     10770        94  SOPE      HN2            28.0950246306      -39.0320441069       20.0041707336  MEMB      94              0.0000000000
     10771        94  SOPE      HN3            29.1887828844      -37.6871918672       20.0163334771  MEMB      94              0.0000000000
     10772        94  SOPE      C12            27.2658678053      -37.2238797103       19.3180126447  MEMB      94              0.0000000000
     10773        94  SOPE      H12A           26.3257630975      -37.8061539373       19.2108641873  MEMB      94              0.0000000000
     10774        94  SOPE      H12B           27.6906496764      -36.9973419841       18.3167323818  MEMB      94              0.0000000000
     10775        94  SOPE      C11            26.8262742730      -35.9794358525       19.9927947022  MEMB      94              0.0000000000
     10776        94  SOPE      H11A           26.0871550027      -35.4045133560       19.3948918563  MEMB      94              0.0000000000
     10777        94  SOPE      H11B           27.7067584862      -35.3019988057       20.0049366656  MEMB      94              0.0000000000
     10778        94  SOPE      P              25.2031262491      -36.7620530727       21.7838351722  MEMB      94              0.0000000000
     10779        94  SOPE      O13            24.7006608638      -36.0122936302       22.9623612541  MEMB      94              0.0000000000
     10780        94  SOPE      O14            25.4025979055      -38.3009093198       21.8266709942  MEMB      94              0.0000000000
     10781        94  SOPE      O12            26.4836421007      -36.0651015991       21.3448967363  MEMB      94              0.0000000000
     10782        94  SOPE      O11            24.2975774099      -36.4990458446       20.5309374008  MEMB      94              0.0000000000
     10783        94  SOPE      C1             22.9470612216      -36.8938542795       20.5275873371  MEMB      94              0.0000000000
     10784        94  SOPE      HA             22.3822714763      -36.2846525118       21.2652909809  MEMB      94              0.0000000000
     10785        94  SOPE      HB             22.9219065361      -37.9839600529       20.7405607290  MEMB      94              0.0000000000
     10786        94  SOPE      C2             22.4964421137      -36.5178421479       19.0841953497  MEMB      94              0.0000000000
     10787        94  SOPE      HS             21.4865072748      -36.9534871492       18.9274614354  MEMB      94              0.0000000000
     10788        94  SOPE      O21            23.4752523324      -36.9042087147       18.0407428116  MEMB      94              0.0000000000
     10789        94  SOPE      C21            23.6934370940      -38.2118972850       17.9481837396  MEMB      94              0.0000000000
     10790        94  SOPE      O22            23.1551930690      -38.9902868571       18.7271426838  MEMB      94              0.0000000000
     10791        94  SOPE      C22            24.6410850486      -38.6066457706       16.8441783042  MEMB      94              0.0000000000
     10792        94  SOPE      H2R            24.4880193636      -39.7054134335       16.7841676128  MEMB      94              0.0000000000
     10793        94  SOPE      H2S            25.6660501377      -38.3356159056       17.1763083296  MEMB      94              0.0000000000
     10794        94  SOPE      C3             22.3468415441      -34.9982354171       19.0175887324  MEMB      94              0.0000000000
     10795        94  SOPE      HX             23.3184150079      -34.5006769709       19.2244745356  MEMB      94              0.0000000000
     10796        94  SOPE      HY             21.7079175841      -34.6552138879       19.8592735514  MEMB      94              0.0000000000
     10797        94  SOPE      O31            21.8483460405      -34.7035837027       17.6859590377  MEMB      94              0.0000000000
     10798        94  SOPE      C31            22.7372135459      -34.3724321872       16.7423104915  MEMB      94              0.0000000000
     10799        94  SOPE      O32            23.8866776424      -34.0710326915       16.9897954977  MEMB      94              0.0000000000
     10800        94  SOPE      C32            21.9925886516      -34.3601450500       15.4258927393  MEMB      94              0.0000000000
     10801        94  SOPE      H2X            21.5217524897      -33.3905098023       15.1567424762  MEMB      94              0.0000000000
     10802        94  SOPE      H2Y            21.2325753706      -35.1699561926       15.3957837369  MEMB      94              0.0000000000
     10803        94  SOPE      C23            24.2947707488      -37.9236490160       15.5617647744  MEMB      94              0.0000000000
     10804        94  SOPE      H3R            24.6248759287      -36.8674758506       15.4625174861  MEMB      94              0.0000000000
     10805        94  SOPE      H3S            23.2320195257      -38.1190919130       15.3035348053  MEMB      94              0.0000000000
     10806        94  SOPE      C24            24.9679966287      -38.5754851052       14.2607425334  MEMB      94              0.0000000000
     10807        94  SOPE      H4R            24.5368499864      -39.5494421037       13.9447655718  MEMB      94              0.0000000000
     10808        94  SOPE      H4S            24.7196313656      -37.8800519418       13.4306766934  MEMB      94              0.0000000000
     10809        94  SOPE      C25            26.5745179981      -38.6908601284       14.3462993824  MEMB      94              0.0000000000
     10810        94  SOPE      H5R            26.9577756508      -37.6585034364       14.4935204361  MEMB      94              0.0000000000
     10811        94  SOPE      H5S            26.9512230520      -39.2848480506       15.2062952966  MEMB      94              0.0000000000
     10812        94  SOPE      C26            27.1173099182      -39.3314633395       13.1205367328  MEMB      94              0.0000000000
     10813        94  SOPE      H6R            28.2161128683      -39.1699873421       13.1501769135  MEMB      94              0.0000000000
     10814        94  SOPE      H6S            26.8355947604      -40.4051295124       13.0736521715  MEMB      94              0.0000000000
     10815        94  SOPE      C27            26.5814339462      -38.6919798178       11.8185186515  MEMB      94              0.0000000000
     10816        94  SOPE      H7R            25.5314485408      -39.0432871946       11.7266765071  MEMB      94              0.0000000000
     10817        94  SOPE      H7S            26.5176021772      -37.5900486878       11.9449863551  MEMB      94              0.0000000000
     10818        94  SOPE      C28            27.4698148530      -38.9175174635       10.6122309926  MEMB      94              0.0000000000
     10819        94  SOPE      H8R            28.4193865557      -38.3481401613       10.5203360196  MEMB      94              0.0000000000
     10820        94  SOPE      H8S            27.8303620631      -39.9681062923       10.6364922228  MEMB      94              0.0000000000
     10821        94  SOPE      C29            26.8448082496      -38.7845600846        9.2270174212  MEMB      94              0.0000000000
     10822        94  SOPE      H91            26.0617052863      -39.5218892072        8.9965928796  MEMB      94              0.0000000000
     10823        94  SOPE      C210           27.1323242571      -37.8021198454        8.2888234591  MEMB      94              0.0000000000
     10824        94  SOPE      H101           26.7029401466      -37.9084674814        7.2816900154  MEMB      94              0.0000000000
     10825        94  SOPE      C211           28.1520744859      -36.6414506406        8.3721561739  MEMB      94              0.0000000000
     10826        94  SOPE      H11R           28.8472894582      -36.6282215633        7.5056561223  MEMB      94              0.0000000000
     10827        94  SOPE      H11S           28.7648426295      -36.6546673897        9.2987954783  MEMB      94              0.0000000000
     10828        94  SOPE      C212           27.4658341874      -35.2713050879        8.2077309594  MEMB      94              0.0000000000
     10829        94  SOPE      H12R           26.5963200083      -35.1858903455        8.8940039860  MEMB      94              0.0000000000
     10830        94  SOPE      H12S           27.0492953580      -35.2011939188        7.1801607056  MEMB      94              0.0000000000
     10831        94  SOPE      C213           28.3045241648      -34.0389843920        8.3855954216  MEMB      94              0.0000000000
     10832        94  SOPE      H13R           28.8489777031      -34.0966561501        9.3523244732  MEMB      94              0.0000000000
     10833        94  SOPE      H13S           27.5806852804      -33.2015328686        8.4807434171  MEMB      94              0.0000000000
     10834        94  SOPE      C214           29.2747048628      -33.6268949776        7.3334626086  MEMB      94              0.0000000000
     10835        94  SOPE      H14R           30.0069162309      -34.4560359460        7.2299610801  MEMB      94              0.0000000000
     10836        94  SOPE      H14S           29.8387434765      -32.7089555910        7.6046981686  MEMB      94              0.0000000000
     10837        94  SOPE      C215           28.6778670682      -33.3980878315        5.9238956663  MEMB      94              0.0000000000
     10838        94  SOPE      H15R           27.7467182857      -32.7922970428        5.9412304770  MEMB      94              0.0000000000
     10839        94  SOPE      H15S           28.3681357624      -34.4112706077        5.5894585015  MEMB      94              0.0000000000
     10840        94  SOPE      C216           29.7827925518      -32.7710240329        4.9526783537  MEMB      94              0.0000000000
     10841        94  SOPE      H16R           30.7189707996      -33.3423572208        5.1300748651  MEMB      94              0.0000000000
     10842        94  SOPE      H16S           29.9216610918      -31.6993639769        5.2107116526  MEMB      94              0.0000000000
     10843        94  SOPE      C217           29.5648761152      -32.7972095448        3.4333497074  MEMB      94              0.0000000000
     10844        94  SOPE      H17R           29.3434824373      -33.8001720106        3.0098263266  MEMB      94              0.0000000000
     10845        94  SOPE      H17S           30.4110539910      -32.3545827901        2.8655604627  MEMB      94              0.0000000000
     10846        94  SOPE      C218           28.5700913200      -31.8172982589        2.8213588871  MEMB      94              0.0000000000
     10847        94  SOPE      H18R           28.4218262869      -31.8872386303        1.7225201902  MEMB      94              0.0000000000
     10848        94  SOPE      H18S           29.0283995543      -30.8153931783        2.9643990394  MEMB      94              0.0000000000
     10849        94  SOPE      H18T           27.5933138676      -31.9053205951        3.3433545502  MEMB      94              0.0000000000
     10850        94  SOPE      C33            23.0923607082      -34.5993089355       14.3745366118  MEMB      94              0.0000000000
     10851        94  SOPE      H3X            23.4748663034      -35.6397002306       14.4493448322  MEMB      94              0.0000000000
     10852        94  SOPE      H3Y            23.8601566302      -33.8064386607       14.5016865540  MEMB      94              0.0000000000
     10853        94  SOPE      C34            22.6207801228      -34.5208636919       12.9123016834  MEMB      94              0.0000000000
     10854        94  SOPE      H4X            22.3665143486      -33.4721516378       12.6479658160  MEMB      94              0.0000000000
     10855        94  SOPE      H4Y            21.7175044620      -35.1667711853       12.8774054868  MEMB      94              0.0000000000
     10856        94  SOPE      C35            23.6925821724      -35.0867472430       11.9585698448  MEMB      94              0.0000000000
     10857        94  SOPE      H5X            23.8956088831      -36.1141597643       12.3294119863  MEMB      94              0.0000000000
     10858        94  SOPE      H5Y            24.6792387261      -34.5765405488       11.9357825624  MEMB      94              0.0000000000
     10859        94  SOPE      C36            23.2530049987      -35.1955141768       10.4888624339  MEMB      94              0.0000000000
     10860        94  SOPE      H6X            22.3392107663      -35.8159890886       10.3692280195  MEMB      94              0.0000000000
     10861        94  SOPE      H6Y            24.0366264898      -35.7383875190        9.9182956854  MEMB      94              0.0000000000
     10862        94  SOPE      C37            22.9547784381      -33.9204949062        9.7755595336  MEMB      94              0.0000000000
     10863        94  SOPE      H7X            22.1083916556      -33.3829945301       10.2541448722  MEMB      94              0.0000000000
     10864        94  SOPE      H7Y            22.5110369583      -34.1492982150        8.7830562694  MEMB      94              0.0000000000
     10865        94  SOPE      C38            24.1757495980      -32.8902308473        9.6468619762  MEMB      94              0.0000000000
     10866        94  SOPE      H8X            25.1089392416      -33.4719151121        9.4883643105  MEMB      94              0.0000000000
     10867        94  SOPE      H8Y            24.2889296834      -32.2892489125       10.5744027532  MEMB      94              0.0000000000
     10868        94  SOPE      C39            24.0795563604      -31.8142752951        8.5025034418  MEMB      94              0.0000000000
     10869        94  SOPE      H9X            24.7500387881      -31.0155405645        8.8856448704  MEMB      94              0.0000000000
     10870        94  SOPE      H9Y            23.0325873892      -31.4479159882        8.4395925134  MEMB      94              0.0000000000
     10871        94  SOPE      C310           24.6299735331      -32.2386136558        7.1472745296  MEMB      94              0.0000000000
     10872        94  SOPE      H10X           25.6339926695      -32.6875449400        7.3045235631  MEMB      94              0.0000000000
     10873        94  SOPE      H10Y           24.7301403993      -31.2303399856        6.6915636884  MEMB      94              0.0000000000
     10874        94  SOPE      C311           23.7995290077      -33.2639767994        6.4386368588  MEMB      94              0.0000000000
     10875        94  SOPE      H11X           22.7538734434      -32.9085950130        6.3176864602  MEMB      94              0.0000000000
     10876        94  SOPE      H11Y           23.7016263488      -34.2236091368        6.9898565132  MEMB      94              0.0000000000
     10877        94  SOPE      C312           24.5185977536      -33.5879865744        5.1411321716  MEMB      94              0.0000000000
     10878        94  SOPE      H12X           25.4417081736      -34.1483074815        5.4023367256  MEMB      94              0.0000000000
     10879        94  SOPE      H12Y           24.7218649373      -32.5917064947        4.6934384730  MEMB      94              0.0000000000
     10880        94  SOPE      C313           23.6107773196      -34.2688674751        4.1703010303  MEMB      94              0.0000000000
     10881        94  SOPE      H13X           22.8477604900      -33.5665049519        3.7717891199  MEMB      94              0.0000000000
     10882        94  SOPE      H13Y           22.9967663787      -34.9284288352        4.8201410548  MEMB      94              0.0000000000
     10883        94  SOPE      C314           24.3117724872      -34.9343722811        2.9820434107  MEMB      94              0.0000000000
     10884        94  SOPE      H14X           23.6124079030      -35.6403653771        2.4852710073  MEMB      94              0.0000000000
     10885        94  SOPE      H14Y           25.2064582607      -35.4448299543        3.3983268782  MEMB      94              0.0000000000
     10886        94  SOPE      C315           24.7112303975      -33.8749150493        1.8590891058  MEMB      94              0.0000000000
     10887        94  SOPE      H15X           25.4371990283      -33.1582515834        2.2991850765  MEMB      94              0.0000000000
     10888        94  SOPE      H15Y           23.9120732021      -33.2985195968        1.3458287227  MEMB      94              0.0000000000
     10889        94  SOPE      C316           25.4253020999      -34.5577570161        0.6641272528  MEMB      94              0.0000000000
     10890        94  SOPE      H16X           24.9272014102      -35.5310718104        0.4669604316  MEMB      94              0.0000000000
     10891        94  SOPE      H16Y           26.4795827699      -34.8285348461        0.8865964977  MEMB      94              0.0000000000
     10892        94  SOPE      C317           25.3701169771      -33.6619620066       -0.5672037144  MEMB      94              0.0000000000
     10893        94  SOPE      H17X           24.3048045591      -33.4581241583       -0.8077875436  MEMB      94              0.0000000000
     10894        94  SOPE      H17Y           25.7439426207      -34.3241125920       -1.3772236190  MEMB      94              0.0000000000
     10895        94  SOPE      C318           26.1090005638      -32.3497790528       -0.4520492838  MEMB      94              0.0000000000
     10896        94  SOPE      H18X           27.1809469238      -32.6098739662       -0.3193740276  MEMB      94              0.0000000000
     10897        94  SOPE      H18Y           25.8594313265      -31.8469418272        0.5066941228  MEMB      94              0.0000000000
     10898        94  SOPE      H18Z           25.9082693238      -31.7088944120       -1.3370894662  MEMB      94              0.0000000000
     10899        95  OSM       N             -29.9402791121      -35.1654294546       22.5594379876  MEMB      95              0.0000000000
     10900        95  OSM       C15           -30.0985594054      -35.3924328442       24.0561476493  MEMB      95              0.0000000000
     10901        95  OSM       H15A          -31.1234422804      -35.6822622904       24.2350723497  MEMB      95              0.0000000000
     10902        95  OSM       H15B          -29.8826471173      -34.4674279538       24.5701010233  MEMB      95              0.0000000000
     10903        95  OSM       H15C          -29.3170949987      -36.1020940777       24.2843895039  MEMB      95              0.0000000000
     10904        95  OSM       C14           -30.8456140261      -33.9478021907       22.3445497550  MEMB      95              0.0000000000
     10905        95  OSM       H14A          -31.9057850204      -34.1319293223       22.4369327085  MEMB      95              0.0000000000
     10906        95  OSM       H14B          -30.6349075999      -33.6211376283       21.3369322519  MEMB      95              0.0000000000
     10907        95  OSM       H14C          -30.5202571090      -33.1546630454       23.0014159386  MEMB      95              0.0000000000
     10908        95  OSM       C13           -28.5435688603      -34.8743502203       22.2516668348  MEMB      95              0.0000000000
     10909        95  OSM       H13A          -28.4901807506      -35.1767576390       21.2162444130  MEMB      95              0.0000000000
     10910        95  OSM       H13B          -27.9196541264      -35.5447499434       22.8241131802  MEMB      95              0.0000000000
     10911        95  OSM       H13C          -28.1553272501      -33.8668829497       22.2777079941  MEMB      95              0.0000000000
     10912        95  OSM       C12           -30.4204541062      -36.3816321116       21.7866743812  MEMB      95              0.0000000000
     10913        95  OSM       H12A          -31.3235596746      -36.7298296741       22.2657972078  MEMB      95              0.0000000000
     10914        95  OSM       H12B          -29.7956719397      -37.2297789977       22.0247797160  MEMB      95              0.0000000000
     10915        95  OSM       C11           -30.5563157403      -36.3685571887       20.2499687528  MEMB      95              0.0000000000
     10916        95  OSM       H11A          -30.9519115148      -35.3483399624       20.0576621046  MEMB      95              0.0000000000
     10917        95  OSM       H11B          -31.2138314424      -37.1617403298       19.8342109247  MEMB      95              0.0000000000
     10918        95  OSM       P             -28.4015978809      -37.8164380449       19.5835120016  MEMB      95              0.0000000000
     10919        95  OSM       O13           -27.4909518479      -37.8328677162       20.7831272216  MEMB      95              0.0000000000
     10920        95  OSM       O14           -29.3135268085      -38.9418374886       19.5721706312  MEMB      95              0.0000000000
     10921        95  OSM       O11           -27.6399445655      -37.6309455534       18.2361650782  MEMB      95              0.0000000000
     10922        95  OSM       O12           -29.2998545406      -36.4810785878       19.5765797067  MEMB      95              0.0000000000
     10923        95  OSM       C1S           -28.1715770163      -37.1889993588       17.0014590275  MEMB      95              0.0000000000
     10924        95  OSM       H1S           -27.3111164295      -36.8216377036       16.4023144575  MEMB      95              0.0000000000
     10925        95  OSM       H1T           -28.9544468864      -36.4038438726       17.0719327705  MEMB      95              0.0000000000
     10926        95  OSM       NF            -30.2263025499      -38.5843043309       16.2815655778  MEMB      95              0.0000000000
     10927        95  OSM       HNF           -30.3877110755      -39.5618166809       16.1700947395  MEMB      95              0.0000000000
     10928        95  OSM       C2S           -28.8241500344      -38.3222018907       16.0365944653  MEMB      95              0.0000000000
     10929        95  OSM       H2S           -28.7408573778      -37.8642182251       15.0278160559  MEMB      95              0.0000000000
     10930        95  OSM       C3S           -28.0815366628      -39.6206564252       16.1227879844  MEMB      95              0.0000000000
     10931        95  OSM       H3S           -28.5394219722      -40.0624115614       17.0335645433  MEMB      95              0.0000000000
     10932        95  OSM       O3            -26.6833949115      -39.4947642754       16.2775550139  MEMB      95              0.0000000000
     10933        95  OSM       HO3           -26.5310060654      -38.5543113312       16.3955622046  MEMB      95              0.0000000000
     10934        95  OSM       C4S           -28.4631689299      -40.3939298881       14.8504976186  MEMB      95              0.0000000000
     10935        95  OSM       H4S           -29.2782515787      -41.1184114345       14.9946042249  MEMB      95              0.0000000000
     10936        95  OSM       C5S           -27.8511306011      -40.2706963242       13.6561237611  MEMB      95              0.0000000000
     10937        95  OSM       H5S           -26.9827517432      -39.6044561063       13.5463880093  MEMB      95              0.0000000000
     10938        95  OSM       C6S           -28.3051564591      -41.0699016806       12.4636305139  MEMB      95              0.0000000000
     10939        95  OSM       H6S           -28.7378921661      -41.9943483361       12.9023323885  MEMB      95              0.0000000000
     10940        95  OSM       H6T           -27.4541778553      -41.4077455740       11.8343306754  MEMB      95              0.0000000000
     10941        95  OSM       C7S           -29.3428524061      -40.4330566704       11.5565932770  MEMB      95              0.0000000000
     10942        95  OSM       H7S           -28.9445336834      -39.4843454128       11.1375351049  MEMB      95              0.0000000000
     10943        95  OSM       H7T           -30.2702769548      -40.1296133453       12.0877492132  MEMB      95              0.0000000000
     10944        95  OSM       C8S           -29.9071021949      -41.3921554604       10.5173742180  MEMB      95              0.0000000000
     10945        95  OSM       H8S           -30.3394444153      -42.2555609547       11.0668577370  MEMB      95              0.0000000000
     10946        95  OSM       H8T           -29.0475232745      -41.7493338702        9.9108520983  MEMB      95              0.0000000000
     10947        95  OSM       C9S           -30.9522443584      -40.9551078684        9.4508424144  MEMB      95              0.0000000000
     10948        95  OSM       H9S           -31.8000362278      -40.4543745165        9.9654652941  MEMB      95              0.0000000000
     10949        95  OSM       H9T           -31.3855560367      -41.8010742927        8.8756015092  MEMB      95              0.0000000000
     10950        95  OSM       C10S          -30.5012866328      -39.8640249782        8.4370773800  MEMB      95              0.0000000000
     10951        95  OSM       H10S          -29.4882953614      -40.1152377184        8.0562074254  MEMB      95              0.0000000000
     10952        95  OSM       H10T          -30.4345464229      -38.9079728366        8.9990659962  MEMB      95              0.0000000000
     10953        95  OSM       C11S          -31.5062252588      -39.6883977078        7.3087453070  MEMB      95              0.0000000000
     10954        95  OSM       H11S          -32.3968463978      -39.1527414763        7.7014129085  MEMB      95              0.0000000000
     10955        95  OSM       H11T          -31.8034175827      -40.6867389016        6.9223350894  MEMB      95              0.0000000000
     10956        95  OSM       C12S          -31.1127585394      -38.8758203282        6.0397992847  MEMB      95              0.0000000000
     10957        95  OSM       H12S          -30.8048320905      -37.8296216811        6.2518622543  MEMB      95              0.0000000000
     10958        95  OSM       H12T          -32.0628069729      -38.6811309719        5.4977432500  MEMB      95              0.0000000000
     10959        95  OSM       C13S          -30.0879462904      -39.4939784013        4.9785099764  MEMB      95              0.0000000000
     10960        95  OSM       H13S          -29.0427188625      -39.4095857101        5.3455232219  MEMB      95              0.0000000000
     10961        95  OSM       H13T          -30.1268043484      -38.8300723916        4.0885431553  MEMB      95              0.0000000000
     10962        95  OSM       C14S          -30.3318299861      -40.9562915891        4.7021936430  MEMB      95              0.0000000000
     10963        95  OSM       H14S          -31.4264815265      -40.9967446599        4.5166616901  MEMB      95              0.0000000000
     10964        95  OSM       H14T          -30.1475493936      -41.5902113092        5.5957865528  MEMB      95              0.0000000000
     10965        95  OSM       C15S          -29.6118093148      -41.4825296629        3.4788164895  MEMB      95              0.0000000000
     10966        95  OSM       H15S          -29.9440347044      -42.5320158011        3.3287280104  MEMB      95              0.0000000000
     10967        95  OSM       H15T          -28.5046168378      -41.5495673320        3.5416825176  MEMB      95              0.0000000000
     10968        95  OSM       C16S          -29.9000947598      -40.7434344524        2.2110179128  MEMB      95              0.0000000000
     10969        95  OSM       H16S          -29.6826330566      -39.6577883736        2.3026892893  MEMB      95              0.0000000000
     10970        95  OSM       H16T          -30.9538351415      -40.8109291405        1.8654780710  MEMB      95              0.0000000000
     10971        95  OSM       C17S          -29.0259627597      -41.1573414035        1.0720079877  MEMB      95              0.0000000000
     10972        95  OSM       H17S          -29.3517129619      -40.6898258745        0.1182594336  MEMB      95              0.0000000000
     10973        95  OSM       H17T          -29.0803211375      -42.2562193686        0.9176287755  MEMB      95              0.0000000000
     10974        95  OSM       C18S          -27.5210039289      -40.7488122348        1.1911001624  MEMB      95              0.0000000000
     10975        95  OSM       H18S          -27.3343601342      -39.7547768341        1.6508588872  MEMB      95              0.0000000000
     10976        95  OSM       H18T          -26.9977081440      -40.5627536193        0.2288808481  MEMB      95              0.0000000000
     10977        95  OSM       H18U          -26.8879583896      -41.4315419863        1.7972796569  MEMB      95              0.0000000000
     10978        95  OSM       C1F           -31.2293127667      -37.5972851106       16.1255599844  MEMB      95              0.0000000000
     10979        95  OSM       OF            -30.9966961105      -36.3871471185       15.8866991848  MEMB      95              0.0000000000
     10980        95  OSM       C2F           -32.5801461950      -38.1479763107       16.0773320402  MEMB      95              0.0000000000
     10981        95  OSM       H2F           -32.7675036576      -38.8051454787       16.9533152742  MEMB      95              0.0000000000
     10982        95  OSM       H2G           -32.7686513984      -38.7721477454       15.1777780555  MEMB      95              0.0000000000
     10983        95  OSM       C3F           -33.7445090469      -37.0743867201       15.9386448798  MEMB      95              0.0000000000
     10984        95  OSM       H3F           -33.8202352872      -36.5286428290       16.9033985703  MEMB      95              0.0000000000
     10985        95  OSM       H3G           -34.5884028500      -37.7919676465       15.8535438470  MEMB      95              0.0000000000
     10986        95  OSM       C4F           -33.8452001586      -36.2313609237       14.6358154136  MEMB      95              0.0000000000
     10987        95  OSM       H4F           -33.0293212977      -35.4824591843       14.7241854039  MEMB      95              0.0000000000
     10988        95  OSM       H4G           -34.8631540632      -35.7863074775       14.6315060336  MEMB      95              0.0000000000
     10989        95  OSM       C5F           -33.6308752730      -37.0221263001       13.2900103545  MEMB      95              0.0000000000
     10990        95  OSM       H5F           -34.3323370579      -37.8821285770       13.2383518712  MEMB      95              0.0000000000
     10991        95  OSM       H5G           -32.6079882426      -37.4557215142       13.2942861351  MEMB      95              0.0000000000
     10992        95  OSM       C6F           -33.7846308407      -36.0673560191       12.0758291808  MEMB      95              0.0000000000
     10993        95  OSM       H6F           -33.3543202497      -35.0574056876       12.2465748202  MEMB      95              0.0000000000
     10994        95  OSM       H6G           -34.8354021418      -35.8903341604       11.7614017034  MEMB      95              0.0000000000
     10995        95  OSM       C7F           -32.9702738342      -36.5518378382       10.8698229825  MEMB      95              0.0000000000
     10996        95  OSM       H7F           -33.2631807180      -37.6178475222       10.7595975540  MEMB      95              0.0000000000
     10997        95  OSM       H7G           -31.9068572502      -36.5022790463       11.1876444399  MEMB      95              0.0000000000
     10998        95  OSM       C8F           -33.0501772443      -35.8176668632        9.5770010310  MEMB      95              0.0000000000
     10999        95  OSM       H8F           -34.0722650908      -35.9916753431        9.1777789562  MEMB      95              0.0000000000
     11000        95  OSM       H8G           -32.4804409063      -36.3764773887        8.8040512148  MEMB      95              0.0000000000
     11001        95  OSM       C9F           -32.6745925333      -34.3522264812        9.6546682371  MEMB      95              0.0000000000
     11002        95  OSM       H9F           -33.4183690885      -33.6851317599       10.1148652604  MEMB      95              0.0000000000
     11003        95  OSM       C10F          -31.5520347607      -33.9062444595        9.0735754021  MEMB      95              0.0000000000
     11004        95  OSM       H10F          -31.2830893410      -32.8401193875        9.1059119582  MEMB      95              0.0000000000
     11005        95  OSM       C11F          -30.4940136573      -34.7705884215        8.2970715084  MEMB      95              0.0000000000
     11006        95  OSM       H11F          -30.7224514114      -35.8574144545        8.2663081399  MEMB      95              0.0000000000
     11007        95  OSM       H11G          -29.5224347451      -34.4329421903        8.7170125836  MEMB      95              0.0000000000
     11008        95  OSM       C12F          -30.3690585318      -34.3043516430        6.8473176647  MEMB      95              0.0000000000
     11009        95  OSM       H12F          -30.2316324364      -33.2031477363        6.7945467096  MEMB      95              0.0000000000
     11010        95  OSM       H12G          -31.2940075634      -34.4536727645        6.2502470519  MEMB      95              0.0000000000
     11011        95  OSM       C13F          -29.2094408569      -34.9946792032        6.1171691380  MEMB      95              0.0000000000
     11012        95  OSM       H13F          -29.3627402930      -36.0660972421        5.8664026352  MEMB      95              0.0000000000
     11013        95  OSM       H13G          -28.2395640064      -34.9716581767        6.6585844597  MEMB      95              0.0000000000
     11014        95  OSM       C14F          -28.9372713268      -34.3439986348        4.7326889927  MEMB      95              0.0000000000
     11015        95  OSM       H14F          -28.1627179635      -34.9910538802        4.2682455893  MEMB      95              0.0000000000
     11016        95  OSM       H14G          -28.3762678073      -33.3856286525        4.7662002497  MEMB      95              0.0000000000
     11017        95  OSM       C15F          -30.1818788884      -34.2775987120        3.8915121754  MEMB      95              0.0000000000
     11018        95  OSM       H15F          -30.8853031041      -33.5583160177        4.3628376844  MEMB      95              0.0000000000
     11019        95  OSM       H15G          -30.7727941495      -35.2184110494        3.8880282612  MEMB      95              0.0000000000
     11020        95  OSM       C16F          -29.8498492198      -33.8629856751        2.3829386123  MEMB      95              0.0000000000
     11021        95  OSM       H16F          -29.3630088791      -34.6905304857        1.8239431835  MEMB      95              0.0000000000
     11022        95  OSM       H16G          -29.1920041491      -32.9681038657        2.4102818130  MEMB      95              0.0000000000
     11023        95  OSM       C17F          -31.0607979159      -33.3932204169        1.5656910428  MEMB      95              0.0000000000
     11024        95  OSM       H17F          -31.1986067800      -32.3844795352        2.0104048831  MEMB      95              0.0000000000
     11025        95  OSM       H17G          -31.8742820917      -34.1283135975        1.7451412426  MEMB      95              0.0000000000
     11026        95  OSM       C18F          -30.7293610462      -33.3679140775        0.0709499199  MEMB      95              0.0000000000
     11027        95  OSM       H18F          -29.7236926283      -32.9184016207       -0.0735859373  MEMB      95              0.0000000000
     11028        95  OSM       H18G          -31.4978048941      -32.8071222348       -0.5029220072  MEMB      95              0.0000000000
     11029        95  OSM       H18H          -30.5322764414      -34.3911798027       -0.3142858956  MEMB      95              0.0000000000
     11030        96  OSM       N              36.2699493805      -34.7541241373       22.2933534328  MEMB      96              0.0000000000
     11031        96  OSM       C15            36.2332095338      -33.8793387915       23.4936229060  MEMB      96              0.0000000000
     11032        96  OSM       H15A           35.9966885721      -34.3695095844       24.4264628890  MEMB      96              0.0000000000
     11033        96  OSM       H15B           35.5679019041      -33.0318783028       23.4189466508  MEMB      96              0.0000000000
     11034        96  OSM       H15C           37.2562141461      -33.6600258421       23.7615097196  MEMB      96              0.0000000000
     11035        96  OSM       C14            37.0106525504      -33.9858583705       21.1667532469  MEMB      96              0.0000000000
     11036        96  OSM       H14A           38.0863679056      -33.9872026773       21.2628510225  MEMB      96              0.0000000000
     11037        96  OSM       H14B           36.5538658093      -33.0124956773       21.2682972261  MEMB      96              0.0000000000
     11038        96  OSM       H14C           36.6312809002      -34.4041878541       20.2461678700  MEMB      96              0.0000000000
     11039        96  OSM       C13            37.0854238631      -36.0118071710       22.5895059794  MEMB      96              0.0000000000
     11040        96  OSM       H13A           36.7093661094      -36.5900944108       23.4205081147  MEMB      96              0.0000000000
     11041        96  OSM       H13B           38.0695117333      -35.8419133348       23.0007324117  MEMB      96              0.0000000000
     11042        96  OSM       H13C           37.1228759227      -36.6380190814       21.7103837088  MEMB      96              0.0000000000
     11043        96  OSM       C12            34.8580082395      -35.1936950657       21.8962493464  MEMB      96              0.0000000000
     11044        96  OSM       H12A           34.3182211447      -34.2811917137       21.6904154323  MEMB      96              0.0000000000
     11045        96  OSM       H12B           34.3393293433      -35.7035568467       22.6946309388  MEMB      96              0.0000000000
     11046        96  OSM       C11            34.5890944799      -35.8864369552       20.5729918141  MEMB      96              0.0000000000
     11047        96  OSM       H11A           34.9233642024      -35.3387111276       19.6660291939  MEMB      96              0.0000000000
     11048        96  OSM       H11B           33.4791020759      -35.8919369621       20.5260047963  MEMB      96              0.0000000000
     11049        96  OSM       P              35.8317343055      -38.0731773598       19.7868285188  MEMB      96              0.0000000000
     11050        96  OSM       O13            36.8381861103      -38.8686687010       20.4789506844  MEMB      96              0.0000000000
     11051        96  OSM       O14            34.8212974709      -38.7702254456       18.9364356524  MEMB      96              0.0000000000
     11052        96  OSM       O11            36.6318057267      -36.9384363742       18.9640488983  MEMB      96              0.0000000000
     11053        96  OSM       O12            35.0420747421      -37.2165074314       20.8212595203  MEMB      96              0.0000000000
     11054        96  OSM       C1S            37.4133367213      -37.2022064677       17.7801591777  MEMB      96              0.0000000000
     11055        96  OSM       H1S            37.4844660517      -38.2861776109       17.5472039916  MEMB      96              0.0000000000
     11056        96  OSM       H1T            38.4589131355      -36.8310836449       17.8381156426  MEMB      96              0.0000000000
     11057        96  OSM       NF             36.7848829404      -37.0976791065       15.2097169031  MEMB      96              0.0000000000
     11058        96  OSM       HNF            37.1463271862      -36.4758029055       14.5193279418  MEMB      96              0.0000000000
     11059        96  OSM       C2S            36.6564569349      -36.5182605163       16.4946721810  MEMB      96              0.0000000000
     11060        96  OSM       H2S            35.5669945947      -36.5165778166       16.7123646946  MEMB      96              0.0000000000
     11061        96  OSM       C3S            37.1809743709      -35.0751326752       16.4110746488  MEMB      96              0.0000000000
     11062        96  OSM       H3S            38.2851674707      -35.1382573963       16.3057472078  MEMB      96              0.0000000000
     11063        96  OSM       O3             36.8200034219      -34.3751625849       17.6508564252  MEMB      96              0.0000000000
     11064        96  OSM       HO3            36.3745396640      -35.0142626127       18.2118494732  MEMB      96              0.0000000000
     11065        96  OSM       C4S            36.6470097310      -34.3136737234       15.3428833868  MEMB      96              0.0000000000
     11066        96  OSM       H4S            35.5879846049      -34.0167043067       15.3594611147  MEMB      96              0.0000000000
     11067        96  OSM       C5S            37.3636819538      -33.8236594305       14.3324154149  MEMB      96              0.0000000000
     11068        96  OSM       H5S            38.4250942425      -34.0833550958       14.2060741256  MEMB      96              0.0000000000
     11069        96  OSM       C6S            36.7995535526      -32.9699678455       13.3110203619  MEMB      96              0.0000000000
     11070        96  OSM       H6S            37.5558974143      -32.2470663639       12.9372846591  MEMB      96              0.0000000000
     11071        96  OSM       H6T            35.9871201265      -32.3659030236       13.7685995736  MEMB      96              0.0000000000
     11072        96  OSM       C7S            36.0798616626      -33.6004338618       12.0881989466  MEMB      96              0.0000000000
     11073        96  OSM       H7S            35.5704492767      -32.8494270354       11.4472557316  MEMB      96              0.0000000000
     11074        96  OSM       H7T            35.1955216914      -34.2086066473       12.3752347063  MEMB      96              0.0000000000
     11075        96  OSM       C8S            37.0763745544      -34.5063846941       11.2306339954  MEMB      96              0.0000000000
     11076        96  OSM       H8S            37.5348001975      -35.3133153955       11.8413961494  MEMB      96              0.0000000000
     11077        96  OSM       H8T            37.8986468298      -33.8113359171       10.9565970058  MEMB      96              0.0000000000
     11078        96  OSM       C9S            36.5125766305      -35.2292693851       10.0961158309  MEMB      96              0.0000000000
     11079        96  OSM       H9S            36.0671366819      -36.2060448443       10.3821472557  MEMB      96              0.0000000000
     11080        96  OSM       H9T            37.4131936147      -35.5171386140        9.5127278426  MEMB      96              0.0000000000
     11081        96  OSM       C10S           35.4770657084      -34.4142579126        9.2179786612  MEMB      96              0.0000000000
     11082        96  OSM       H10S           35.8037138220      -33.3913241222        8.9329724329  MEMB      96              0.0000000000
     11083        96  OSM       H10T           34.5349436272      -34.4354315095        9.8064329817  MEMB      96              0.0000000000
     11084        96  OSM       C11S           35.3000467064      -35.0801239750        7.8404052936  MEMB      96              0.0000000000
     11085        96  OSM       H11S           34.8258146314      -36.0822503695        7.9122912421  MEMB      96              0.0000000000
     11086        96  OSM       H11T           36.3271633586      -35.2587866525        7.4564368324  MEMB      96              0.0000000000
     11087        96  OSM       C12S           34.3443206762      -34.4352113119        6.7395909803  MEMB      96              0.0000000000
     11088        96  OSM       H12S           34.4950303845      -33.3364484207        6.6738039141  MEMB      96              0.0000000000
     11089        96  OSM       H12T           33.2800239764      -34.6864332747        6.9357566825  MEMB      96              0.0000000000
     11090        96  OSM       C13S           34.7428030757      -34.9728705962        5.3852290192  MEMB      96              0.0000000000
     11091        96  OSM       H13S           35.8388796091      -34.9319064628        5.2084257818  MEMB      96              0.0000000000
     11092        96  OSM       H13T           34.1177785699      -34.3324393030        4.7268113625  MEMB      96              0.0000000000
     11093        96  OSM       C14S           34.1700287507      -36.3889437822        5.0934255788  MEMB      96              0.0000000000
     11094        96  OSM       H14S           34.0461541461      -36.9858260625        6.0222469563  MEMB      96              0.0000000000
     11095        96  OSM       H14T           35.0287277583      -36.7394045558        4.4817608438  MEMB      96              0.0000000000
     11096        96  OSM       C15S           32.8624487152      -36.4038650508        4.2894190880  MEMB      96              0.0000000000
     11097        96  OSM       H15S           32.8765691402      -35.7848823141        3.3669319455  MEMB      96              0.0000000000
     11098        96  OSM       H15T           32.0054309699      -35.9997093355        4.8695042837  MEMB      96              0.0000000000
     11099        96  OSM       C16S           32.4743956379      -37.8498593272        3.8192088817  MEMB      96              0.0000000000
     11100        96  OSM       H16S           31.7113142502      -37.8647959618        3.0118641223  MEMB      96              0.0000000000
     11101        96  OSM       H16T           32.1252193617      -38.4736459694        4.6696711792  MEMB      96              0.0000000000
     11102        96  OSM       C17S           33.6983929399      -38.6427433876        3.3799687271  MEMB      96              0.0000000000
     11103        96  OSM       H17S           33.3294610426      -39.6820086361        3.2452922599  MEMB      96              0.0000000000
     11104        96  OSM       H17T           34.3823335507      -38.7525379663        4.2485822800  MEMB      96              0.0000000000
     11105        96  OSM       C18S           34.3332898606      -38.0624562945        2.1454084114  MEMB      96              0.0000000000
     11106        96  OSM       H18S           34.8907447946      -37.1451685713        2.4320243136  MEMB      96              0.0000000000
     11107        96  OSM       H18T           33.6430450165      -37.6900488891        1.3585197826  MEMB      96              0.0000000000
     11108        96  OSM       H18U           35.0960580603      -38.7568731184        1.7327455284  MEMB      96              0.0000000000
     11109        96  OSM       C1F            36.3646067828      -38.3729087400       14.9391163312  MEMB      96              0.0000000000
     11110        96  OSM       OF             35.7173334470      -39.0568444749       15.6844423967  MEMB      96              0.0000000000
     11111        96  OSM       C2F            36.5780359394      -38.7528319345       13.5126412230  MEMB      96              0.0000000000
     11112        96  OSM       H2F            37.0206891780      -37.9598272410       12.8727013494  MEMB      96              0.0000000000
     11113        96  OSM       H2G            35.6324338319      -39.0002606834       12.9844967363  MEMB      96              0.0000000000
     11114        96  OSM       C3F            37.5566797465      -39.9507254909       13.5811946451  MEMB      96              0.0000000000
     11115        96  OSM       H3F            37.6831020693      -40.2119899410       12.5087769183  MEMB      96              0.0000000000
     11116        96  OSM       H3G            36.9308362233      -40.7650431962       14.0049021795  MEMB      96              0.0000000000
     11117        96  OSM       C4F            38.9616464661      -39.9402059150       14.0967180658  MEMB      96              0.0000000000
     11118        96  OSM       H4F            39.4033738825      -40.9385617620       13.8906023470  MEMB      96              0.0000000000
     11119        96  OSM       H4G            39.0080073703      -39.7573083084       15.1915786769  MEMB      96              0.0000000000
     11120        96  OSM       C5F            39.8455749189      -38.8395758288       13.4357543786  MEMB      96              0.0000000000
     11121        96  OSM       H5F            40.8941590721      -38.8883705554       13.7996371311  MEMB      96              0.0000000000
     11122        96  OSM       H5G            39.4176983131      -37.8623645358       13.7460780763  MEMB      96              0.0000000000
     11123        96  OSM       C6F            39.8868415278      -39.0221583830       11.9137749970  MEMB      96              0.0000000000
     11124        96  OSM       H6F            38.8710598964      -38.8551488105       11.4959036800  MEMB      96              0.0000000000
     11125        96  OSM       H6G            40.2364342075      -40.0199741151       11.5724985983  MEMB      96              0.0000000000
     11126        96  OSM       C7F            40.6595211444      -37.8963199151       11.2937891406  MEMB      96              0.0000000000
     11127        96  OSM       H7F            41.7272638547      -37.9171733078       11.6000759132  MEMB      96              0.0000000000
     11128        96  OSM       H7G            40.2246296857      -36.9439602501       11.6655437267  MEMB      96              0.0000000000
     11129        96  OSM       C8F            40.5656414362      -37.8023475778        9.8376270356  MEMB      96              0.0000000000
     11130        96  OSM       H8F            39.4793414799      -37.7173753258        9.6207112047  MEMB      96              0.0000000000
     11131        96  OSM       H8G            40.9751786438      -38.7398740851        9.4044473726  MEMB      96              0.0000000000
     11132        96  OSM       C9F            41.2892136241      -36.6236072978        9.1546185283  MEMB      96              0.0000000000
     11133        96  OSM       H9F            42.2693483716      -36.4008163928        9.6014960495  MEMB      96              0.0000000000
     11134        96  OSM       C10F           40.9425498438      -35.8234013249        8.2217269029  MEMB      96              0.0000000000
     11135        96  OSM       H10F           41.6475898537      -35.0697583626        7.8410153798  MEMB      96              0.0000000000
     11136        96  OSM       C11F           39.6155419986      -35.9183304179        7.5040397678  MEMB      96              0.0000000000
     11137        96  OSM       H11F           39.0691150377      -34.9743845275        7.7154739808  MEMB      96              0.0000000000
     11138        96  OSM       H11G           38.9807262469      -36.7446435584        7.8894438859  MEMB      96              0.0000000000
     11139        96  OSM       C12F           39.8351505929      -36.0657834589        6.0605671392  MEMB      96              0.0000000000
     11140        96  OSM       H12F           40.8102379938      -36.5132728334        5.7719868781  MEMB      96              0.0000000000
     11141        96  OSM       H12G           39.7770082874      -35.0768563913        5.5576117175  MEMB      96              0.0000000000
     11142        96  OSM       C13F           38.6534876470      -36.8703897874        5.4682975101  MEMB      96              0.0000000000
     11143        96  OSM       H13F           37.6909256129      -36.5019915113        5.8831200580  MEMB      96              0.0000000000
     11144        96  OSM       H13G           38.8185890145      -37.9040698440        5.8405448172  MEMB      96              0.0000000000
     11145        96  OSM       C14F           38.7811559352      -37.0720762541        3.9617131854  MEMB      96              0.0000000000
     11146        96  OSM       H14F           38.0918641902      -37.8196256452        3.5140896641  MEMB      96              0.0000000000
     11147        96  OSM       H14G           39.7784635565      -37.5539494284        3.8751286260  MEMB      96              0.0000000000
     11148        96  OSM       C15F           38.7585860546      -35.7949113556        3.0676505559  MEMB      96              0.0000000000
     11149        96  OSM       H15F           39.4942183479      -35.0011822593        3.3189680542  MEMB      96              0.0000000000
     11150        96  OSM       H15G           37.8251064751      -35.2535731908        3.3320180334  MEMB      96              0.0000000000
     11151        96  OSM       C16F           38.7710819370      -36.0066772716        1.5855908207  MEMB      96              0.0000000000
     11152        96  OSM       H16F           38.0329044817      -36.7904784830        1.3116006361  MEMB      96              0.0000000000
     11153        96  OSM       H16G           39.7809167623      -36.3732622112        1.3024479686  MEMB      96              0.0000000000
     11154        96  OSM       C17F           38.4091611867      -34.7520812421        0.6607907019  MEMB      96              0.0000000000
     11155        96  OSM       H17F           37.3584920729      -34.6720998249        1.0129540160  MEMB      96              0.0000000000
     11156        96  OSM       H17G           38.4825481419      -35.0202826755       -0.4148491839  MEMB      96              0.0000000000
     11157        96  OSM       C18F           39.1030050746      -33.4305665941        0.9821251389  MEMB      96              0.0000000000
     11158        96  OSM       H18F           38.8210997851      -32.7338193952        1.8002886528  MEMB      96              0.0000000000
     11159        96  OSM       H18G           39.1316254325      -32.7719581450        0.0878439554  MEMB      96              0.0000000000
     11160        96  OSM       H18H           40.1902951626      -33.6178743872        1.1126519554  MEMB      96              0.0000000000
     11161        97  OSM       N              -0.0819196806        3.4485735906      -20.8575089935  MEMB      97              0.0000000000
     11162        97  OSM       C15            -0.2068867131        2.1331126030      -21.6210486253  MEMB      97              0.0000000000
     11163        97  OSM       H15A            0.6952240502        1.5461439750      -21.5312468703  MEMB      97              0.0000000000
     11164        97  OSM       H15B           -0.3857729603        2.6043216569      -22.5762249278  MEMB      97              0.0000000000
     11165        97  OSM       H15C           -0.9856733677        1.4804656562      -21.2550660929  MEMB      97              0.0000000000
     11166        97  OSM       C14            -0.1084207479        3.2110908595      -19.3861055652  MEMB      97              0.0000000000
     11167        97  OSM       H14A           -1.0847754093        2.9612613427      -18.9978829668  MEMB      97              0.0000000000
     11168        97  OSM       H14B            0.1310993752        4.1630343924      -18.9357350382  MEMB      97              0.0000000000
     11169        97  OSM       H14C            0.6762288158        2.5103238286      -19.1418707935  MEMB      97              0.0000000000
     11170        97  OSM       C13             1.2543394319        3.9065058538      -21.2200725882  MEMB      97              0.0000000000
     11171        97  OSM       H13A            1.3353022398        3.9409702968      -22.2964819959  MEMB      97              0.0000000000
     11172        97  OSM       H13B            1.9638916199        3.2035871356      -20.8091699251  MEMB      97              0.0000000000
     11173        97  OSM       H13C            1.3739650955        4.8777511391      -20.7631562024  MEMB      97              0.0000000000
     11174        97  OSM       C12            -1.0772929428        4.5536923166      -21.3049166437  MEMB      97              0.0000000000
     11175        97  OSM       H12A           -1.1170411234        4.4567933578      -22.3798262531  MEMB      97              0.0000000000
     11176        97  OSM       H12B           -0.7230991052        5.5496520663      -21.0835329802  MEMB      97              0.0000000000
     11177        97  OSM       C11            -2.5307546819        4.4856180449      -20.8539540862  MEMB      97              0.0000000000
     11178        97  OSM       H11A           -3.0016951027        5.2727386415      -21.4808330880  MEMB      97              0.0000000000
     11179        97  OSM       H11B           -2.7489289726        4.7661547257      -19.8013287486  MEMB      97              0.0000000000
     11180        97  OSM       P              -4.6149325909        2.9323002007      -21.2351418766  MEMB      97              0.0000000000
     11181        97  OSM       O13            -5.2740003105        3.9918894642      -22.1352703318  MEMB      97              0.0000000000
     11182        97  OSM       O14            -4.8078126072        1.4905456692      -21.5707191602  MEMB      97              0.0000000000
     11183        97  OSM       O11            -5.0398144207        3.2316622940      -19.7044372199  MEMB      97              0.0000000000
     11184        97  OSM       O12            -3.0562521954        3.2487649387      -21.1108249135  MEMB      97              0.0000000000
     11185        97  OSM       C1S            -4.8938995335        2.2101657638      -18.7416384944  MEMB      97              0.0000000000
     11186        97  OSM       H1S            -4.1411988276        1.4319258907      -18.9908480565  MEMB      97              0.0000000000
     11187        97  OSM       H1T            -5.8325170158        1.6441289345      -18.5601987727  MEMB      97              0.0000000000
     11188        97  OSM       NF             -4.5574916455        1.5782405143      -16.3828579916  MEMB      97              0.0000000000
     11189        97  OSM       HNF            -5.3078712037        1.4816859625      -15.7335379124  MEMB      97              0.0000000000
     11190        97  OSM       C2S            -4.6245972670        2.7406915919      -17.2938069932  MEMB      97              0.0000000000
     11191        97  OSM       H2S            -3.6392107409        3.2312444291      -17.4444462693  MEMB      97              0.0000000000
     11192        97  OSM       C3S            -5.6751718315        3.7606177538      -16.8103471143  MEMB      97              0.0000000000
     11193        97  OSM       H3S            -6.6346561542        3.2181170697      -16.9496428357  MEMB      97              0.0000000000
     11194        97  OSM       O3             -5.6616793024        4.9171676919      -17.5741115808  MEMB      97              0.0000000000
     11195        97  OSM       HO3            -5.0324341415        4.7446864064      -18.2783137368  MEMB      97              0.0000000000
     11196        97  OSM       C4S            -5.2932973511        4.1018388309      -15.4177642614  MEMB      97              0.0000000000
     11197        97  OSM       H4S            -4.3216724118        4.5994798557      -15.2824925676  MEMB      97              0.0000000000
     11198        97  OSM       C5S            -5.9937090611        3.7566237899      -14.3159437260  MEMB      97              0.0000000000
     11199        97  OSM       H5S            -6.9636754465        3.2395017628      -14.3577763574  MEMB      97              0.0000000000
     11200        97  OSM       C6S            -5.5976240774        4.1093514927      -12.9380611461  MEMB      97              0.0000000000
     11201        97  OSM       H6S            -6.5028148015        4.1045613383      -12.2939121877  MEMB      97              0.0000000000
     11202        97  OSM       H6T            -5.2084610478        5.1492052145      -12.8983471919  MEMB      97              0.0000000000
     11203        97  OSM       C7S            -4.5745765179        3.2781611575      -12.2226950007  MEMB      97              0.0000000000
     11204        97  OSM       H7S            -3.5298435721        3.4826095684      -12.5405865362  MEMB      97              0.0000000000
     11205        97  OSM       H7T            -4.7566678435        2.1933201913      -12.3785278197  MEMB      97              0.0000000000
     11206        97  OSM       C8S            -4.6255663239        3.4435083366      -10.6387843735  MEMB      97              0.0000000000
     11207        97  OSM       H8S            -5.6590974241        3.1767057888      -10.3306440337  MEMB      97              0.0000000000
     11208        97  OSM       H8T            -4.4276047743        4.5032902568      -10.3704668971  MEMB      97              0.0000000000
     11209        97  OSM       C9S            -3.5603674026        2.5742536897       -9.9628045680  MEMB      97              0.0000000000
     11210        97  OSM       H9S            -3.5143490806        1.5318479050      -10.3443719886  MEMB      97              0.0000000000
     11211        97  OSM       H9T            -3.8207328147        2.3970598526       -8.8973788366  MEMB      97              0.0000000000
     11212        97  OSM       C10S           -2.0959704029        3.0574330429      -10.0202734692  MEMB      97              0.0000000000
     11213        97  OSM       H10S           -1.7525208663        3.2794633909      -11.0532622832  MEMB      97              0.0000000000
     11214        97  OSM       H10T           -1.5468545620        2.1311771503       -9.7467003116  MEMB      97              0.0000000000
     11215        97  OSM       C11S           -1.8048966098        4.2025218456       -8.9702905889  MEMB      97              0.0000000000
     11216        97  OSM       H11S           -2.3497795879        4.1223574550       -8.0054089776  MEMB      97              0.0000000000
     11217        97  OSM       H11T           -2.1965214782        5.1451301049       -9.4089714605  MEMB      97              0.0000000000
     11218        97  OSM       C12S           -0.4027115764        4.4664299101       -8.5963241826  MEMB      97              0.0000000000
     11219        97  OSM       H12S           -0.2229571777        5.3228718620       -7.9118416755  MEMB      97              0.0000000000
     11220        97  OSM       H12T            0.2964453532        4.5360573491       -9.4569356372  MEMB      97              0.0000000000
     11221        97  OSM       C13S            0.0979110054        3.2406400782       -7.8980699847  MEMB      97              0.0000000000
     11222        97  OSM       H13S            1.1521166792        3.3930939302       -7.5822705143  MEMB      97              0.0000000000
     11223        97  OSM       H13T            0.1155980826        2.4411590597       -8.6693279324  MEMB      97              0.0000000000
     11224        97  OSM       C14S           -0.7107445041        2.6449523254       -6.6606752637  MEMB      97              0.0000000000
     11225        97  OSM       H14S           -1.6562308530        2.1492198107       -6.9682886733  MEMB      97              0.0000000000
     11226        97  OSM       H14T           -0.9544316776        3.3957756523       -5.8788815852  MEMB      97              0.0000000000
     11227        97  OSM       C15S            0.1891581353        1.6004731954       -6.0410724711  MEMB      97              0.0000000000
     11228        97  OSM       H15S            1.2149040529        2.0156765596       -5.9422156096  MEMB      97              0.0000000000
     11229        97  OSM       H15T            0.2922293735        0.8138669972       -6.8188560279  MEMB      97              0.0000000000
     11230        97  OSM       C16S           -0.4709956629        1.1090958428       -4.7573692595  MEMB      97              0.0000000000
     11231        97  OSM       H16S           -1.5144802834        0.7959347429       -4.9750650865  MEMB      97              0.0000000000
     11232        97  OSM       H16T           -0.3188019403        1.9984555365       -4.1091439638  MEMB      97              0.0000000000
     11233        97  OSM       C17S            0.3186130085       -0.1385535887       -4.1547090411  MEMB      97              0.0000000000
     11234        97  OSM       H17S            1.4154010131       -0.0672966405       -4.3168804156  MEMB      97              0.0000000000
     11235        97  OSM       H17T           -0.0263848039       -1.0661398496       -4.6595666610  MEMB      97              0.0000000000
     11236        97  OSM       C18S            0.0199046108       -0.1845283653       -2.6986848980  MEMB      97              0.0000000000
     11237        97  OSM       H18S            0.2925282514       -1.1576998510       -2.2372368553  MEMB      97              0.0000000000
     11238        97  OSM       H18T           -1.0600179719       -0.0413222784       -2.4805559379  MEMB      97              0.0000000000
     11239        97  OSM       H18U            0.4627959302        0.6815907574       -2.1620235746  MEMB      97              0.0000000000
     11240        97  OSM       C1F            -3.5945501772        0.6212370194      -16.5508847522  MEMB      97              0.0000000000
     11241        97  OSM       OF             -2.5899066684        0.8029679383      -17.2427150893  MEMB      97              0.0000000000
     11242        97  OSM       C2F            -3.9141812898       -0.7561775927      -15.8937560747  MEMB      97              0.0000000000
     11243        97  OSM       H2F            -4.1243184773       -1.5226064146      -16.6701258405  MEMB      97              0.0000000000
     11244        97  OSM       H2G            -4.7132342302       -0.7842555353      -15.1223630803  MEMB      97              0.0000000000
     11245        97  OSM       C3F            -2.6070960207       -1.2366778626      -15.1406332319  MEMB      97              0.0000000000
     11246        97  OSM       H3F            -1.6999173306       -1.1810053977      -15.7795764369  MEMB      97              0.0000000000
     11247        97  OSM       H3G            -2.8442527553       -2.2688569055      -14.8049491477  MEMB      97              0.0000000000
     11248        97  OSM       C4F            -2.3782323255       -0.4479914016      -13.8429564738  MEMB      97              0.0000000000
     11249        97  OSM       H4F            -3.4145145153       -0.1826706266      -13.5428813585  MEMB      97              0.0000000000
     11250        97  OSM       H4G            -1.8382733861        0.4331558579      -14.2508105383  MEMB      97              0.0000000000
     11251        97  OSM       C5F            -1.5021035628       -1.0164959288      -12.7589381087  MEMB      97              0.0000000000
     11252        97  OSM       H5F            -0.9385327745       -0.1796784097      -12.2937012671  MEMB      97              0.0000000000
     11253        97  OSM       H5G            -0.7976785892       -1.7017740287      -13.2771090864  MEMB      97              0.0000000000
     11254        97  OSM       C6F            -2.1844141741       -1.9228832834      -11.7626422626  MEMB      97              0.0000000000
     11255        97  OSM       H6F            -1.4382163299       -2.4403464524      -11.1225320251  MEMB      97              0.0000000000
     11256        97  OSM       H6G            -2.6431070498       -2.7297807207      -12.3732473303  MEMB      97              0.0000000000
     11257        97  OSM       C7F            -3.2917892394       -1.3061034257      -10.8559735393  MEMB      97              0.0000000000
     11258        97  OSM       H7F            -4.1370280475       -0.8713580177      -11.4312039093  MEMB      97              0.0000000000
     11259        97  OSM       H7G            -2.8160221926       -0.5001622773      -10.2572869205  MEMB      97              0.0000000000
     11260        97  OSM       C8F            -3.9753721156       -2.2950930679       -9.9114473529  MEMB      97              0.0000000000
     11261        97  OSM       H8F            -4.2089929561       -3.2338263423      -10.4578196637  MEMB      97              0.0000000000
     11262        97  OSM       H8G            -5.0156080718       -1.9441432230       -9.7409654231  MEMB      97              0.0000000000
     11263        97  OSM       C9F            -3.2130664165       -2.4754160025       -8.6149678493  MEMB      97              0.0000000000
     11264        97  OSM       H9F            -2.4141018770       -3.2274273581       -8.6932917214  MEMB      97              0.0000000000
     11265        97  OSM       C10F           -3.4644922134       -1.9673309760       -7.3346148745  MEMB      97              0.0000000000
     11266        97  OSM       H10F           -2.8112077209       -2.3444964738       -6.5340124265  MEMB      97              0.0000000000
     11267        97  OSM       C11F           -4.5952033536       -1.0226651147       -7.0082461204  MEMB      97              0.0000000000
     11268        97  OSM       H11F           -5.2657556743       -1.4599848422       -6.2379000210  MEMB      97              0.0000000000
     11269        97  OSM       H11G           -5.2750026071       -0.7526989450       -7.8444946091  MEMB      97              0.0000000000
     11270        97  OSM       C12F           -4.2051769981        0.2938995070       -6.3171183055  MEMB      97              0.0000000000
     11271        97  OSM       H12F           -3.4314266675        0.9124148106       -6.8201789061  MEMB      97              0.0000000000
     11272        97  OSM       H12G           -3.6880804181        0.1035021922       -5.3524001611  MEMB      97              0.0000000000
     11273        97  OSM       C13F           -5.3899490048        1.1850690162       -6.0898262008  MEMB      97              0.0000000000
     11274        97  OSM       H13F           -6.0286031634        0.6549077402       -5.3513340114  MEMB      97              0.0000000000
     11275        97  OSM       H13G           -5.9820448593        1.2237515327       -7.0291060290  MEMB      97              0.0000000000
     11276        97  OSM       C14F           -4.9706051258        2.5231712800       -5.4846806902  MEMB      97              0.0000000000
     11277        97  OSM       H14F           -5.8431578368        3.1949906764       -5.6317584639  MEMB      97              0.0000000000
     11278        97  OSM       H14G           -4.0804577788        2.9310090201       -6.0096832946  MEMB      97              0.0000000000
     11279        97  OSM       C15F           -4.6129050091        2.4651590547       -3.9664538133  MEMB      97              0.0000000000
     11280        97  OSM       H15F           -3.7061027476        1.8772868910       -3.7087025562  MEMB      97              0.0000000000
     11281        97  OSM       H15G           -5.4621824314        1.8690127999       -3.5693927509  MEMB      97              0.0000000000
     11282        97  OSM       C16F           -4.4556067096        3.8405755020       -3.5344984389  MEMB      97              0.0000000000
     11283        97  OSM       H16F           -5.1696180400        4.0064303799       -2.6996329454  MEMB      97              0.0000000000
     11284        97  OSM       H16G           -4.6465074159        4.6274333702       -4.2952433217  MEMB      97              0.0000000000
     11285        97  OSM       C17F           -3.0505231821        4.2189199091       -2.9585796638  MEMB      97              0.0000000000
     11286        97  OSM       H17F           -3.1491300776        5.3243758515       -2.9079352994  MEMB      97              0.0000000000
     11287        97  OSM       H17G           -2.1921034019        3.9538328646       -3.6121591270  MEMB      97              0.0000000000
     11288        97  OSM       C18F           -2.7593298903        3.7135399375       -1.5713707328  MEMB      97              0.0000000000
     11289        97  OSM       H18F           -3.6058774403        4.0232620796       -0.9219470426  MEMB      97              0.0000000000
     11290        97  OSM       H18G           -1.7709750329        4.1322350594       -1.2847186802  MEMB      97              0.0000000000
     11291        97  OSM       H18H           -2.7573930295        2.6114838009       -1.4306956563  MEMB      97              0.0000000000
     11292        98  CHL1      C3              0.2418818224       -4.6187594204      -17.2939950000  MEMB      98              0.0000000000
     11293        98  CHL1      H3              0.7071037976       -3.6673028207      -16.9584150000  MEMB      98              0.0000000000
     11294        98  CHL1      O3              0.3415264656       -4.6817107196      -18.7060050000  MEMB      98              0.0000000000
     11295        98  CHL1      H3'             1.2532938529       -4.4407920192      -18.8855950000  MEMB      98              0.0000000000
     11296        98  CHL1      C4              1.0136402757       -5.7629062803      -16.5437150000  MEMB      98              0.0000000000
     11297        98  CHL1      H4A             0.7574560744       -6.7750736586      -16.9234550000  MEMB      98              0.0000000000
     11298        98  CHL1      H4B             2.0829822753       -5.6977178381      -16.8379550000  MEMB      98              0.0000000000
     11299        98  CHL1      C5              0.9331803293       -5.6234906789      -15.0729650000  MEMB      98              0.0000000000
     11300        98  CHL1      C6              1.9499861879       -5.3422623910      -14.2284250000  MEMB      98              0.0000000000
     11301        98  CHL1      H6              3.0143211920       -5.3720241399      -14.5046750000  MEMB      98              0.0000000000
     11302        98  CHL1      C7              1.7645698998       -5.2149207585      -12.7555550000  MEMB      98              0.0000000000
     11303        98  CHL1      H7A             2.6018540603       -5.7181818956      -12.2263950000  MEMB      98              0.0000000000
     11304        98  CHL1      H7B             1.8282769817       -4.1605227996      -12.4112950000  MEMB      98              0.0000000000
     11305        98  CHL1      C8              0.4298383662       -5.6706498949      -12.2309650000  MEMB      98              0.0000000000
     11306        98  CHL1      H8              0.4152702397       -6.7781225141      -12.1436950000  MEMB      98              0.0000000000
     11307        98  CHL1      C14             0.0870230723       -5.0663240414      -10.8504050000  MEMB      98              0.0000000000
     11308        98  CHL1      H14            -0.0694689661       -3.9942182905      -11.0962050000  MEMB      98              0.0000000000
     11309        98  CHL1      C15             1.2414323893       -5.1373444992       -9.8226450000  MEMB      98              0.0000000000
     11310        98  CHL1      H15A            1.8957531138       -6.0346364585       -9.8553450000  MEMB      98              0.0000000000
     11311        98  CHL1      H15B            1.9932208619       -4.3311789183       -9.9612950000  MEMB      98              0.0000000000
     11312        98  CHL1      C16             0.4939819542       -4.9459782190       -8.4553650000  MEMB      98              0.0000000000
     11313        98  CHL1      H16A            0.7416701265       -5.7380368838       -7.7167050000  MEMB      98              0.0000000000
     11314        98  CHL1      H16B            0.8254079545       -3.9505059620       -8.0899850000  MEMB      98              0.0000000000
     11315        98  CHL1      C17            -1.0173507092       -4.8460955755       -8.7621950000  MEMB      98              0.0000000000
     11316        98  CHL1      H17            -1.1320259930       -3.7696292363       -9.0119550000  MEMB      98              0.0000000000
     11317        98  CHL1      C13            -1.1842955951       -5.4821857273      -10.1480550000  MEMB      98              0.0000000000
     11318        98  CHL1      C18            -1.2806255476       -7.0363223646       -9.9633950000  MEMB      98              0.0000000000
     11319        98  CHL1      H18A           -0.6311924021       -7.3405249681       -9.1148650000  MEMB      98              0.0000000000
     11320        98  CHL1      H18B           -2.3302646117       -7.3053378059       -9.7180150000  MEMB      98              0.0000000000
     11321        98  CHL1      H18C           -0.9594483257       -7.5455295961      -10.8971350000  MEMB      98              0.0000000000
     11322        98  CHL1      C12            -2.3048620605       -4.9860633196      -11.1075050000  MEMB      98              0.0000000000
     11323        98  CHL1      H12A           -3.3419545310       -5.2898441458      -10.8496550000  MEMB      98              0.0000000000
     11324        98  CHL1      H12B           -2.2704722247       -3.8801391967      -11.0071150000  MEMB      98              0.0000000000
     11325        98  CHL1      C11            -2.1470941741       -5.5926600967      -12.5039250000  MEMB      98              0.0000000000
     11326        98  CHL1      H11A           -2.2822243652       -6.6951073218      -12.4780750000  MEMB      98              0.0000000000
     11327        98  CHL1      H11B           -2.9693445679       -5.1251339167      -13.0867250000  MEMB      98              0.0000000000
     11328        98  CHL1      C9             -0.7296142579       -5.2309656840      -13.1542050000  MEMB      98              0.0000000000
     11329        98  CHL1      H9             -0.6283184836       -4.1247680929      -13.1342950000  MEMB      98              0.0000000000
     11330        98  CHL1      C10            -0.5734403714       -5.6904482512      -14.6326150000  MEMB      98              0.0000000000
     11331        98  CHL1      C19            -1.1594409018       -7.1681587732      -14.8102150000  MEMB      98              0.0000000000
     11332        98  CHL1      H19A           -0.5856400178       -7.8884451162      -14.1887150000  MEMB      98              0.0000000000
     11333        98  CHL1      H19B           -2.1732168966       -7.2150040017      -14.3581350000  MEMB      98              0.0000000000
     11334        98  CHL1      H19C           -1.2378141654       -7.5134323616      -15.8632950000  MEMB      98              0.0000000000
     11335        98  CHL1      C1             -1.5552259904       -4.6665824877      -15.4298250000  MEMB      98              0.0000000000
     11336        98  CHL1      H1A            -2.6278996742       -4.9190404052      -15.2885450000  MEMB      98              0.0000000000
     11337        98  CHL1      H1B            -1.4442084902       -3.7133317192      -14.8700850000  MEMB      98              0.0000000000
     11338        98  CHL1      C2             -1.2372857965       -4.5674107270      -16.9224350000  MEMB      98              0.0000000000
     11339        98  CHL1      H2A            -1.6414085499       -3.6065171597      -17.3067250000  MEMB      98              0.0000000000
     11340        98  CHL1      H2B            -1.8288404991       -5.4292309425      -17.2988250000  MEMB      98              0.0000000000
     11341        98  CHL1      C20            -1.9602344584       -5.2065634730       -7.6242550000  MEMB      98              0.0000000000
     11342        98  CHL1      H20            -1.9140008838       -6.2962588163       -7.4126950000  MEMB      98              0.0000000000
     11343        98  CHL1      C21            -3.4043868816       -4.9094031179       -7.9722350000  MEMB      98              0.0000000000
     11344        98  CHL1      H21A           -3.5989693845       -3.8799071665       -8.3418250000  MEMB      98              0.0000000000
     11345        98  CHL1      H21B           -4.0595051089       -5.0831854314       -7.0919250000  MEMB      98              0.0000000000
     11346        98  CHL1      H21C           -3.6332255347       -5.6247460683       -8.7909050000  MEMB      98              0.0000000000
     11347        98  CHL1      C22            -1.5172193413       -4.5739941130       -6.2195050000  MEMB      98              0.0000000000
     11348        98  CHL1      H22A           -0.8137914891       -3.7240907179       -6.3505550000  MEMB      98              0.0000000000
     11349        98  CHL1      H22B           -2.4190561568       -4.0773437507       -5.8019350000  MEMB      98              0.0000000000
     11350        98  CHL1      C23            -1.1898412929       -5.5082373306       -5.1103650000  MEMB      98              0.0000000000
     11351        98  CHL1      H23A           -2.0595581828       -6.1673743346       -4.9019150000  MEMB      98              0.0000000000
     11352        98  CHL1      H23B           -0.4010275060       -6.1915283913       -5.4914150000  MEMB      98              0.0000000000
     11353        98  CHL1      C24            -0.7288037530       -4.6402782937       -3.8518750000  MEMB      98              0.0000000000
     11354        98  CHL1      H24A            0.1190612528       -3.9873748813       -4.1504450000  MEMB      98              0.0000000000
     11355        98  CHL1      H24B           -1.6366634140       -4.0436172854       -3.6192650000  MEMB      98              0.0000000000
     11356        98  CHL1      C25            -0.2291605033       -5.4948119584       -2.6502250000  MEMB      98              0.0000000000
     11357        98  CHL1      H25            -0.9296603120       -6.3236982994       -2.4123750000  MEMB      98              0.0000000000
     11358        98  CHL1      C26             1.2509273600       -6.0599539499       -2.9350750000  MEMB      98              0.0000000000
     11359        98  CHL1      H26A            1.8855626359       -5.1709689281       -3.1382350000  MEMB      98              0.0000000000
     11360        98  CHL1      H26B            1.6979187901       -6.5038851674       -2.0199550000  MEMB      98              0.0000000000
     11361        98  CHL1      H26C            1.3811576720       -6.8390579573       -3.7163250000  MEMB      98              0.0000000000
     11362        98  CHL1      C27            -0.1213110780       -4.6761990765       -1.3753250000  MEMB      98              0.0000000000
     11363        98  CHL1      H27A            0.6863868291       -3.9290187491       -1.5292350000  MEMB      98              0.0000000000
     11364        98  CHL1      H27B           -1.0809550676       -4.1491128632       -1.1867250000  MEMB      98              0.0000000000
     11365        98  CHL1      H27C            0.2008796943       -5.3482499069       -0.5513950000  MEMB      98              0.0000000000
     11366        99  SLPC      N               5.7594822649        1.0840641242      -19.2478700403  MEMB      99              0.0000000000
     11367        99  SLPC      C13             5.4831354847        2.5129114348      -19.6729721125  MEMB      99              0.0000000000
     11368        99  SLPC      H13A            4.4786096758        2.4758149848      -20.0678794270  MEMB      99              0.0000000000
     11369        99  SLPC      H13B            5.6625844365        3.1170923466      -18.7959524313  MEMB      99              0.0000000000
     11370        99  SLPC      H13C            6.1627625243        2.8800085653      -20.4277878898  MEMB      99              0.0000000000
     11371        99  SLPC      C14             7.1203062672        1.1141423511      -18.6754912175  MEMB      99              0.0000000000
     11372        99  SLPC      H14A            7.1826685467        1.7381100796      -17.7961873876  MEMB      99              0.0000000000
     11373        99  SLPC      H14B            7.3391896478        0.0806078040      -18.4512230742  MEMB      99              0.0000000000
     11374        99  SLPC      H14C            7.8359784585        1.4988299112      -19.3869887168  MEMB      99              0.0000000000
     11375        99  SLPC      C15             5.7888308662        0.1555585320      -20.4233690881  MEMB      99              0.0000000000
     11376        99  SLPC      H15A            6.1343787270       -0.8072784474      -20.0770433559  MEMB      99              0.0000000000
     11377        99  SLPC      H15B            4.8288572311        0.0883416747      -20.9136061326  MEMB      99              0.0000000000
     11378        99  SLPC      H15C            6.4898185979        0.5629871556      -21.1368241146  MEMB      99              0.0000000000
     11379        99  SLPC      C12             4.7751062638        0.5716409480      -18.2989032177  MEMB      99              0.0000000000
     11380        99  SLPC      H12A            5.0349002441       -0.3687254330      -17.8356344032  MEMB      99              0.0000000000
     11381        99  SLPC      H12B            3.9398307004        0.2929516417      -18.9242407991  MEMB      99              0.0000000000
     11382        99  SLPC      C11             4.2408159495        1.5178387472      -17.1651723666  MEMB      99              0.0000000000
     11383        99  SLPC      H11A            3.3423470313        1.0478306056      -16.7111163559  MEMB      99              0.0000000000
     11384        99  SLPC      H11B            3.9372282456        2.5284981939      -17.5126244740  MEMB      99              0.0000000000
     11385        99  SLPC      P               4.8808211425        2.3667590014      -14.6991500310  MEMB      99              0.0000000000
     11386        99  SLPC      O13             3.6359852603        3.0983119376      -14.5053961255  MEMB      99              0.0000000000
     11387        99  SLPC      O14             5.0410970159        1.2500963810      -13.7487040521  MEMB      99              0.0000000000
     11388        99  SLPC      O12             5.1691792658        1.6550247460      -16.0209803692  MEMB      99              0.0000000000
     11389        99  SLPC      O11             6.1125372998        3.2871660121      -14.5419913828  MEMB      99              0.0000000000
     11390        99  SLPC      C1              7.3137596957        2.8933470912      -15.1539142020  MEMB      99              0.0000000000
     11391        99  SLPC      HA              7.5948691209        1.8622948690      -14.8502207884  MEMB      99              0.0000000000
     11392        99  SLPC      HB              7.2721726875        2.9751284384      -16.2611194341  MEMB      99              0.0000000000
     11393        99  SLPC      C2              8.3616189657        3.8757646596      -14.5285157008  MEMB      99              0.0000000000
     11394        99  SLPC      HS              9.3097899401        3.6786458051      -15.0729758637  MEMB      99              0.0000000000
     11395        99  SLPC      O21             8.6246341247        3.5060805700      -13.1805541896  MEMB      99              0.0000000000
     11396        99  SLPC      C21             9.8065930745        3.8284907960      -12.6619598126  MEMB      99              0.0000000000
     11397        99  SLPC      O22            10.6364261246        4.4649619799      -13.2500591622  MEMB      99              0.0000000000
     11398        99  SLPC      C22             9.8624954956        3.1473644233      -11.2439463324  MEMB      99              0.0000000000
     11399        99  SLPC      H2R             9.7272727499        2.0522539267      -11.3734400007  MEMB      99              0.0000000000
     11400        99  SLPC      H2S            10.8883126852        3.3339037053      -10.8602488631  MEMB      99              0.0000000000
     11401        99  SLPC      C3              7.9449675971        5.3226707728      -14.5846730673  MEMB      99              0.0000000000
     11402        99  SLPC      HX              7.6514824926        5.5401999073      -15.6338957475  MEMB      99              0.0000000000
     11403        99  SLPC      HY              8.8767332053        5.9144430035      -14.4584199553  MEMB      99              0.0000000000
     11404        99  SLPC      O31             6.9664640921        5.6212733553      -13.5469323820  MEMB      99              0.0000000000
     11405        99  SLPC      C31             5.9077890415        6.2779379234      -13.7611206132  MEMB      99              0.0000000000
     11406        99  SLPC      O32             5.3375109588        6.4417051939      -14.8225080735  MEMB      99              0.0000000000
     11407        99  SLPC      C32             5.3237804211        6.8519379036      -12.4608336434  MEMB      99              0.0000000000
     11408        99  SLPC      H2X             4.8425535549        7.8154504894      -12.7335695462  MEMB      99              0.0000000000
     11409        99  SLPC      H2Y             6.1463063705        7.1885769090      -11.7941658528  MEMB      99              0.0000000000
     11410        99  SLPC      C23             8.7068618876        3.5737678549      -10.3479203738  MEMB      99              0.0000000000
     11411        99  SLPC      H3R             7.8571723302        2.9078342112      -10.6103723285  MEMB      99              0.0000000000
     11412        99  SLPC      H3S             8.4804763221        4.6560739097      -10.4560134215  MEMB      99              0.0000000000
     11413        99  SLPC      C24             9.0335848671        3.2526134950       -8.8207334063  MEMB      99              0.0000000000
     11414        99  SLPC      H4R             9.4855949674        2.2465663498       -8.6870290995  MEMB      99              0.0000000000
     11415        99  SLPC      H4S             8.1660872867        3.2035191839       -8.1283760066  MEMB      99              0.0000000000
     11416        99  SLPC      C25            10.0973160335        4.1978441019       -8.3143737742  MEMB      99              0.0000000000
     11417        99  SLPC      H5R            10.8135339279        4.4432576924       -9.1274704351  MEMB      99              0.0000000000
     11418        99  SLPC      H5S            10.6486956561        3.8654506342       -7.4089368778  MEMB      99              0.0000000000
     11419        99  SLPC      C26             9.6394599550        5.5686849835       -7.7334394788  MEMB      99              0.0000000000
     11420        99  SLPC      H6R             9.2667264094        6.2212696750       -8.5516840882  MEMB      99              0.0000000000
     11421        99  SLPC      H6S            10.5050338908        6.0493512442       -7.2293934940  MEMB      99              0.0000000000
     11422        99  SLPC      C27             8.4308064035        5.4495156866       -6.7348865948  MEMB      99              0.0000000000
     11423        99  SLPC      H7R             8.7407266850        4.6571973670       -6.0203923295  MEMB      99              0.0000000000
     11424        99  SLPC      H7S             7.4973396782        5.1949770802       -7.2809366091  MEMB      99              0.0000000000
     11425        99  SLPC      C28             8.3023859812        6.7376428224       -5.9180398935  MEMB      99              0.0000000000
     11426        99  SLPC      H8R             7.9664374442        7.5724714980       -6.5695930800  MEMB      99              0.0000000000
     11427        99  SLPC      H8S             9.2564419953        7.1177475669       -5.4942254174  MEMB      99              0.0000000000
     11428        99  SLPC      C29             7.1976851479        6.6330861095       -4.9394692374  MEMB      99              0.0000000000
     11429        99  SLPC      H9R             6.1799190833        6.5128111689       -5.3390757137  MEMB      99              0.0000000000
     11430        99  SLPC      C210            7.2917331713        6.4455502599       -3.6414568805  MEMB      99              0.0000000000
     11431        99  SLPC      H10R            6.4023947428        6.6288780944       -3.0205959369  MEMB      99              0.0000000000
     11432        99  SLPC      C211            8.5753028214        6.3196818184       -2.8171098536  MEMB      99              0.0000000000
     11433        99  SLPC      H11R            9.4515072106        6.2692508042       -3.4983175909  MEMB      99              0.0000000000
     11434        99  SLPC      H11S            8.5901457160        5.3566426045       -2.2633450947  MEMB      99              0.0000000000
     11435        99  SLPC      C212            8.6620194423        7.4919832593       -1.8284997267  MEMB      99              0.0000000000
     11436        99  SLPC      H12R            9.5201075499        8.1684177537       -1.9554695490  MEMB      99              0.0000000000
     11437        99  SLPC      C213            7.7850984012        7.6690367803       -0.7960948383  MEMB      99              0.0000000000
     11438        99  SLPC      H13R            7.8643298260        8.5199765119       -0.1035469646  MEMB      99              0.0000000000
     11439        99  SLPC      C214            6.5967936555        6.7084675091       -0.5280213706  MEMB      99              0.0000000000
     11440        99  SLPC      H14R            6.6739840224        5.6938865477       -0.9741025583  MEMB      99              0.0000000000
     11441        99  SLPC      H14S            5.7478106044        7.0635691643       -1.1504765023  MEMB      99              0.0000000000
     11442        99  SLPC      C215            6.1682195269        6.4559577656        0.9330108056  MEMB      99              0.0000000000
     11443        99  SLPC      H15R            5.1556471416        5.9991839466        0.9136277672  MEMB      99              0.0000000000
     11444        99  SLPC      H15S            6.1347795676        7.4084983361        1.5038595496  MEMB      99              0.0000000000
     11445        99  SLPC      C216            7.1471685085        5.6627167070        1.8456492541  MEMB      99              0.0000000000
     11446        99  SLPC      H16R            8.1370589390        6.1666682124        1.8673349750  MEMB      99              0.0000000000
     11447        99  SLPC      H16S            7.1376861824        4.6616440621        1.3638974639  MEMB      99              0.0000000000
     11448        99  SLPC      C217            6.7749558749        5.4417536194        3.3493114302  MEMB      99              0.0000000000
     11449        99  SLPC      H17R            6.8284734220        6.4249529099        3.8638750547  MEMB      99              0.0000000000
     11450        99  SLPC      H17S            7.5946331167        4.8099232769        3.7533395659  MEMB      99              0.0000000000
     11451        99  SLPC      C218            5.3759417951        4.8334317721        3.6886897763  MEMB      99              0.0000000000
     11452        99  SLPC      H18R            5.3081717586        3.8136182300        3.2531356512  MEMB      99              0.0000000000
     11453        99  SLPC      H18S            4.5242162091        5.4263513884        3.2920395382  MEMB      99              0.0000000000
     11454        99  SLPC      H18T            5.1431813608        4.6295545601        4.7557308306  MEMB      99              0.0000000000
     11455        99  SLPC      C33             4.5671947934        5.7262735254      -11.8258157767  MEMB      99              0.0000000000
     11456        99  SLPC      H3X             5.0855632233        4.7438027841      -11.8066821269  MEMB      99              0.0000000000
     11457        99  SLPC      H3Y             3.6535463771        5.5990686800      -12.4449979551  MEMB      99              0.0000000000
     11458        99  SLPC      C34             3.9828164750        5.9440383465      -10.3658708372  MEMB      99              0.0000000000
     11459        99  SLPC      H4X             3.3273651414        6.8408132113      -10.3882113177  MEMB      99              0.0000000000
     11460        99  SLPC      H4Y             4.8322305731        6.1030135829       -9.6676277559  MEMB      99              0.0000000000
     11461        99  SLPC      C35             3.0724531253        4.7983904904      -10.0476971710  MEMB      99              0.0000000000
     11462        99  SLPC      H5X             3.5185883518        3.7834396425      -10.1195234809  MEMB      99              0.0000000000
     11463        99  SLPC      H5Y             2.2936012710        4.7963593450      -10.8399764426  MEMB      99              0.0000000000
     11464        99  SLPC      C36             2.5050643987        4.8788350506       -8.6088294261  MEMB      99              0.0000000000
     11465        99  SLPC      H6X             1.8201066922        4.0088759648       -8.5175870455  MEMB      99              0.0000000000
     11466        99  SLPC      H6Y             1.8229780245        5.7556103430       -8.5902748504  MEMB      99              0.0000000000
     11467        99  SLPC      C37             3.5658634591        4.7980226304       -7.5302173754  MEMB      99              0.0000000000
     11468        99  SLPC      H7X             3.1382019539        5.0477666021       -6.5357052091  MEMB      99              0.0000000000
     11469        99  SLPC      H7Y             4.3884852498        5.5076663931       -7.7626398739  MEMB      99              0.0000000000
     11470        99  SLPC      C38             4.2498465948        3.3672975809       -7.4046939077  MEMB      99              0.0000000000
     11471        99  SLPC      H8X             4.7109900852        3.1785752824       -8.3976952268  MEMB      99              0.0000000000
     11472        99  SLPC      H8Y             3.4444421870        2.6432114867       -7.1570170918  MEMB      99              0.0000000000
     11473        99  SLPC      C39             5.3499005344        3.3018210684       -6.3336859224  MEMB      99              0.0000000000
     11474        99  SLPC      H9X             5.9460068259        4.2343394397       -6.4305769482  MEMB      99              0.0000000000
     11475        99  SLPC      H9Y             6.0601373266        2.4527179966       -6.4280722881  MEMB      99              0.0000000000
     11476        99  SLPC      C310            4.8486635377        3.1742941205       -4.9190926662  MEMB      99              0.0000000000
     11477        99  SLPC      H10X            4.0441693975        2.4083285319       -4.8989192275  MEMB      99              0.0000000000
     11478        99  SLPC      H10Y            4.4429816585        4.1800168804       -4.6777109253  MEMB      99              0.0000000000
     11479        99  SLPC      C311            6.0212852549        2.7711683788       -3.9736509370  MEMB      99              0.0000000000
     11480        99  SLPC      H11X            6.5786043482        3.6875314080       -3.6838315612  MEMB      99              0.0000000000
     11481        99  SLPC      H11Y            6.6626382179        2.1417219247       -4.6269384897  MEMB      99              0.0000000000
     11482        99  SLPC      C312            5.6159817388        1.9972475648       -2.7052943290  MEMB      99              0.0000000000
     11483        99  SLPC      H12X            5.2991013779        0.9777853758       -3.0128731818  MEMB      99              0.0000000000
     11484        99  SLPC      H12Y            4.7421708997        2.5536964240       -2.3038720778  MEMB      99              0.0000000000
     11485        99  SLPC      C313            6.6958917510        1.8258004409       -1.5655161820  MEMB      99              0.0000000000
     11486        99  SLPC      H13X            6.2398539898        1.3066165268       -0.6955745063  MEMB      99              0.0000000000
     11487        99  SLPC      H13Y            6.9880007637        2.8605518338       -1.2857257314  MEMB      99              0.0000000000
     11488        99  SLPC      C314            7.9226854200        1.1330687230       -2.0556151244  MEMB      99              0.0000000000
     11489        99  SLPC      H14X            8.2343313783        1.5391323585       -3.0416736586  MEMB      99              0.0000000000
     11490        99  SLPC      H14Y            7.5874983244        0.1086627108       -2.3249906093  MEMB      99              0.0000000000
     11491        99  SLPC      C315            9.1135919102        1.0812304579       -1.1617679748  MEMB      99              0.0000000000
     11492        99  SLPC      H15X            8.8365396746        0.6436796432       -0.1788576136  MEMB      99              0.0000000000
     11493        99  SLPC      H15Y            9.6182936530        2.0500962778       -0.9595398965  MEMB      99              0.0000000000
     11494        99  SLPC      C316           10.2175368939        0.1501648068       -1.6389044978  MEMB      99              0.0000000000
     11495        99  SLPC      H16X           10.8601525552        0.6725369978       -2.3795078124  MEMB      99              0.0000000000
     11496        99  SLPC      H16Y            9.7242002261       -0.7213467876       -2.1199529135  MEMB      99              0.0000000000
     11497        99  SLPC      C317           11.2948990839       -0.2092146245       -0.6123024434  MEMB      99              0.0000000000
     11498        99  SLPC      H17X           11.8959486593       -1.0512800618       -1.0172548228  MEMB      99              0.0000000000
     11499        99  SLPC      H17Y           10.9414317117       -0.4624682757        0.4100692162  MEMB      99              0.0000000000
     11500        99  SLPC      C318           12.2097304982        0.9875441601       -0.2462016692  MEMB      99              0.0000000000
     11501        99  SLPC      H18X           11.5944353806        1.6320873576        0.4173474782  MEMB      99              0.0000000000
     11502        99  SLPC      H18Y           12.5668119239        1.4876927454       -1.1717639519  MEMB      99              0.0000000000
     11503        99  SLPC      H18Z           13.0708767880        0.6292441570        0.3574299030  MEMB      99              0.0000000000
     11504       100  SLPC      N              -6.2068627733       -4.5625409242      -18.3255590889  MEMB      100             0.0000000000
     11505       100  SLPC      C13            -5.4178599043       -4.5231287219      -17.0571868924  MEMB      100             0.0000000000
     11506       100  SLPC      H13A           -5.0672168359       -5.5014296177      -16.7632878871  MEMB      100             0.0000000000
     11507       100  SLPC      H13B           -4.6439446346       -3.7708028646      -17.0189652714  MEMB      100             0.0000000000
     11508       100  SLPC      H13C           -6.2200183597       -4.3457245006      -16.3561380318  MEMB      100             0.0000000000
     11509       100  SLPC      C14            -7.1975636524       -5.6654062332      -18.2308087668  MEMB      100             0.0000000000
     11510       100  SLPC      H14A           -7.9615616686       -5.5796854805      -18.9893330241  MEMB      100             0.0000000000
     11511       100  SLPC      H14B           -6.6274943288       -6.5617231082      -18.4258407065  MEMB      100             0.0000000000
     11512       100  SLPC      H14C           -7.6358595550       -5.6661900402      -17.2437444819  MEMB      100             0.0000000000
     11513       100  SLPC      C15            -5.2820326767       -4.9386707984      -19.5006423132  MEMB      100             0.0000000000
     11514       100  SLPC      H15A           -4.9386345199       -5.9515327951      -19.3503486456  MEMB      100             0.0000000000
     11515       100  SLPC      H15B           -5.7971432380       -4.9609762156      -20.4496225615  MEMB      100             0.0000000000
     11516       100  SLPC      H15C           -4.4542478474       -4.2523887153      -19.6015837026  MEMB      100             0.0000000000
     11517       100  SLPC      C12            -6.8190672145       -3.1743944382      -18.6841785252  MEMB      100             0.0000000000
     11518       100  SLPC      H12A           -7.1871775792       -3.3483812469      -19.6844902184  MEMB      100             0.0000000000
     11519       100  SLPC      H12B           -6.0366413674       -2.4308836010      -18.7216144506  MEMB      100             0.0000000000
     11520       100  SLPC      C11            -7.9955319820       -2.5751111351      -17.7825424738  MEMB      100             0.0000000000
     11521       100  SLPC      H11A           -8.8216243889       -3.3042880415      -17.9246455402  MEMB      100             0.0000000000
     11522       100  SLPC      H11B           -8.2496736150       -1.6264137944      -18.3018751445  MEMB      100             0.0000000000
     11523       100  SLPC      P              -8.6910037354       -1.7056984838      -15.4631593239  MEMB      100             0.0000000000
     11524       100  SLPC      O13            -9.5164456322       -0.8879024878      -16.4073661916  MEMB      100             0.0000000000
     11525       100  SLPC      O14            -9.3740758067       -2.5713832233      -14.5629687591  MEMB      100             0.0000000000
     11526       100  SLPC      O12            -7.6532988546       -2.4794220240      -16.4033343433  MEMB      100             0.0000000000
     11527       100  SLPC      O11            -7.6960896507       -0.7968604300      -14.5822533059  MEMB      100             0.0000000000
     11528       100  SLPC      C1             -8.1713990249        0.2720300523      -13.7824801945  MEMB      100             0.0000000000
     11529       100  SLPC      HA             -8.3825956322        1.1537344811      -14.4245973176  MEMB      100             0.0000000000
     11530       100  SLPC      HB             -9.1723960115        0.1621210484      -13.3131764660  MEMB      100             0.0000000000
     11531       100  SLPC      C2             -7.1302202225        0.6594140804      -12.7426502576  MEMB      100             0.0000000000
     11532       100  SLPC      HS             -6.1280109890        0.7883008652      -13.2044789797  MEMB      100             0.0000000000
     11533       100  SLPC      O21            -7.0816336627       -0.3302047699      -11.7111319069  MEMB      100             0.0000000000
     11534       100  SLPC      C21            -6.3519358961       -1.3822277437      -11.8980682300  MEMB      100             0.0000000000
     11535       100  SLPC      O22            -5.7470337316       -1.7127373613      -12.8896720851  MEMB      100             0.0000000000
     11536       100  SLPC      C22            -6.6371256672       -2.2072724783      -10.6952873695  MEMB      100             0.0000000000
     11537       100  SLPC      H2R            -5.8687642976       -3.0046950006      -10.7850603290  MEMB      100             0.0000000000
     11538       100  SLPC      H2S            -6.4931048750       -1.5715452343       -9.7956042411  MEMB      100             0.0000000000
     11539       100  SLPC      C3             -7.3897095625        2.0346345950      -12.0708669468  MEMB      100             0.0000000000
     11540       100  SLPC      HX             -7.3065981475        2.8220375096      -12.8502326548  MEMB      100             0.0000000000
     11541       100  SLPC      HY             -6.5537745935        2.1023048693      -11.3422007302  MEMB      100             0.0000000000
     11542       100  SLPC      O31            -8.7048602156        2.2021067517      -11.6192565710  MEMB      100             0.0000000000
     11543       100  SLPC      C31            -8.7933748380        2.8368085824      -10.4747039291  MEMB      100             0.0000000000
     11544       100  SLPC      O32            -7.8684403531        3.4579845292      -10.0050770160  MEMB      100             0.0000000000
     11545       100  SLPC      C32           -10.1017608814        2.8838207335       -9.7942094306  MEMB      100             0.0000000000
     11546       100  SLPC      H2X           -10.8630481350        2.4068479984      -10.4478607620  MEMB      100             0.0000000000
     11547       100  SLPC      H2Y           -10.3869941498        3.9567610532       -9.8361795254  MEMB      100             0.0000000000
     11548       100  SLPC      C23            -8.0255416951       -2.8722243902      -10.7746828239  MEMB      100             0.0000000000
     11549       100  SLPC      H3R            -8.1077698918       -3.5467969015       -9.8957567737  MEMB      100             0.0000000000
     11550       100  SLPC      H3S            -8.1010439522       -3.3314049768      -11.7835304198  MEMB      100             0.0000000000
     11551       100  SLPC      C24            -9.2167815682       -1.9332072452      -10.6265521952  MEMB      100             0.0000000000
     11552       100  SLPC      H4R            -9.2320987079       -1.1688428862      -11.4326744321  MEMB      100             0.0000000000
     11553       100  SLPC      H4S            -9.0719922186       -1.3484056817       -9.6930832865  MEMB      100             0.0000000000
     11554       100  SLPC      C25           -10.5642326927       -2.6946668697      -10.5763754462  MEMB      100             0.0000000000
     11555       100  SLPC      H5R           -10.4339032740       -3.3582580098       -9.6949097039  MEMB      100             0.0000000000
     11556       100  SLPC      H5S           -10.7432863859       -3.2986602154      -11.4915000138  MEMB      100             0.0000000000
     11557       100  SLPC      C26           -11.8446420544       -1.8286422442      -10.2546584721  MEMB      100             0.0000000000
     11558       100  SLPC      H6R           -12.7782669421       -2.4289662909      -10.2069449569  MEMB      100             0.0000000000
     11559       100  SLPC      H6S           -11.8067730487       -1.0324301913      -11.0285662320  MEMB      100             0.0000000000
     11560       100  SLPC      C27           -11.7519470121       -0.9858490871       -8.9757181804  MEMB      100             0.0000000000
     11561       100  SLPC      H7R           -12.4523229939       -0.1517755397       -9.1950714026  MEMB      100             0.0000000000
     11562       100  SLPC      H7S           -10.7467111028       -0.6240161213       -8.6709242282  MEMB      100             0.0000000000
     11563       100  SLPC      C28           -12.4329582956       -1.5886460410       -7.7890277195  MEMB      100             0.0000000000
     11564       100  SLPC      H8R           -13.4475211042       -1.8814570905       -8.1343453699  MEMB      100             0.0000000000
     11565       100  SLPC      H8S           -12.6648314509       -0.7729612924       -7.0712439207  MEMB      100             0.0000000000
     11566       100  SLPC      C29           -11.7912927664       -2.6256286217       -6.9588000480  MEMB      100             0.0000000000
     11567       100  SLPC      H9R           -12.1424540176       -3.6644932652       -7.0450916309  MEMB      100             0.0000000000
     11568       100  SLPC      C210          -10.8356477440       -2.3954604596       -6.0639587026  MEMB      100             0.0000000000
     11569       100  SLPC      H10R          -10.4302104566       -3.2798562354       -5.5506709312  MEMB      100             0.0000000000
     11570       100  SLPC      C211          -10.2295376182       -1.0773846975       -5.6243209539  MEMB      100             0.0000000000
     11571       100  SLPC      H11R           -9.9715083429       -1.1168553080       -4.5444214044  MEMB      100             0.0000000000
     11572       100  SLPC      H11S          -10.9663264321       -0.2485370873       -5.6912152051  MEMB      100             0.0000000000
     11573       100  SLPC      C212           -9.0633278832       -0.6338561993       -6.4366078365  MEMB      100             0.0000000000
     11574       100  SLPC      H12R           -9.1242439448        0.2751337417       -7.0530710469  MEMB      100             0.0000000000
     11575       100  SLPC      C213           -7.8512047501       -1.2405322280       -6.5838297210  MEMB      100             0.0000000000
     11576       100  SLPC      H13R           -7.1154538425       -0.6676188324       -7.1673027173  MEMB      100             0.0000000000
     11577       100  SLPC      C214           -7.2827703230       -2.5284336857       -5.9865905044  MEMB      100             0.0000000000
     11578       100  SLPC      H14R           -6.7276964679       -3.0253205942       -6.8107976442  MEMB      100             0.0000000000
     11579       100  SLPC      H14S           -8.1396284216       -3.2040268995       -5.7775711426  MEMB      100             0.0000000000
     11580       100  SLPC      C215           -6.2952608130       -2.3543445060       -4.8519993972  MEMB      100             0.0000000000
     11581       100  SLPC      H15R           -5.4529860889       -1.6719065194       -5.0952531527  MEMB      100             0.0000000000
     11582       100  SLPC      H15S           -5.8878441729       -3.3343501173       -4.5234844755  MEMB      100             0.0000000000
     11583       100  SLPC      C216           -7.0238028224       -1.8667522484       -3.5566029699  MEMB      100             0.0000000000
     11584       100  SLPC      H16R           -7.9447333748       -2.4585885931       -3.3670304587  MEMB      100             0.0000000000
     11585       100  SLPC      H16S           -7.2971484010       -0.8078696556       -3.7524879523  MEMB      100             0.0000000000
     11586       100  SLPC      C217           -6.1400158525       -2.0810440798       -2.2061919591  MEMB      100             0.0000000000
     11587       100  SLPC      H17R           -5.3914192779       -1.2813539023       -2.0206654504  MEMB      100             0.0000000000
     11588       100  SLPC      H17S           -5.6402716576       -3.0465099383       -2.4352161413  MEMB      100             0.0000000000
     11589       100  SLPC      C218           -7.0586253510       -2.3036617781       -0.9930489736  MEMB      100             0.0000000000
     11590       100  SLPC      H18R           -7.5673404216       -1.3599008351       -0.7017667089  MEMB      100             0.0000000000
     11591       100  SLPC      H18S           -6.4937061872       -2.7300980806       -0.1366966420  MEMB      100             0.0000000000
     11592       100  SLPC      H18T           -7.7705856197       -3.1286315585       -1.2095169817  MEMB      100             0.0000000000
     11593       100  SLPC      C33           -10.0528019828        2.5212183678       -8.3235396325  MEMB      100             0.0000000000
     11594       100  SLPC      H3X           -10.1476395377        1.4230541508       -8.1843901118  MEMB      100             0.0000000000
     11595       100  SLPC      H3Y           -11.0773861259        2.8619900912       -8.0619620305  MEMB      100             0.0000000000
     11596       100  SLPC      C34            -9.1038816514        3.1749309157       -7.3770492813  MEMB      100             0.0000000000
     11597       100  SLPC      H4X            -8.6913256968        4.1747116641       -7.6311296819  MEMB      100             0.0000000000
     11598       100  SLPC      H4Y            -8.2480885224        2.4685390100       -7.3227379207  MEMB      100             0.0000000000
     11599       100  SLPC      C35            -9.5419046502        3.3722600373       -5.8898640620  MEMB      100             0.0000000000
     11600       100  SLPC      H5X            -9.9890026066        2.4032705860       -5.5808598061  MEMB      100             0.0000000000
     11601       100  SLPC      H5Y           -10.4219383908        4.0502303879       -5.8751053949  MEMB      100             0.0000000000
     11602       100  SLPC      C36            -8.5462359778        3.8807094986       -4.8876322539  MEMB      100             0.0000000000
     11603       100  SLPC      H6X            -8.4530989763        4.9638644173       -5.1165898220  MEMB      100             0.0000000000
     11604       100  SLPC      H6Y            -7.5386338012        3.4127456303       -4.8959369235  MEMB      100             0.0000000000
     11605       100  SLPC      C37            -9.0273514995        3.7704833056       -3.4149670453  MEMB      100             0.0000000000
     11606       100  SLPC      H7X           -10.0780646044        4.1281535055       -3.3660318176  MEMB      100             0.0000000000
     11607       100  SLPC      H7Y            -8.4851144840        4.5538647583       -2.8434656872  MEMB      100             0.0000000000
     11608       100  SLPC      C38            -8.8775415995        2.3904759890       -2.8317626838  MEMB      100             0.0000000000
     11609       100  SLPC      H8X            -7.7993990269        2.1223427168       -2.8259055514  MEMB      100             0.0000000000
     11610       100  SLPC      H8Y            -9.4429309835        1.6286758475       -3.4099642947  MEMB      100             0.0000000000
     11611       100  SLPC      C39            -9.3859677223        2.1252563606       -1.4244320297  MEMB      100             0.0000000000
     11612       100  SLPC      H9X            -9.5921510730        1.0353727941       -1.3614763881  MEMB      100             0.0000000000
     11613       100  SLPC      H9Y           -10.3210643682        2.6191517238       -1.0838689635  MEMB      100             0.0000000000
     11614       100  SLPC      C310           -8.4488397642        2.3878641614       -0.2873640084  MEMB      100             0.0000000000
     11615       100  SLPC      H10X           -8.9086423656        2.0078848898        0.6499303447  MEMB      100             0.0000000000
     11616       100  SLPC      H10Y           -8.1159572256        3.4303519314       -0.0957144594  MEMB      100             0.0000000000
     11617       100  SLPC      C311           -7.0188437347        1.7611931932       -0.3794826106  MEMB      100             0.0000000000
     11618       100  SLPC      H11X           -6.4365472501        2.4502766344       -1.0278784803  MEMB      100             0.0000000000
     11619       100  SLPC      H11Y           -6.9632564475        0.7328715146       -0.7963601422  MEMB      100             0.0000000000
     11620       100  SLPC      C312           -6.2891088491        1.6020588069        0.9840756083  MEMB      100             0.0000000000
     11621       100  SLPC      H12X           -6.5197040213        2.5115903731        1.5789700877  MEMB      100             0.0000000000
     11622       100  SLPC      H12Y           -5.1926000842        1.4232272624        0.9811215725  MEMB      100             0.0000000000
     11623       100  SLPC      C313           -6.9522828563        0.4458821026        1.8329241962  MEMB      100             0.0000000000
     11624       100  SLPC      H13X           -6.5448585444       -0.5307631633        1.4945602898  MEMB      100             0.0000000000
     11625       100  SLPC      H13Y           -8.0447628059        0.2590690047        1.7560508817  MEMB      100             0.0000000000
     11626       100  SLPC      C314           -6.9239664006        0.6015549488        3.4451164451  MEMB      100             0.0000000000
     11627       100  SLPC      H14X           -7.4149867931        1.5627005771        3.7085911558  MEMB      100             0.0000000000
     11628       100  SLPC      H14Y           -5.8588275626        0.6048877155        3.7610101565  MEMB      100             0.0000000000
     11629       100  SLPC      C315           -7.7642665055       -0.5682993652        4.1694385013  MEMB      100             0.0000000000
     11630       100  SLPC      H15X           -7.4502427412       -0.6815084417        5.2291051847  MEMB      100             0.0000000000
     11631       100  SLPC      H15Y           -7.5036917340       -1.5150993195        3.6498326202  MEMB      100             0.0000000000
     11632       100  SLPC      C316           -9.2887461840       -0.4425697026        4.0100681981  MEMB      100             0.0000000000
     11633       100  SLPC      H16X           -9.4958718839       -0.2785861578        2.9309346760  MEMB      100             0.0000000000
     11634       100  SLPC      H16Y           -9.7361459063        0.4640949137        4.4706276064  MEMB      100             0.0000000000
     11635       100  SLPC      C317          -10.0598598815       -1.7439595980        4.4011683949  MEMB      100             0.0000000000
     11636       100  SLPC      H17X          -11.1464906516       -1.5745916392        4.2434688296  MEMB      100             0.0000000000
     11637       100  SLPC      H17Y           -9.8624091207       -1.9054652112        5.4824863157  MEMB      100             0.0000000000
     11638       100  SLPC      C318           -9.7118500508       -2.9077216974        3.5338454075  MEMB      100             0.0000000000
     11639       100  SLPC      H18X           -8.6927197627       -3.2876768966        3.7604031656  MEMB      100             0.0000000000
     11640       100  SLPC      H18Y           -9.8144015163       -2.7261417017        2.4425912864  MEMB      100             0.0000000000
     11641       100  SLPC      H18Z          -10.3513370099       -3.7952472626        3.7279481737  MEMB      100             0.0000000000
     11642       101  CHL1      C3              2.8828510506        9.5025336834      -17.3263300000  MEMB      101             0.0000000000
     11643       101  CHL1      H3              3.2807731393        8.4653723925      -17.3424600000  MEMB      101             0.0000000000
     11644       101  CHL1      O3              2.7173815694        9.7561643766      -18.6736700000  MEMB      101             0.0000000000
     11645       101  CHL1      H3'             2.4266506594       10.6709916327      -18.6867500000  MEMB      101             0.0000000000
     11646       101  CHL1      C4              1.5961336445        9.4363195988      -16.5158800000  MEMB      101             0.0000000000
     11647       101  CHL1      H4A             1.1068185802       10.4195065171      -16.6839200000  MEMB      101             0.0000000000
     11648       101  CHL1      H4B             0.9072988724        8.7511129439      -17.0547100000  MEMB      101             0.0000000000
     11649       101  CHL1      C5              1.9029163817        9.0393920192      -15.0381300000  MEMB      101             0.0000000000
     11650       101  CHL1      C6              1.1934146664        8.1024912046      -14.3938100000  MEMB      101             0.0000000000
     11651       101  CHL1      H6              0.4957718222        7.4982575542      -14.9923100000  MEMB      101             0.0000000000
     11652       101  CHL1      C7              1.3691263765        7.7793138009      -12.9750700000  MEMB      101             0.0000000000
     11653       101  CHL1      H7A             0.4361396223        7.4971778620      -12.4419200000  MEMB      101             0.0000000000
     11654       101  CHL1      H7B             1.9412504386        6.8281736968      -12.9267300000  MEMB      101             0.0000000000
     11655       101  CHL1      C8              2.1133190868        8.8857962293      -12.1512700000  MEMB      101             0.0000000000
     11656       101  CHL1      H8              1.3690182728        9.6751264101      -11.9118900000  MEMB      101             0.0000000000
     11657       101  CHL1      C14             2.4823563010        8.4240073678      -10.7864800000  MEMB      101             0.0000000000
     11658       101  CHL1      H14             3.1745807652        7.6005496865      -11.0640800000  MEMB      101             0.0000000000
     11659       101  CHL1      C15             1.3271669939        7.8539319081       -9.9405500000  MEMB      101             0.0000000000
     11660       101  CHL1      H15A            0.4738290011        8.5651293016       -9.9586700000  MEMB      101             0.0000000000
     11661       101  CHL1      H15B            0.9306709841        6.8318141253      -10.1205000000  MEMB      101             0.0000000000
     11662       101  CHL1      C16             1.9738541490        7.9522606731       -8.4719300000  MEMB      101             0.0000000000
     11663       101  CHL1      H16A            1.3374846591        8.5845340572       -7.8165000000  MEMB      101             0.0000000000
     11664       101  CHL1      H16B            2.0316006627        7.0025822688       -7.8982700000  MEMB      101             0.0000000000
     11665       101  CHL1      C17             3.3323641140        8.5382625052       -8.6419600000  MEMB      101             0.0000000000
     11666       101  CHL1      H17             4.0338886984        7.6938631845       -8.8127600000  MEMB      101             0.0000000000
     11667       101  CHL1      C13             3.2505823864        9.4263513917       -9.9239800000  MEMB      101             0.0000000000
     11668       101  CHL1      C18             2.3989420659       10.6689589146       -9.6202500000  MEMB      101             0.0000000000
     11669       101  CHL1      H18A            2.0379444482       11.0970462941      -10.5798100000  MEMB      101             0.0000000000
     11670       101  CHL1      H18B            1.4213256190       10.3380814478       -9.2090300000  MEMB      101             0.0000000000
     11671       101  CHL1      H18C            2.8509937652       11.4857857023       -9.0179400000  MEMB      101             0.0000000000
     11672       101  CHL1      C12             4.4544469324        9.8851174609      -10.6357300000  MEMB      101             0.0000000000
     11673       101  CHL1      H12A            4.9229191585       10.7382635478      -10.1000200000  MEMB      101             0.0000000000
     11674       101  CHL1      H12B            5.1415609204        9.0125548926      -10.6645900000  MEMB      101             0.0000000000
     11675       101  CHL1      C11             4.2390037959       10.3588991455      -12.0897300000  MEMB      101             0.0000000000
     11676       101  CHL1      H11A            3.8146961329       11.3674641697      -11.8971700000  MEMB      101             0.0000000000
     11677       101  CHL1      H11B            5.2466577209       10.4920686895      -12.5383100000  MEMB      101             0.0000000000
     11678       101  CHL1      C9              3.3542805968        9.4362193782      -12.9066400000  MEMB      101             0.0000000000
     11679       101  CHL1      H9              3.9292977258        8.5206240876      -13.1623100000  MEMB      101             0.0000000000
     11680       101  CHL1      C10             2.8933976524        9.9616714249      -14.3520300000  MEMB      101             0.0000000000
     11681       101  CHL1      C19             2.1907052012       11.3322343824      -14.1564200000  MEMB      101             0.0000000000
     11682       101  CHL1      H19A            1.3090806736       11.1982296764      -13.4937700000  MEMB      101             0.0000000000
     11683       101  CHL1      H19B            2.8806670027       12.0661336724      -13.6877600000  MEMB      101             0.0000000000
     11684       101  CHL1      H19C            1.7697232836       11.8288431116      -15.0566900000  MEMB      101             0.0000000000
     11685       101  CHL1      C1              4.1970253171       10.0642285302      -15.2327500000  MEMB      101             0.0000000000
     11686       101  CHL1      H1A             4.8633252592       10.8450038952      -14.8075800000  MEMB      101             0.0000000000
     11687       101  CHL1      H1B             4.7736137070        9.1148116143      -15.2547100000  MEMB      101             0.0000000000
     11688       101  CHL1      C2              3.9784765469       10.3904105264      -16.7119300000  MEMB      101             0.0000000000
     11689       101  CHL1      H2A             4.9037593170       10.2898240726      -17.3186100000  MEMB      101             0.0000000000
     11690       101  CHL1      H2B             3.6292417196       11.4392025296      -16.8232900000  MEMB      101             0.0000000000
     11691       101  CHL1      C20             3.9350248432        9.2748646942       -7.3967700000  MEMB      101             0.0000000000
     11692       101  CHL1      H20             3.4645848414       10.2790487006       -7.3288300000  MEMB      101             0.0000000000
     11693       101  CHL1      C21             5.4102845706        9.5409074953       -7.5119800000  MEMB      101             0.0000000000
     11694       101  CHL1      H21A            5.8953554178        9.7961348411       -6.5456000000  MEMB      101             0.0000000000
     11695       101  CHL1      H21B            5.5024576033       10.4945241823       -8.0745000000  MEMB      101             0.0000000000
     11696       101  CHL1      H21C            5.8871263760        8.6583281151       -7.9894900000  MEMB      101             0.0000000000
     11697       101  CHL1      C22             3.5116653184        8.6435129105       -6.0628400000  MEMB      101             0.0000000000
     11698       101  CHL1      H22A            2.4345054930        8.4136313051       -5.9172300000  MEMB      101             0.0000000000
     11699       101  CHL1      H22B            4.0200451965        7.6707534212       -5.8908000000  MEMB      101             0.0000000000
     11700       101  CHL1      C23             3.9136737927        9.5579545528       -4.7908000000  MEMB      101             0.0000000000
     11701       101  CHL1      H23A            3.7840147734        8.8806065563       -3.9197600000  MEMB      101             0.0000000000
     11702       101  CHL1      H23B            4.9239022162       10.0173942126       -4.8424800000  MEMB      101             0.0000000000
     11703       101  CHL1      C24             2.9711061190       10.6933096606       -4.4732000000  MEMB      101             0.0000000000
     11704       101  CHL1      H24A            2.8296256664       11.2912541859       -5.3988100000  MEMB      101             0.0000000000
     11705       101  CHL1      H24B            1.9890903505       10.2815553686       -4.1563000000  MEMB      101             0.0000000000
     11706       101  CHL1      C25             3.3955976649       11.6421389576       -3.3072200000  MEMB      101             0.0000000000
     11707       101  CHL1      H25             4.4322549501       11.9879489462       -3.5074200000  MEMB      101             0.0000000000
     11708       101  CHL1      C26             2.4434683484       12.8234542861       -3.4199800000  MEMB      101             0.0000000000
     11709       101  CHL1      H26A            1.4050014522       12.4289888424       -3.4024400000  MEMB      101             0.0000000000
     11710       101  CHL1      H26B            2.6046087856       13.5321050930       -2.5796400000  MEMB      101             0.0000000000
     11711       101  CHL1      H26C            2.5706708889       13.3606932215       -4.3840900000  MEMB      101             0.0000000000
     11712       101  CHL1      C27             3.1561416487       11.1024509058       -1.9230900000  MEMB      101             0.0000000000
     11713       101  CHL1      H27A            2.0843323189       10.8103677546       -1.9080200000  MEMB      101             0.0000000000
     11714       101  CHL1      H27B            3.6614885045       10.1361146303       -1.7105800000  MEMB      101             0.0000000000
     11715       101  CHL1      H27C            3.4303789437       11.9036875136       -1.2039700000  MEMB      101             0.0000000000
     11716       102  POPC      N               7.8026934841       -6.4250008362      -21.2521145988  MEMB      102             0.0000000000
     11717       102  POPC      C12             6.6302583039       -6.4947095856      -20.1552384218  MEMB      102             0.0000000000
     11718       102  POPC      H12A            6.4236882065       -7.5308547495      -19.9313361197  MEMB      102             0.0000000000
     11719       102  POPC      H12B            5.7834183596       -5.9496110388      -20.5452764791  MEMB      102             0.0000000000
     11720       102  POPC      C13             8.1134116704       -4.9858597990      -21.4963476349  MEMB      102             0.0000000000
     11721       102  POPC      H13A            8.8847428103       -4.9057519382      -22.2480329282  MEMB      102             0.0000000000
     11722       102  POPC      H13B            7.2041603327       -4.4784685431      -21.7830812497  MEMB      102             0.0000000000
     11723       102  POPC      H13C            8.4870335530       -4.4864401314      -20.6146521408  MEMB      102             0.0000000000
     11724       102  POPC      C14             8.9204459029       -7.2494256578      -20.7956362301  MEMB      102             0.0000000000
     11725       102  POPC      H14A            8.4211948124       -8.1980584767      -20.6643197642  MEMB      102             0.0000000000
     11726       102  POPC      H14B            9.6845779393       -7.4065693974      -21.5425019428  MEMB      102             0.0000000000
     11727       102  POPC      H14C            9.2531005511       -6.9661678686      -19.8079592478  MEMB      102             0.0000000000
     11728       102  POPC      C15             7.2705943247       -6.9638003574      -22.5268448153  MEMB      102             0.0000000000
     11729       102  POPC      H15A            8.1109945643       -7.2787150053      -23.1276411748  MEMB      102             0.0000000000
     11730       102  POPC      H15B            6.5872978220       -6.3025450868      -23.0389459180  MEMB      102             0.0000000000
     11731       102  POPC      H15C            6.7989337344       -7.8971604497      -22.2570763440  MEMB      102             0.0000000000
     11732       102  POPC      C11             6.9291257273       -5.7657760926      -18.8114069761  MEMB      102             0.0000000000
     11733       102  POPC      H11A            6.0006760427       -5.8856874106      -18.2131398684  MEMB      102             0.0000000000
     11734       102  POPC      H11B            7.2438720206       -4.7088099844      -18.9458624729  MEMB      102             0.0000000000
     11735       102  POPC      P               8.5768560624       -6.0482503647      -16.7971808889  MEMB      102             0.0000000000
     11736       102  POPC      O13             8.0773130309       -4.7569336189      -16.2590811607  MEMB      102             0.0000000000
     11737       102  POPC      O14            10.0275700318       -6.1244701069      -17.0038910514  MEMB      102             0.0000000000
     11738       102  POPC      O12             7.8893354901       -6.5231530842      -18.1064469366  MEMB      102             0.0000000000
     11739       102  POPC      O11             8.1330384433       -7.2242104086      -15.7958112841  MEMB      102             0.0000000000
     11740       102  POPC      C1              6.7091929653       -7.4171909642      -15.6774016633  MEMB      102             0.0000000000
     11741       102  POPC      HA              6.1704557593       -7.4839417457      -16.6467454701  MEMB      102             0.0000000000
     11742       102  POPC      HB              6.1571095432       -6.6279905991      -15.1236077558  MEMB      102             0.0000000000
     11743       102  POPC      C2              6.3263531485       -8.6634987764      -14.8906683836  MEMB      102             0.0000000000
     11744       102  POPC      HS              5.2732290048       -8.9525925813      -15.0948136176  MEMB      102             0.0000000000
     11745       102  POPC      O21             6.6688112181       -8.4651164076      -13.4988782710  MEMB      102             0.0000000000
     11746       102  POPC      C21             5.8212448436       -7.6827850191      -12.8808634277  MEMB      102             0.0000000000
     11747       102  POPC      O22             4.7032958215       -7.4471165203      -13.2083966886  MEMB      102             0.0000000000
     11748       102  POPC      C22             6.4777460627       -7.1329888854      -11.6014537350  MEMB      102             0.0000000000
     11749       102  POPC      H2R             5.8714647702       -6.2946853980      -11.1964953746  MEMB      102             0.0000000000
     11750       102  POPC      H2S             7.4147692465       -6.6087044110      -11.8868203471  MEMB      102             0.0000000000
     11751       102  POPC      C3              7.0097300375       -9.9448331873      -15.4921525600  MEMB      102             0.0000000000
     11752       102  POPC      HX              6.9085510211      -10.0155968126      -16.5962705278  MEMB      102             0.0000000000
     11753       102  POPC      HY              6.6084955286      -10.9044728520      -15.1017379774  MEMB      102             0.0000000000
     11754       102  POPC      O31             8.4160954076       -9.8494718616      -15.2549778062  MEMB      102             0.0000000000
     11755       102  POPC      C31             8.9362259385      -10.6322523437      -14.2674675520  MEMB      102             0.0000000000
     11756       102  POPC      O32             8.3751161137      -11.5409600783      -13.6814719546  MEMB      102             0.0000000000
     11757       102  POPC      C32            10.3568405339      -10.1949794547      -14.0384508305  MEMB      102             0.0000000000
     11758       102  POPC      H2X            10.9717854913      -10.3088029343      -14.9567145495  MEMB      102             0.0000000000
     11759       102  POPC      H2Y            10.9624614934      -10.7019601725      -13.2570962876  MEMB      102             0.0000000000
     11760       102  POPC      C23             6.6839451784       -8.2071508258      -10.5152050681  MEMB      102             0.0000000000
     11761       102  POPC      H3R             7.3833796205       -9.0285090538      -10.7806915502  MEMB      102             0.0000000000
     11762       102  POPC      H3S             5.6641538141       -8.5859544259      -10.2896952741  MEMB      102             0.0000000000
     11763       102  POPC      C24             7.1908343714       -7.5770082583       -9.1659094397  MEMB      102             0.0000000000
     11764       102  POPC      H4R             6.2566484972       -7.0331734102       -8.9092745389  MEMB      102             0.0000000000
     11765       102  POPC      H4S             8.0428333703       -6.9458942982       -9.4977436024  MEMB      102             0.0000000000
     11766       102  POPC      C25             7.5336951478       -8.6816179549       -8.1348095803  MEMB      102             0.0000000000
     11767       102  POPC      H5R             6.6269642994       -9.2501280404       -7.8365531479  MEMB      102             0.0000000000
     11768       102  POPC      H5S             7.8036655090       -8.0274407048       -7.2783696372  MEMB      102             0.0000000000
     11769       102  POPC      C26             8.8078840656       -9.6175684244       -8.3430204459  MEMB      102             0.0000000000
     11770       102  POPC      H6R             9.5902861933       -8.8865604196       -8.6393236527  MEMB      102             0.0000000000
     11771       102  POPC      H6S             8.5357219318      -10.3944115862       -9.0891862497  MEMB      102             0.0000000000
     11772       102  POPC      C27             9.0682097466      -10.4665127775       -7.0545570336  MEMB      102             0.0000000000
     11773       102  POPC      H7R             8.3359984520      -11.3010645218       -7.0959227100  MEMB      102             0.0000000000
     11774       102  POPC      H7S             8.9610643645       -9.9153343263       -6.0958897068  MEMB      102             0.0000000000
     11775       102  POPC      C28            10.4319255597      -11.1921747142       -7.1634061708  MEMB      102             0.0000000000
     11776       102  POPC      H8R            10.4937198377      -11.7738998886       -8.1079160648  MEMB      102             0.0000000000
     11777       102  POPC      H8S            10.5072553457      -11.9211923243       -6.3284336671  MEMB      102             0.0000000000
     11778       102  POPC      C29            11.6394885361      -10.2096994506       -7.2925059641  MEMB      102             0.0000000000
     11779       102  POPC      H91            11.9969831631      -10.1585105417       -8.3315333644  MEMB      102             0.0000000000
     11780       102  POPC      C210           12.1061613620       -9.3508833842       -6.3459089133  MEMB      102             0.0000000000
     11781       102  POPC      H101           12.9495070232       -8.6684171867       -6.5275893796  MEMB      102             0.0000000000
     11782       102  POPC      C211           11.4699155645       -9.2536490976       -4.9968574814  MEMB      102             0.0000000000
     11783       102  POPC      H11R           12.3187883978       -9.2749697259       -4.2804217241  MEMB      102             0.0000000000
     11784       102  POPC      H11S           10.7990851336      -10.1030161684       -4.7460924307  MEMB      102             0.0000000000
     11785       102  POPC      C212           10.6531205895       -7.8890390685       -4.7551337413  MEMB      102             0.0000000000
     11786       102  POPC      H12R            9.7778884641       -7.9066231952       -5.4392246532  MEMB      102             0.0000000000
     11787       102  POPC      H12S           11.4461496087       -7.1825144869       -5.0810922382  MEMB      102             0.0000000000
     11788       102  POPC      C213           10.3185008336       -7.6533824416       -3.2641940333  MEMB      102             0.0000000000
     11789       102  POPC      H13R            9.8115054973       -8.5734886168       -2.9026953931  MEMB      102             0.0000000000
     11790       102  POPC      H13S            9.6454346816       -6.7698401330       -3.2898049013  MEMB      102             0.0000000000
     11791       102  POPC      C214           11.5688163610       -7.4130355786       -2.3877664344  MEMB      102             0.0000000000
     11792       102  POPC      H14R           12.4043184487       -7.0455601284       -3.0211852351  MEMB      102             0.0000000000
     11793       102  POPC      H14S           11.9464406291       -8.3474446313       -1.9202204622  MEMB      102             0.0000000000
     11794       102  POPC      C215           11.2525378886       -6.2752648586       -1.3423332032  MEMB      102             0.0000000000
     11795       102  POPC      H15R           10.9175767018       -5.2988155867       -1.7530246303  MEMB      102             0.0000000000
     11796       102  POPC      H15S           12.1875672527       -6.2351696796       -0.7436393667  MEMB      102             0.0000000000
     11797       102  POPC      C216           10.1070834127       -6.7564692912       -0.3485117293  MEMB      102             0.0000000000
     11798       102  POPC      H16R           10.4769040227       -7.6777922598        0.1502033717  MEMB      102             0.0000000000
     11799       102  POPC      H16S            9.2189169859       -7.0729117383       -0.9361735354  MEMB      102             0.0000000000
     11800       102  POPC      C217            9.5776826393       -5.6514927079        0.5985057844  MEMB      102             0.0000000000
     11801       102  POPC      H17R           10.2022977069       -5.6175848872        1.5166708913  MEMB      102             0.0000000000
     11802       102  POPC      H17S            8.5692411143       -6.0283700564        0.8729697128  MEMB      102             0.0000000000
     11803       102  POPC      C218            9.4097230821       -4.2714282245       -0.0148999529  MEMB      102             0.0000000000
     11804       102  POPC      H18R           10.4131640438       -3.7945608572       -0.0198216065  MEMB      102             0.0000000000
     11805       102  POPC      H18S            8.8904757325       -3.4839417353        0.5720993912  MEMB      102             0.0000000000
     11806       102  POPC      H18T            9.1806105972       -4.2242056316       -1.1009920149  MEMB      102             0.0000000000
     11807       102  POPC      C33            10.5156537218       -8.6500788483      -13.6492922699  MEMB      102             0.0000000000
     11808       102  POPC      H3X             9.8055194619       -8.4053469568      -12.8306733022  MEMB      102             0.0000000000
     11809       102  POPC      H3Y            10.3538294570       -8.0947189607      -14.5978224995  MEMB      102             0.0000000000
     11810       102  POPC      C34            11.9500859151       -8.3034590183      -13.1147046247  MEMB      102             0.0000000000
     11811       102  POPC      H4X            12.5361491690       -7.8406230084      -13.9372816220  MEMB      102             0.0000000000
     11812       102  POPC      H4Y            12.5288416023       -9.2134731843      -12.8478016991  MEMB      102             0.0000000000
     11813       102  POPC      C35            11.9839566033       -7.2383187562      -12.0532958158  MEMB      102             0.0000000000
     11814       102  POPC      H5X            11.4990129855       -6.3271171054      -12.4642246173  MEMB      102             0.0000000000
     11815       102  POPC      H5Y            13.0223738278       -6.9641630278      -11.7689554276  MEMB      102             0.0000000000
     11816       102  POPC      C36            11.2290882069       -7.5596213455      -10.7255985947  MEMB      102             0.0000000000
     11817       102  POPC      H6X            11.5870775340       -8.3997676754      -10.0928912952  MEMB      102             0.0000000000
     11818       102  POPC      H6Y            10.1665810810       -7.8194311218      -10.9202742018  MEMB      102             0.0000000000
     11819       102  POPC      C37            11.1153518896       -6.3888060245       -9.7116212728  MEMB      102             0.0000000000
     11820       102  POPC      H7X            12.1678265605       -6.2008017477       -9.4095080923  MEMB      102             0.0000000000
     11821       102  POPC      H7Y            10.5044781521       -6.6788278542       -8.8301219244  MEMB      102             0.0000000000
     11822       102  POPC      C38            10.3072037447       -5.1640832410      -10.2002566738  MEMB      102             0.0000000000
     11823       102  POPC      H8X             9.2983288476       -5.5191612476      -10.5009435547  MEMB      102             0.0000000000
     11824       102  POPC      H8Y            10.7779302769       -4.7105509807      -11.0986142222  MEMB      102             0.0000000000
     11825       102  POPC      C39            10.1034910294       -4.0607286301       -9.1784937383  MEMB      102             0.0000000000
     11826       102  POPC      H9X             9.6613740156       -3.1751435309       -9.6830647773  MEMB      102             0.0000000000
     11827       102  POPC      H9Y            11.0772226192       -3.7466983654       -8.7454202225  MEMB      102             0.0000000000
     11828       102  POPC      C310            8.9962838830       -4.4592657589       -8.0853224860  MEMB      102             0.0000000000
     11829       102  POPC      H10X            9.1347493430       -5.4863133931       -7.6849206495  MEMB      102             0.0000000000
     11830       102  POPC      H10Y            8.0651231193       -4.4900978431       -8.6905584695  MEMB      102             0.0000000000
     11831       102  POPC      C311            8.7848860527       -3.4549372574       -6.9439069520  MEMB      102             0.0000000000
     11832       102  POPC      H11X            8.4552827007       -2.4870294681       -7.3784619382  MEMB      102             0.0000000000
     11833       102  POPC      H11Y            9.6906615560       -3.3704834842       -6.3061300380  MEMB      102             0.0000000000
     11834       102  POPC      C312            7.6306341743       -3.8151215775       -6.0208290046  MEMB      102             0.0000000000
     11835       102  POPC      H12X            6.7641852140       -3.7945883863       -6.7159303834  MEMB      102             0.0000000000
     11836       102  POPC      H12Y            7.5297245831       -3.0650793803       -5.2074563104  MEMB      102             0.0000000000
     11837       102  POPC      C313            7.8071042744       -5.2141538566       -5.4178488287  MEMB      102             0.0000000000
     11838       102  POPC      H13X            8.7866893107       -5.4246506325       -4.9378224034  MEMB      102             0.0000000000
     11839       102  POPC      H13Y            7.6237950111       -5.8500595495       -6.3102285921  MEMB      102             0.0000000000
     11840       102  POPC      C314            6.6385885363       -5.4889851013       -4.4444952596  MEMB      102             0.0000000000
     11841       102  POPC      H14X            5.6756046113       -5.3066066925       -4.9676786256  MEMB      102             0.0000000000
     11842       102  POPC      H14Y            6.8846330140       -4.6578631405       -3.7494993201  MEMB      102             0.0000000000
     11843       102  POPC      C315            6.4538569816       -6.7917054792       -3.6823054014  MEMB      102             0.0000000000
     11844       102  POPC      H15X            7.4011349148       -7.1987212601       -3.2683930156  MEMB      102             0.0000000000
     11845       102  POPC      H15Y            6.0515088589       -7.5786514405       -4.3554717855  MEMB      102             0.0000000000
     11846       102  POPC      C316            5.5274419214       -6.4986185967       -2.4878287086  MEMB      102             0.0000000000
     11847       102  POPC      H16X            5.7055092802       -7.3042065901       -1.7437575213  MEMB      102             0.0000000000
     11848       102  POPC      H16Y            4.4509072798       -6.3704905874       -2.7306809481  MEMB      102             0.0000000000
     11849       102  POPC      H16Z            5.8946025090       -5.5254594258       -2.0973482060  MEMB      102             0.0000000000
     11850       103  SAPE      N              -8.4795443295        7.4054236337      -19.2400784854  MEMB      103             0.0000000000
     11851       103  SAPE      HN1            -9.3372776375        7.9598167097      -19.0437574487  MEMB      103             0.0000000000
     11852       103  SAPE      HN2            -8.1909386544        6.6658886835      -18.5682194536  MEMB      103             0.0000000000
     11853       103  SAPE      HN3            -7.6371834713        8.0107708262      -19.3147997279  MEMB      103             0.0000000000
     11854       103  SAPE      C12            -8.5635065360        6.6482291119      -20.5398510864  MEMB      103             0.0000000000
     11855       103  SAPE      H12A           -7.6858106069        5.9895460124      -20.7133659799  MEMB      103             0.0000000000
     11856       103  SAPE      H12B           -8.6026870484        7.5291812254      -21.2156538855  MEMB      103             0.0000000000
     11857       103  SAPE      C11            -9.8822865971        5.8554807849      -20.6014028229  MEMB      103             0.0000000000
     11858       103  SAPE      H11A          -10.1095697129        5.4548434654      -21.6124186857  MEMB      103             0.0000000000
     11859       103  SAPE      H11B          -10.6985108933        6.5170712932      -20.2402981682  MEMB      103             0.0000000000
     11860       103  SAPE      P              -9.3847404394        3.4017832603      -20.0030149113  MEMB      103             0.0000000000
     11861       103  SAPE      O13           -10.3622790871        2.8263788570      -20.9725149635  MEMB      103             0.0000000000
     11862       103  SAPE      O14            -7.9569355917        3.3922679321      -20.4266199487  MEMB      103             0.0000000000
     11863       103  SAPE      O12            -9.9421010966        4.8377324917      -19.6343823981  MEMB      103             0.0000000000
     11864       103  SAPE      O11            -9.5017014649        2.7649391746      -18.5821353577  MEMB      103             0.0000000000
     11865       103  SAPE      C1             -8.7624608156        3.3421623864      -17.5194237024  MEMB      103             0.0000000000
     11866       103  SAPE      HA             -7.6883133615        3.1484255299      -17.7267744916  MEMB      103             0.0000000000
     11867       103  SAPE      HB             -9.0991161332        4.3817341792      -17.3187381847  MEMB      103             0.0000000000
     11868       103  SAPE      C2             -8.9989793853        2.5451011351      -16.2588450131  MEMB      103             0.0000000000
     11869       103  SAPE      HS             -8.7980275884        1.4834120341      -16.5172158996  MEMB      103             0.0000000000
     11870       103  SAPE      O21           -10.3750296076        2.6647798994      -15.8960391892  MEMB      103             0.0000000000
     11871       103  SAPE      C21           -10.8436823868        1.9312972150      -14.8644569778  MEMB      103             0.0000000000
     11872       103  SAPE      O22           -10.2925501719        1.0255193523      -14.2707418186  MEMB      103             0.0000000000
     11873       103  SAPE      C22           -12.2145691039        2.3674654915      -14.4670772471  MEMB      103             0.0000000000
     11874       103  SAPE      H2R           -12.5195374061        3.3559904290      -14.8722114649  MEMB      103             0.0000000000
     11875       103  SAPE      H2S           -12.8640585576        1.5787547425      -14.9034484560  MEMB      103             0.0000000000
     11876       103  SAPE      C3             -8.0148003437        3.0575785503      -15.1617688581  MEMB      103             0.0000000000
     11877       103  SAPE      HX             -6.9654643493        2.9885842232      -15.5201747513  MEMB      103             0.0000000000
     11878       103  SAPE      HY             -8.1399085896        2.4664043111      -14.2294693993  MEMB      103             0.0000000000
     11879       103  SAPE      O31            -8.2522717929        4.4523857685      -14.9218259901  MEMB      103             0.0000000000
     11880       103  SAPE      C31            -8.7534517210        4.8920559909      -13.7861061576  MEMB      103             0.0000000000
     11881       103  SAPE      O32            -9.1367100182        4.2316935574      -12.8243008014  MEMB      103             0.0000000000
     11882       103  SAPE      C32            -8.8370858411        6.4417057364      -13.7802994433  MEMB      103             0.0000000000
     11883       103  SAPE      H2X            -9.2261573215        6.7408582178      -14.7770205285  MEMB      103             0.0000000000
     11884       103  SAPE      H2Y            -7.8258081181        6.8077424049      -13.5016321234  MEMB      103             0.0000000000
     11885       103  SAPE      C23           -12.3391669088        2.4411633332      -12.9107402574  MEMB      103             0.0000000000
     11886       103  SAPE      H3R           -11.6638807737        3.2876438061      -12.6621833736  MEMB      103             0.0000000000
     11887       103  SAPE      H3S           -12.0616098245        1.4707173532      -12.4465012755  MEMB      103             0.0000000000
     11888       103  SAPE      C24           -13.7853339688        2.8001177672      -12.4159144616  MEMB      103             0.0000000000
     11889       103  SAPE      H4R           -13.7534617237        2.6658198960      -11.3135221296  MEMB      103             0.0000000000
     11890       103  SAPE      H4S           -14.5659430190        2.0974329089      -12.7781358739  MEMB      103             0.0000000000
     11891       103  SAPE      C25           -14.1565667972        4.1913051959      -12.8757762302  MEMB      103             0.0000000000
     11892       103  SAPE      H5R           -14.3105626263        4.3388979237      -13.9548973932  MEMB      103             0.0000000000
     11893       103  SAPE      C26           -14.2364619526        5.2692648665      -12.0794013178  MEMB      103             0.0000000000
     11894       103  SAPE      H6R           -14.4216004415        6.3055004909      -12.3986811284  MEMB      103             0.0000000000
     11895       103  SAPE      C27           -13.9994866826        5.3512148733      -10.5482896663  MEMB      103             0.0000000000
     11896       103  SAPE      H7R           -14.2364765486        4.3861380559      -10.0515165055  MEMB      103             0.0000000000
     11897       103  SAPE      H7S           -14.8425738585        6.0221921219      -10.2775226564  MEMB      103             0.0000000000
     11898       103  SAPE      C28           -12.6337722354        5.9311360045      -10.1498017552  MEMB      103             0.0000000000
     11899       103  SAPE      H8R           -12.4651680855        6.8776238446      -10.6843426007  MEMB      103             0.0000000000
     11900       103  SAPE      C29           -11.6863903163        5.4028614312       -9.3274986458  MEMB      103             0.0000000000
     11901       103  SAPE      H9R           -10.7493018946        5.9786338489       -9.3462495589  MEMB      103             0.0000000000
     11902       103  SAPE      C210          -11.7185589673        4.0885527402       -8.5088575341  MEMB      103             0.0000000000
     11903       103  SAPE      H10R          -10.6561486951        3.7671960584       -8.4605334641  MEMB      103             0.0000000000
     11904       103  SAPE      H10S          -12.3669208309        3.3635103510       -9.0457575561  MEMB      103             0.0000000000
     11905       103  SAPE      C211          -12.3449863753        4.3329785915       -7.0833474404  MEMB      103             0.0000000000
     11906       103  SAPE      H11R          -13.2932904836        4.8890874050       -7.0451112504  MEMB      103             0.0000000000
     11907       103  SAPE      C212          -11.7692471286        4.0196794822       -5.8954561754  MEMB      103             0.0000000000
     11908       103  SAPE      H12R          -12.3521319626        4.1208706733       -4.9680913586  MEMB      103             0.0000000000
     11909       103  SAPE      C213          -10.4460334088        3.3137683528       -5.7418034537  MEMB      103             0.0000000000
     11910       103  SAPE      H13R           -9.8636052395        3.7557715778       -4.9053039107  MEMB      103             0.0000000000
     11911       103  SAPE      H13S           -9.9120469208        3.5008883382       -6.6979234911  MEMB      103             0.0000000000
     11912       103  SAPE      C214          -10.5820218555        1.8372348909       -5.6433407311  MEMB      103             0.0000000000
     11913       103  SAPE      H14R          -11.3522109934        1.3361329546       -6.2480766359  MEMB      103             0.0000000000
     11914       103  SAPE      C215           -9.9734475348        1.0335003557       -4.7318765717  MEMB      103             0.0000000000
     11915       103  SAPE      H15R          -10.1245146784       -0.0540507927       -4.7982920996  MEMB      103             0.0000000000
     11916       103  SAPE      C216           -8.9940076386        1.4897015209       -3.6799925702  MEMB      103             0.0000000000
     11917       103  SAPE      H16R           -8.5962901186        2.4986469370       -3.9211803139  MEMB      103             0.0000000000
     11918       103  SAPE      H16S           -8.1016235199        0.8285486628       -3.6508668537  MEMB      103             0.0000000000
     11919       103  SAPE      C217           -9.4662915633        1.5674500212       -2.2646500394  MEMB      103             0.0000000000
     11920       103  SAPE      H17R           -8.7693110867        2.1345997179       -1.6112890003  MEMB      103             0.0000000000
     11921       103  SAPE      H17S           -9.4295213394        0.5649834311       -1.7871265511  MEMB      103             0.0000000000
     11922       103  SAPE      C218          -10.7434029256        2.3885974158       -1.9011709554  MEMB      103             0.0000000000
     11923       103  SAPE      H18R          -10.8467222628        3.2591802641       -2.5836165128  MEMB      103             0.0000000000
     11924       103  SAPE      H18S          -10.8440234911        2.5834810892       -0.8120335349  MEMB      103             0.0000000000
     11925       103  SAPE      C219          -11.9870038642        1.6247500972       -2.1684829980  MEMB      103             0.0000000000
     11926       103  SAPE      H19R          -11.8171931423        0.6185621496       -1.7290856984  MEMB      103             0.0000000000
     11927       103  SAPE      H19S          -12.3605455863        1.4171661913       -3.1940070344  MEMB      103             0.0000000000
     11928       103  SAPE      C220          -13.1893213493        2.3114819794       -1.4785882046  MEMB      103             0.0000000000
     11929       103  SAPE      H20R          -13.5141095848        3.1547738535       -2.1248784968  MEMB      103             0.0000000000
     11930       103  SAPE      H20S          -13.0991678457        2.4541359482       -0.3804780992  MEMB      103             0.0000000000
     11931       103  SAPE      H20T          -14.0620208613        1.6440523201       -1.6436746008  MEMB      103             0.0000000000
     11932       103  SAPE      C33            -9.8461972359        6.9084317771      -12.6578214311  MEMB      103             0.0000000000
     11933       103  SAPE      H3X            -9.6694309191        6.4359857248      -11.6679383700  MEMB      103             0.0000000000
     11934       103  SAPE      H3Y           -10.8903706740        6.6496834768      -12.9354406913  MEMB      103             0.0000000000
     11935       103  SAPE      C34            -9.7303619972        8.4445050369      -12.5021905355  MEMB      103             0.0000000000
     11936       103  SAPE      H4X           -10.6585150291        8.7304210667      -11.9626488316  MEMB      103             0.0000000000
     11937       103  SAPE      H4Y            -9.8361044848        8.8743623010      -13.5211913797  MEMB      103             0.0000000000
     11938       103  SAPE      C35            -8.4580385185        8.9615454386      -11.7755754258  MEMB      103             0.0000000000
     11939       103  SAPE      H5X            -8.5294739740       10.0694053653      -11.7323889678  MEMB      103             0.0000000000
     11940       103  SAPE      H5Y            -7.5630441149        8.6675013623      -12.3645103378  MEMB      103             0.0000000000
     11941       103  SAPE      C36            -8.3303189870        8.5097629059      -10.2565606859  MEMB      103             0.0000000000
     11942       103  SAPE      H6X            -7.4505132619        8.9523291224       -9.7423636935  MEMB      103             0.0000000000
     11943       103  SAPE      H6Y            -8.1063623935        7.4278130799      -10.1401618158  MEMB      103             0.0000000000
     11944       103  SAPE      C37            -9.5877966283        8.8437771290       -9.4289968617  MEMB      103             0.0000000000
     11945       103  SAPE      H7X           -10.4555340205        8.2308292332       -9.7540307673  MEMB      103             0.0000000000
     11946       103  SAPE      H7Y            -9.9268727386        9.8953561300       -9.5453167302  MEMB      103             0.0000000000
     11947       103  SAPE      C38            -9.3903641478        8.6250372226       -7.9741167201  MEMB      103             0.0000000000
     11948       103  SAPE      H8X            -8.7359834685        9.4471676378       -7.6132728452  MEMB      103             0.0000000000
     11949       103  SAPE      H8Y            -9.0327778238        7.5737430225       -7.9389999823  MEMB      103             0.0000000000
     11950       103  SAPE      C39           -10.6065619244        8.6980514764       -7.0446424410  MEMB      103             0.0000000000
     11951       103  SAPE      H9X           -11.2868475779        7.8246588968       -7.1380112822  MEMB      103             0.0000000000
     11952       103  SAPE      H9Y           -11.0831482538        9.7016170326       -7.0511686199  MEMB      103             0.0000000000
     11953       103  SAPE      C310          -10.1644511909        8.7148868699       -5.5268014781  MEMB      103             0.0000000000
     11954       103  SAPE      H10X          -11.1325877804        8.6174404173       -4.9905774874  MEMB      103             0.0000000000
     11955       103  SAPE      H10Y           -9.6676051316        9.6850952697       -5.3119493618  MEMB      103             0.0000000000
     11956       103  SAPE      C311           -9.1845605926        7.5602029670       -5.1807850615  MEMB      103             0.0000000000
     11957       103  SAPE      H11X           -8.3317571173        7.9036800189       -5.8045402001  MEMB      103             0.0000000000
     11958       103  SAPE      H11Y           -9.6166532284        6.5942875593       -5.5193474727  MEMB      103             0.0000000000
     11959       103  SAPE      C312           -8.7875804503        7.1831851061       -3.7151855465  MEMB      103             0.0000000000
     11960       103  SAPE      H12X           -8.2231337219        8.0693557844       -3.3540451901  MEMB      103             0.0000000000
     11961       103  SAPE      H12Y           -8.0359193745        6.3692304311       -3.6326966235  MEMB      103             0.0000000000
     11962       103  SAPE      C313           -9.9803125384        6.6083876166       -2.8590603118  MEMB      103             0.0000000000
     11963       103  SAPE      H13X          -10.1650940569        5.6172943835       -3.3258693102  MEMB      103             0.0000000000
     11964       103  SAPE      H13Y          -10.9095280476        7.2163714440       -2.8942115853  MEMB      103             0.0000000000
     11965       103  SAPE      C314           -9.7509453824        6.3764580786       -1.3970845534  MEMB      103             0.0000000000
     11966       103  SAPE      H14X          -10.6451295627        5.8591286523       -0.9882733569  MEMB      103             0.0000000000
     11967       103  SAPE      H14Y           -9.7368872067        7.3863306363       -0.9341795316  MEMB      103             0.0000000000
     11968       103  SAPE      C315           -8.4321565751        5.6683326281       -1.1129157596  MEMB      103             0.0000000000
     11969       103  SAPE      H15X           -7.6053829095        6.2690790357       -1.5486561747  MEMB      103             0.0000000000
     11970       103  SAPE      H15Y           -8.3506952959        4.6475078179       -1.5437311941  MEMB      103             0.0000000000
     11971       103  SAPE      C316           -8.1593814895        5.5154109459        0.3941136564  MEMB      103             0.0000000000
     11972       103  SAPE      H16X           -9.1631484328        5.2638184455        0.7984337141  MEMB      103             0.0000000000
     11973       103  SAPE      H16Y           -7.9419288568        6.5173482846        0.8220833810  MEMB      103             0.0000000000
     11974       103  SAPE      C317           -7.1539619030        4.4348012184        0.8416439124  MEMB      103             0.0000000000
     11975       103  SAPE      H17X           -6.3104242490        4.5941256266        0.1363924317  MEMB      103             0.0000000000
     11976       103  SAPE      H17Y           -7.4709501327        3.4228008080        0.5104437131  MEMB      103             0.0000000000
     11977       103  SAPE      C318           -6.8158409315        4.5470247381        2.3115642328  MEMB      103             0.0000000000
     11978       103  SAPE      H18X           -6.3488162743        5.5398655520        2.4861389734  MEMB      103             0.0000000000
     11979       103  SAPE      H18Y           -6.0574829494        3.8328816001        2.6978474126  MEMB      103             0.0000000000
     11980       103  SAPE      H18Z           -7.7723676583        4.4417745933        2.8668116311  MEMB      103             0.0000000000
     11981       104  OSM       N              -6.1277655688      -11.9896959963      -22.2602915816  MEMB      104             0.0000000000
     11982       104  OSM       C15            -6.9499018918      -13.1867357069      -22.6879003096  MEMB      104             0.0000000000
     11983       104  OSM       H15A           -6.2988704172      -13.8250663656      -23.2667715362  MEMB      104             0.0000000000
     11984       104  OSM       H15B           -7.7573218712      -12.8273678808      -23.3086481098  MEMB      104             0.0000000000
     11985       104  OSM       H15C           -7.2040699945      -13.7387869762      -21.7951304183  MEMB      104             0.0000000000
     11986       104  OSM       C14            -5.7119621362      -11.2773376370      -23.5556996418  MEMB      104             0.0000000000
     11987       104  OSM       H14A           -5.1704023514      -10.4169098059      -23.1913140237  MEMB      104             0.0000000000
     11988       104  OSM       H14B           -6.5190346486      -10.9134838334      -24.1742821831  MEMB      104             0.0000000000
     11989       104  OSM       H14C           -5.1857206550      -11.9527093697      -24.2139876212  MEMB      104             0.0000000000
     11990       104  OSM       C13            -6.8169087358      -11.1323435226      -21.3042434916  MEMB      104             0.0000000000
     11991       104  OSM       H13A           -6.9003316460      -10.1723027820      -21.7918523320  MEMB      104             0.0000000000
     11992       104  OSM       H13B           -6.2106126760      -11.0420478654      -20.4150574782  MEMB      104             0.0000000000
     11993       104  OSM       H13C           -7.7132965919      -11.6768795532      -21.0466213062  MEMB      104             0.0000000000
     11994       104  OSM       C12            -4.7832669426      -12.6045437895      -21.7059270254  MEMB      104             0.0000000000
     11995       104  OSM       H12A           -4.4378364829      -13.3334844905      -22.4240656659  MEMB      104             0.0000000000
     11996       104  OSM       H12B           -5.0694480090      -13.1237633050      -20.8032025597  MEMB      104             0.0000000000
     11997       104  OSM       C11            -3.6901468044      -11.6165223163      -21.2726844807  MEMB      104             0.0000000000
     11998       104  OSM       H11A           -3.6140325898      -10.8028721620      -22.0253471576  MEMB      104             0.0000000000
     11999       104  OSM       H11B           -2.7073114145      -12.1037672210      -21.0967636578  MEMB      104             0.0000000000
     12000       104  OSM       P              -4.1756013659       -9.5136525720      -19.7064534239  MEMB      104             0.0000000000
     12001       104  OSM       O13            -2.8093870158       -9.0198521451      -19.6671878517  MEMB      104             0.0000000000
     12002       104  OSM       O14            -5.1846440351       -8.7313740126      -20.5119110723  MEMB      104             0.0000000000
     12003       104  OSM       O11            -4.8050840749       -9.4457087107      -18.2224153750  MEMB      104             0.0000000000
     12004       104  OSM       O12            -4.2460509688      -11.0427317906      -20.1052857416  MEMB      104             0.0000000000
     12005       104  OSM       C1S            -5.0016257879      -10.6642619916      -17.4994294133  MEMB      104             0.0000000000
     12006       104  OSM       H1S            -4.1120246588      -11.3184660947      -17.6216910593  MEMB      104             0.0000000000
     12007       104  OSM       H1T            -5.8908842122      -11.2433283862      -17.8284013711  MEMB      104             0.0000000000
     12008       104  OSM       NF             -3.9326239227       -9.7371473389      -15.3660797805  MEMB      104             0.0000000000
     12009       104  OSM       HNF            -3.0814706535      -10.1873359854      -15.1074731400  MEMB      104             0.0000000000
     12010       104  OSM       C2S            -5.0638467064      -10.4784909086      -15.8826478623  MEMB      104             0.0000000000
     12011       104  OSM       H2S            -5.9819872911       -9.8737151090      -15.7226942453  MEMB      104             0.0000000000
     12012       104  OSM       C3S            -5.1119251771      -11.8188382867      -15.1653833220  MEMB      104             0.0000000000
     12013       104  OSM       H3S            -4.2496390958      -12.4587179994      -15.4505805121  MEMB      104             0.0000000000
     12014       104  OSM       O3             -6.1781444024      -12.5958461690      -15.6855365799  MEMB      104             0.0000000000
     12015       104  OSM       HO3            -6.8140992054      -11.9873966466      -16.0688777469  MEMB      104             0.0000000000
     12016       104  OSM       C4S            -5.3108699585      -11.7657723702      -13.6607022773  MEMB      104             0.0000000000
     12017       104  OSM       H4S            -6.3402348519      -11.4966163178      -13.3814839393  MEMB      104             0.0000000000
     12018       104  OSM       C5S            -4.3219763007      -11.9616110027      -12.7527537246  MEMB      104             0.0000000000
     12019       104  OSM       H5S            -3.2512593663      -11.9344580133      -13.0034092607  MEMB      104             0.0000000000
     12020       104  OSM       C6S            -4.4209083085      -11.9509648169      -11.2748180619  MEMB      104             0.0000000000
     12021       104  OSM       H6S            -3.9687374033      -11.0453270262      -10.8169074410  MEMB      104             0.0000000000
     12022       104  OSM       H6T            -3.8721995728      -12.8525529458      -10.9278615368  MEMB      104             0.0000000000
     12023       104  OSM       C7S            -5.8702980913      -11.9048769557      -10.7298056930  MEMB      104             0.0000000000
     12024       104  OSM       H7S            -6.3596589156      -12.8674242835      -10.9912435766  MEMB      104             0.0000000000
     12025       104  OSM       H7T            -6.4282213998      -11.0049206674      -11.0661404545  MEMB      104             0.0000000000
     12026       104  OSM       C8S            -5.9254169246      -11.8094835337       -9.1674967943  MEMB      104             0.0000000000
     12027       104  OSM       H8S            -5.0803478102      -11.1140993843       -8.9761331498  MEMB      104             0.0000000000
     12028       104  OSM       H8T            -5.6615641707      -12.7161656058       -8.5821503677  MEMB      104             0.0000000000
     12029       104  OSM       C9S            -7.2422597537      -11.2566822695       -8.6448555651  MEMB      104             0.0000000000
     12030       104  OSM       H9S            -7.9794397769      -12.0588314127       -8.8626706680  MEMB      104             0.0000000000
     12031       104  OSM       H9T            -7.4986994928      -10.3329520752       -9.2063556953  MEMB      104             0.0000000000
     12032       104  OSM       C10S           -7.3035160448      -10.6774764051       -7.1927699153  MEMB      104             0.0000000000
     12033       104  OSM       H10S           -8.3838323911      -10.4894241352       -7.0142361850  MEMB      104             0.0000000000
     12034       104  OSM       H10T           -6.9016843497       -9.6419679652       -7.1687973638  MEMB      104             0.0000000000
     12035       104  OSM       C11S           -6.6742335687      -11.5786398424       -6.1411985492  MEMB      104             0.0000000000
     12036       104  OSM       H11S           -5.5831619678      -11.3948503864       -6.0406738438  MEMB      104             0.0000000000
     12037       104  OSM       H11T           -6.6865015814      -12.6507398596       -6.4323549073  MEMB      104             0.0000000000
     12038       104  OSM       C12S           -7.1499569413      -11.1122230871       -4.7566040462  MEMB      104             0.0000000000
     12039       104  OSM       H12S           -6.7967192442      -11.9528009702       -4.1218028774  MEMB      104             0.0000000000
     12040       104  OSM       H12T           -8.2451065670      -10.9306225842       -4.7120003270  MEMB      104             0.0000000000
     12041       104  OSM       C13S           -6.5502198105       -9.7655497573       -4.2727263530  MEMB      104             0.0000000000
     12042       104  OSM       H13S           -6.6109445889       -9.0311191212       -5.1041376988  MEMB      104             0.0000000000
     12043       104  OSM       H13T           -5.4864916536       -9.8871417700       -3.9760474875  MEMB      104             0.0000000000
     12044       104  OSM       C14S           -7.4009125480       -9.2512066882       -3.1378714879  MEMB      104             0.0000000000
     12045       104  OSM       H14S           -8.4026549450       -9.1089256919       -3.5967714385  MEMB      104             0.0000000000
     12046       104  OSM       H14T           -7.1235197880       -8.2115013567       -2.8614900638  MEMB      104             0.0000000000
     12047       104  OSM       C15S           -7.5556234739      -10.0784465889       -1.7681660466  MEMB      104             0.0000000000
     12048       104  OSM       H15S           -7.9482992795      -11.0460821497       -2.1473865236  MEMB      104             0.0000000000
     12049       104  OSM       H15T           -8.2582233635       -9.4997832156       -1.1311241395  MEMB      104             0.0000000000
     12050       104  OSM       C16S           -6.2606831774      -10.2193307810       -0.9708101593  MEMB      104             0.0000000000
     12051       104  OSM       H16S           -6.0697081907       -9.2209361181       -0.5224171348  MEMB      104             0.0000000000
     12052       104  OSM       H16T           -5.4040071169      -10.4675566294       -1.6332387176  MEMB      104             0.0000000000
     12053       104  OSM       C17S           -6.3809355591      -11.1047109939        0.2763369014  MEMB      104             0.0000000000
     12054       104  OSM       H17S           -7.3916432656      -10.9130328494        0.6959210817  MEMB      104             0.0000000000
     12055       104  OSM       H17T           -5.6780967787      -10.8086630547        1.0842319379  MEMB      104             0.0000000000
     12056       104  OSM       C18S           -6.2286700624      -12.5790554060       -0.0089813830  MEMB      104             0.0000000000
     12057       104  OSM       H18S           -6.3379602669      -13.2339844506        0.8817742091  MEMB      104             0.0000000000
     12058       104  OSM       H18T           -5.2957526023      -12.8193446925       -0.5623775819  MEMB      104             0.0000000000
     12059       104  OSM       H18U           -7.0201887620      -12.7949240593       -0.7581283633  MEMB      104             0.0000000000
     12060       104  OSM       C1F            -3.7788712753       -8.3984571925      -15.4912037142  MEMB      104             0.0000000000
     12061       104  OSM       OF             -4.6514736218       -7.7442459663      -15.9044175971  MEMB      104             0.0000000000
     12062       104  OSM       C2F            -2.3458626766       -7.8933265203      -15.2361507928  MEMB      104             0.0000000000
     12063       104  OSM       H2F            -2.0572041395       -7.0004364964      -15.8309149909  MEMB      104             0.0000000000
     12064       104  OSM       H2G            -1.5928945799       -8.7064929025      -15.3143842790  MEMB      104             0.0000000000
     12065       104  OSM       C3F            -2.2634212956       -7.2175876986      -13.8215355239  MEMB      104             0.0000000000
     12066       104  OSM       H3F            -3.0203017451       -6.4122709274      -13.7078787643  MEMB      104             0.0000000000
     12067       104  OSM       H3G            -1.2861108073       -6.7041873435      -13.6966148460  MEMB      104             0.0000000000
     12068       104  OSM       C4F            -2.3305929222       -8.2412004666      -12.6114326421  MEMB      104             0.0000000000
     12069       104  OSM       H4F            -1.4214765529       -8.7947344381      -12.2929540514  MEMB      104             0.0000000000
     12070       104  OSM       H4G            -3.0583053654       -9.0322560926      -12.8924783863  MEMB      104             0.0000000000
     12071       104  OSM       C5F            -2.8582271313       -7.4262987834      -11.4044267594  MEMB      104             0.0000000000
     12072       104  OSM       H5F            -3.9472757319       -7.4009872186      -11.6227230900  MEMB      104             0.0000000000
     12073       104  OSM       H5G            -2.4317426071       -6.4017164223      -11.4560316385  MEMB      104             0.0000000000
     12074       104  OSM       C6F            -2.3318487161       -7.9292471201      -10.0638839020  MEMB      104             0.0000000000
     12075       104  OSM       H6F            -1.3418896505       -7.4920293202       -9.8126020807  MEMB      104             0.0000000000
     12076       104  OSM       H6G            -2.1166477928       -9.0122839223      -10.1865252117  MEMB      104             0.0000000000
     12077       104  OSM       C7F            -3.2881184780       -7.6303661105       -8.8847475225  MEMB      104             0.0000000000
     12078       104  OSM       H7F            -4.3148893032       -7.5448461031       -9.3003781094  MEMB      104             0.0000000000
     12079       104  OSM       H7G            -3.0301725992       -6.6729622794       -8.3835856006  MEMB      104             0.0000000000
     12080       104  OSM       C8F            -3.2173421449       -8.5252266513       -7.6177053371  MEMB      104             0.0000000000
     12081       104  OSM       H8F            -3.5084866859       -9.5611219806       -7.8942498099  MEMB      104             0.0000000000
     12082       104  OSM       H8G            -4.1060631236       -8.3395925096       -6.9773647650  MEMB      104             0.0000000000
     12083       104  OSM       C9F            -1.9524618551       -8.2951967859       -6.7884162632  MEMB      104             0.0000000000
     12084       104  OSM       H9F            -1.0411699737       -8.3768641272       -7.3990537206  MEMB      104             0.0000000000
     12085       104  OSM       C10F           -1.8082717261       -7.9749921861       -5.4669505931  MEMB      104             0.0000000000
     12086       104  OSM       H10F           -0.8427051998       -7.7248145812       -5.0031707007  MEMB      104             0.0000000000
     12087       104  OSM       C11F           -2.8961950529       -7.7528674718       -4.4541810045  MEMB      104             0.0000000000
     12088       104  OSM       H11F           -3.8861921537       -7.7483435497       -4.9583702394  MEMB      104             0.0000000000
     12089       104  OSM       H11G           -2.9138353178       -6.6976028016       -4.1071563650  MEMB      104             0.0000000000
     12090       104  OSM       C12F           -2.9920519015       -8.7831069187       -3.2473378623  MEMB      104             0.0000000000
     12091       104  OSM       H12F           -3.3502845108       -9.7892844451       -3.5532741897  MEMB      104             0.0000000000
     12092       104  OSM       H12G           -3.7598916308       -8.3689844850       -2.5594089536  MEMB      104             0.0000000000
     12093       104  OSM       C13F           -1.7391535077       -8.8368810319       -2.4055926892  MEMB      104             0.0000000000
     12094       104  OSM       H13F           -1.4234862391       -7.8131202840       -2.1113322367  MEMB      104             0.0000000000
     12095       104  OSM       H13G           -0.8371329882       -9.1060472403       -2.9957032447  MEMB      104             0.0000000000
     12096       104  OSM       C14F           -1.7934350422       -9.6812690866       -1.1170716550  MEMB      104             0.0000000000
     12097       104  OSM       H14F           -2.6916299584       -9.3623078506       -0.5462570564  MEMB      104             0.0000000000
     12098       104  OSM       H14G           -0.9145924917       -9.4075313280       -0.4949595054  MEMB      104             0.0000000000
     12099       104  OSM       C15F           -1.8603099611      -11.1932808797       -1.3713920649  MEMB      104             0.0000000000
     12100       104  OSM       H15F           -0.9408553284      -11.5103514440       -1.9084123735  MEMB      104             0.0000000000
     12101       104  OSM       H15G           -2.7632025156      -11.3337737151       -2.0033479525  MEMB      104             0.0000000000
     12102       104  OSM       C16F           -2.2127055746      -11.8657796497        0.0032403822  MEMB      104             0.0000000000
     12103       104  OSM       H16F           -3.2346428943      -11.4997476710        0.2398522774  MEMB      104             0.0000000000
     12104       104  OSM       H16G           -1.5387177563      -11.4128454193        0.7614686144  MEMB      104             0.0000000000
     12105       104  OSM       C17F           -2.0843568688      -13.3688119037        0.0504345838  MEMB      104             0.0000000000
     12106       104  OSM       H17F           -1.0845517290      -13.6940526447       -0.3086320685  MEMB      104             0.0000000000
     12107       104  OSM       H17G           -2.7997059799      -13.7352232849       -0.7165975302  MEMB      104             0.0000000000
     12108       104  OSM       C18F           -2.3984743897      -13.9357605345        1.4198450277  MEMB      104             0.0000000000
     12109       104  OSM       H18F           -2.4671572107      -15.0397731007        1.3161130412  MEMB      104             0.0000000000
     12110       104  OSM       H18G           -3.4030876751      -13.6043325921        1.7592983596  MEMB      104             0.0000000000
     12111       104  OSM       H18H           -1.7295605759      -13.6647073541        2.2644781306  MEMB      104             0.0000000000
     12112       105  CHL1      C3             -4.8226211685       11.3575639259      -17.3119700000  MEMB      105             0.0000000000
     12113       105  CHL1      H3             -5.8074285357       10.9331589802      -17.0215100000  MEMB      105             0.0000000000
     12114       105  CHL1      O3             -4.7467674315       11.2087768741      -18.6880300000  MEMB      105             0.0000000000
     12115       105  CHL1      H3'            -5.5528319917       11.5830954093      -19.0509800000  MEMB      105             0.0000000000
     12116       105  CHL1      C4             -4.6744813590       12.8013692375      -17.0059800000  MEMB      105             0.0000000000
     12117       105  CHL1      H4A            -3.7480696653       13.2278221615      -17.4466900000  MEMB      105             0.0000000000
     12118       105  CHL1      H4B            -5.5677747845       13.2973974456      -17.4422300000  MEMB      105             0.0000000000
     12119       105  CHL1      C5             -4.6660734039       13.0247138983      -15.5178300000  MEMB      105             0.0000000000
     12120       105  CHL1      C6             -5.6012390453       13.8387963399      -14.9673700000  MEMB      105             0.0000000000
     12121       105  CHL1      H6             -6.2902192772       14.4677037676      -15.5502800000  MEMB      105             0.0000000000
     12122       105  CHL1      C7             -5.7689363188       14.0711799473      -13.5026700000  MEMB      105             0.0000000000
     12123       105  CHL1      H7A            -5.9494176376       15.1190202997      -13.1804900000  MEMB      105             0.0000000000
     12124       105  CHL1      H7B            -6.6219453517       13.3859938614      -13.3097600000  MEMB      105             0.0000000000
     12125       105  CHL1      C8             -4.4995121677       13.5355090586      -12.6959700000  MEMB      105             0.0000000000
     12126       105  CHL1      H8             -3.6087352810       14.1064408815      -13.0349000000  MEMB      105             0.0000000000
     12127       105  CHL1      C14            -4.7094125901       13.4653538509      -11.1107300000  MEMB      105             0.0000000000
     12128       105  CHL1      H14            -5.5510234113       12.7537096458      -10.9708200000  MEMB      105             0.0000000000
     12129       105  CHL1      C15            -5.2884059805       14.6421572307      -10.3583900000  MEMB      105             0.0000000000
     12130       105  CHL1      H15A           -5.0428043387       15.6093562266      -10.8467700000  MEMB      105             0.0000000000
     12131       105  CHL1      H15B           -6.3985337350       14.6033542255      -10.3375600000  MEMB      105             0.0000000000
     12132       105  CHL1      C16            -4.7884863243       14.5412376674       -8.9667300000  MEMB      105             0.0000000000
     12133       105  CHL1      H16A           -4.1508483081       15.3900863944       -8.6393200000  MEMB      105             0.0000000000
     12134       105  CHL1      H16B           -5.6866179033       14.4407508740       -8.3205400000  MEMB      105             0.0000000000
     12135       105  CHL1      C17            -4.0111137785       13.1679412239       -8.8648300000  MEMB      105             0.0000000000
     12136       105  CHL1      H17            -4.7364999102       12.3992922266       -8.5223500000  MEMB      105             0.0000000000
     12137       105  CHL1      C13            -3.5118963809       12.9456423603      -10.3257400000  MEMB      105             0.0000000000
     12138       105  CHL1      C18            -2.2676922875       13.8358658969      -10.5254200000  MEMB      105             0.0000000000
     12139       105  CHL1      H18A           -1.4825714980       13.6019561316       -9.7749600000  MEMB      105             0.0000000000
     12140       105  CHL1      H18B           -1.9313846453       13.8021241673      -11.5837600000  MEMB      105             0.0000000000
     12141       105  CHL1      H18C           -2.6170648018       14.8721089020      -10.3293000000  MEMB      105             0.0000000000
     12142       105  CHL1      C12            -3.2293502275       11.4853234815      -10.7372200000  MEMB      105             0.0000000000
     12143       105  CHL1      H12A           -2.3199081422       11.0881309740      -10.2377400000  MEMB      105             0.0000000000
     12144       105  CHL1      H12B           -4.0998754987       10.8816095816      -10.4025100000  MEMB      105             0.0000000000
     12145       105  CHL1      C11            -3.0777267937       11.3578735602      -12.2773900000  MEMB      105             0.0000000000
     12146       105  CHL1      H11A           -2.0819510552       11.6976795265      -12.6341700000  MEMB      105             0.0000000000
     12147       105  CHL1      H11B           -3.0826339652       10.2875706378      -12.5753000000  MEMB      105             0.0000000000
     12148       105  CHL1      C9             -4.0433488553       12.1846805676      -13.1758800000  MEMB      105             0.0000000000
     12149       105  CHL1      H9             -5.0053321526       11.6309416962      -13.1280300000  MEMB      105             0.0000000000
     12150       105  CHL1      C10            -3.6771236307       12.1775910135      -14.6489800000  MEMB      105             0.0000000000
     12151       105  CHL1      C19            -2.3668203697       12.8307355215      -14.9783100000  MEMB      105             0.0000000000
     12152       105  CHL1      H19A           -1.5014277263       12.2358467103      -14.6156300000  MEMB      105             0.0000000000
     12153       105  CHL1      H19B           -2.1745270838       13.0180717619      -16.0563900000  MEMB      105             0.0000000000
     12154       105  CHL1      H19C           -2.2945633459       13.8313389647      -14.5009200000  MEMB      105             0.0000000000
     12155       105  CHL1      C1             -3.6891992248       10.7038046717      -15.1563400000  MEMB      105             0.0000000000
     12156       105  CHL1      H1A            -2.8371678961       10.1238462077      -14.7416000000  MEMB      105             0.0000000000
     12157       105  CHL1      H1B            -4.6349269238       10.2377720100      -14.8060200000  MEMB      105             0.0000000000
     12158       105  CHL1      C2             -3.7000801463       10.5237807662      -16.6747200000  MEMB      105             0.0000000000
     12159       105  CHL1      H2A            -3.6443375431        9.4267830011      -16.8414500000  MEMB      105             0.0000000000
     12160       105  CHL1      H2B            -2.7192822617       10.8060376474      -17.1136600000  MEMB      105             0.0000000000
     12161       105  CHL1      C20            -3.0045338891       13.1516368961       -7.6685900000  MEMB      105             0.0000000000
     12162       105  CHL1      H20            -2.1675997555       13.8357461291       -7.9252200000  MEMB      105             0.0000000000
     12163       105  CHL1      C21            -2.2845597771       11.7740925582       -7.4692100000  MEMB      105             0.0000000000
     12164       105  CHL1      H21A           -1.7073949714       11.4575558228       -8.3642000000  MEMB      105             0.0000000000
     12165       105  CHL1      H21B           -2.9700890194       10.9045773496       -7.3779800000  MEMB      105             0.0000000000
     12166       105  CHL1      H21C           -1.5361305818       11.8056724029       -6.6487300000  MEMB      105             0.0000000000
     12167       105  CHL1      C22            -3.6486699637       13.5964026518       -6.3620100000  MEMB      105             0.0000000000
     12168       105  CHL1      H22A           -4.5151115696       14.2918241874       -6.3606500000  MEMB      105             0.0000000000
     12169       105  CHL1      H22B           -4.2450729838       12.7218531000       -6.0246700000  MEMB      105             0.0000000000
     12170       105  CHL1      C23            -2.6428147916       14.1183360960       -5.3291500000  MEMB      105             0.0000000000
     12171       105  CHL1      H23A           -1.6962683741       13.6066317614       -5.6058200000  MEMB      105             0.0000000000
     12172       105  CHL1      H23B           -2.3635528666       15.1851642308       -5.4641400000  MEMB      105             0.0000000000
     12173       105  CHL1      C24            -2.9477633794       13.7227328340       -3.9611700000  MEMB      105             0.0000000000
     12174       105  CHL1      H24A           -3.8941271821       14.1784628490       -3.5992000000  MEMB      105             0.0000000000
     12175       105  CHL1      H24B           -2.9760178638       12.6223921107       -4.1120800000  MEMB      105             0.0000000000
     12176       105  CHL1      C25            -1.8310741614       14.1710128386       -2.9537300000  MEMB      105             0.0000000000
     12177       105  CHL1      H25            -0.8342978963       14.1100664606       -3.4406100000  MEMB      105             0.0000000000
     12178       105  CHL1      C26            -1.9328885227       15.5984061843       -2.4918000000  MEMB      105             0.0000000000
     12179       105  CHL1      H26A           -3.0027303887       15.8217358930       -2.2921100000  MEMB      105             0.0000000000
     12180       105  CHL1      H26B           -1.4233625025       15.6622735221       -1.5066000000  MEMB      105             0.0000000000
     12181       105  CHL1      H26C           -1.4801997537       16.2668038430       -3.2551100000  MEMB      105             0.0000000000
     12182       105  CHL1      C27            -1.8586707945       13.2627979726       -1.7008700000  MEMB      105             0.0000000000
     12183       105  CHL1      H27A           -1.8727630317       12.1955435690       -2.0092100000  MEMB      105             0.0000000000
     12184       105  CHL1      H27B           -0.9224563224       13.4559688474       -1.1347400000  MEMB      105             0.0000000000
     12185       105  CHL1      H27C           -2.6926732409       13.5261428735       -1.0157300000  MEMB      105             0.0000000000
     12186       106  CHL1      C3              2.6907065188      -12.4270658639      -17.3081700000  MEMB      106             0.0000000000
     12187       106  CHL1      H3              1.6642331612      -12.8427882425      -17.2196100000  MEMB      106             0.0000000000
     12188       106  CHL1      O3              3.0012608212      -12.4011175361      -18.6918300000  MEMB      106             0.0000000000
     12189       106  CHL1      H3'             2.6530711435      -13.1915161732      -19.1109100000  MEMB      106             0.0000000000
     12190       106  CHL1      C4              2.7823712739      -11.0358454992      -16.6841400000  MEMB      106             0.0000000000
     12191       106  CHL1      H4A             3.8153887622      -10.6504688956      -16.8207900000  MEMB      106             0.0000000000
     12192       106  CHL1      H4B             2.0844704415      -10.3323960053      -17.1865500000  MEMB      106             0.0000000000
     12193       106  CHL1      C5              2.4804759453      -11.0769990195      -15.1740100000  MEMB      106             0.0000000000
     12194       106  CHL1      C6              1.4892610704      -10.4094731198      -14.6683100000  MEMB      106             0.0000000000
     12195       106  CHL1      H6              0.7581607175       -9.7841517312      -15.2016500000  MEMB      106             0.0000000000
     12196       106  CHL1      C7              1.1122034850      -10.4648500838      -13.2392200000  MEMB      106             0.0000000000
     12197       106  CHL1      H7A             0.7587287061       -9.4846850239      -12.8536500000  MEMB      106             0.0000000000
     12198       106  CHL1      H7B             0.3058352111      -11.2279679933      -13.1975000000  MEMB      106             0.0000000000
     12199       106  CHL1      C8              2.2207353234      -11.0142956035      -12.3543000000  MEMB      106             0.0000000000
     12200       106  CHL1      H8              3.0294052126      -10.2588749577      -12.2557000000  MEMB      106             0.0000000000
     12201       106  CHL1      C14             1.5715016424      -11.4243730936      -11.0695000000  MEMB      106             0.0000000000
     12202       106  CHL1      H14             0.8433043869      -12.1876392624      -11.4180400000  MEMB      106             0.0000000000
     12203       106  CHL1      C15             0.8002641139      -10.3144178728      -10.3276800000  MEMB      106             0.0000000000
     12204       106  CHL1      H15A            1.3510529132       -9.3496001829      -10.3361900000  MEMB      106             0.0000000000
     12205       106  CHL1      H15B           -0.1601224024      -10.2991517279      -10.8860200000  MEMB      106             0.0000000000
     12206       106  CHL1      C16             0.7909004963      -10.8821299017       -8.9116900000  MEMB      106             0.0000000000
     12207       106  CHL1      H16A            1.3386054202      -10.1745733233       -8.2531400000  MEMB      106             0.0000000000
     12208       106  CHL1      H16B           -0.2482319597      -10.9324406787       -8.5218500000  MEMB      106             0.0000000000
     12209       106  CHL1      C17             1.6169170149      -12.2141874597       -8.8560100000  MEMB      106             0.0000000000
     12210       106  CHL1      H17             0.9387230236      -13.0565684613       -9.1104900000  MEMB      106             0.0000000000
     12211       106  CHL1      C13             2.5452781024      -12.0749648093      -10.0505600000  MEMB      106             0.0000000000
     12212       106  CHL1      C18             3.5929052978      -11.0213573928       -9.6156300000  MEMB      106             0.0000000000
     12213       106  CHL1      H18A            3.9077312114      -10.4222681899      -10.4967000000  MEMB      106             0.0000000000
     12214       106  CHL1      H18B            3.2674959728      -10.2520524649       -8.8831000000  MEMB      106             0.0000000000
     12215       106  CHL1      H18C            4.4591748676      -11.5472270580       -9.1602500000  MEMB      106             0.0000000000
     12216       106  CHL1      C12             3.0886279300      -13.3943432989      -10.6295200000  MEMB      106             0.0000000000
     12217       106  CHL1      H12A            3.7327042507      -14.0232302196       -9.9783800000  MEMB      106             0.0000000000
     12218       106  CHL1      H12B            2.2079665017      -13.9841537047      -10.9625100000  MEMB      106             0.0000000000
     12219       106  CHL1      C11             3.7937709895      -13.0852148812      -11.9877700000  MEMB      106             0.0000000000
     12220       106  CHL1      H11A            4.7723644960      -12.6201662586      -11.7420000000  MEMB      106             0.0000000000
     12221       106  CHL1      H11B            3.9640236057      -14.0765916820      -12.4594700000  MEMB      106             0.0000000000
     12222       106  CHL1      C9              2.8297950024      -12.2688977361      -12.9155700000  MEMB      106             0.0000000000
     12223       106  CHL1      H9              2.0112221167      -13.0111295246      -13.0311000000  MEMB      106             0.0000000000
     12224       106  CHL1      C10             3.3699692952      -12.0423286488      -14.3669900000  MEMB      106             0.0000000000
     12225       106  CHL1      C19             4.7956592622      -11.4414138423      -14.2477700000  MEMB      106             0.0000000000
     12226       106  CHL1      H19A            5.1757387901      -11.3246800932      -15.2851900000  MEMB      106             0.0000000000
     12227       106  CHL1      H19B            4.7502892854      -10.5044348811      -13.6525200000  MEMB      106             0.0000000000
     12228       106  CHL1      H19C            5.5231210321      -12.1518201585      -13.8000600000  MEMB      106             0.0000000000
     12229       106  CHL1      C1              3.4070465726      -13.4014276859      -15.0916600000  MEMB      106             0.0000000000
     12230       106  CHL1      H1A             4.1275899500      -14.1259834172      -14.6556100000  MEMB      106             0.0000000000
     12231       106  CHL1      H1B             2.3845503416      -13.8318996158      -15.0324600000  MEMB      106             0.0000000000
     12232       106  CHL1      C2              3.5994263661      -13.4255443515      -16.6488700000  MEMB      106             0.0000000000
     12233       106  CHL1      H2A             3.4858327592      -14.4586759126      -17.0413700000  MEMB      106             0.0000000000
     12234       106  CHL1      H2B             4.5847885421      -13.0353619483      -16.9822700000  MEMB      106             0.0000000000
     12235       106  CHL1      C20             2.1374173685      -12.5622846639       -7.4166800000  MEMB      106             0.0000000000
     12236       106  CHL1      H20             2.7660103316      -11.7464860418       -6.9999600000  MEMB      106             0.0000000000
     12237       106  CHL1      C21             3.0083646732      -13.8460902844       -7.3859900000  MEMB      106             0.0000000000
     12238       106  CHL1      H21A            4.0427784782      -13.6406604885       -7.7354300000  MEMB      106             0.0000000000
     12239       106  CHL1      H21B            2.5022936643      -14.5633316351       -8.0669900000  MEMB      106             0.0000000000
     12240       106  CHL1      H21C            3.0541194541      -14.2160984379       -6.3394100000  MEMB      106             0.0000000000
     12241       106  CHL1      C22             0.8823791260      -12.6424958527       -6.4496700000  MEMB      106             0.0000000000
     12242       106  CHL1      H22A            0.3792684569      -11.6520699577       -6.4338400000  MEMB      106             0.0000000000
     12243       106  CHL1      H22B            0.1320163218      -13.3676836017       -6.8309600000  MEMB      106             0.0000000000
     12244       106  CHL1      C23             1.1370554457      -12.7857591410       -4.9213700000  MEMB      106             0.0000000000
     12245       106  CHL1      H23A            1.6117959519      -13.7792764203       -4.7734300000  MEMB      106             0.0000000000
     12246       106  CHL1      H23B            1.8528552829      -11.9931431508       -4.6152400000  MEMB      106             0.0000000000
     12247       106  CHL1      C24            -0.1581476486      -12.6913383397       -4.0574600000  MEMB      106             0.0000000000
     12248       106  CHL1      H24A           -0.7297808427      -11.7953163036       -4.3810200000  MEMB      106             0.0000000000
     12249       106  CHL1      H24B           -0.8760185280      -13.5064033652       -4.2911800000  MEMB      106             0.0000000000
     12250       106  CHL1      C25             0.1440501320      -12.6691948832       -2.5500600000  MEMB      106             0.0000000000
     12251       106  CHL1      H25             0.9229523259      -11.8908364342       -2.4024800000  MEMB      106             0.0000000000
     12252       106  CHL1      C26            -1.1472128768      -12.3347494637       -1.7444000000  MEMB      106             0.0000000000
     12253       106  CHL1      H26A           -1.3697532929      -11.2542232800       -1.8758200000  MEMB      106             0.0000000000
     12254       106  CHL1      H26B           -1.9509058130      -13.0357561579       -2.0558100000  MEMB      106             0.0000000000
     12255       106  CHL1      H26C           -0.9113361984      -12.4886657510       -0.6697000000  MEMB      106             0.0000000000
     12256       106  CHL1      C27             0.7784888305      -13.9910095977       -2.1724400000  MEMB      106             0.0000000000
     12257       106  CHL1      H27A            1.0415439090      -13.9515653359       -1.0937500000  MEMB      106             0.0000000000
     12258       106  CHL1      H27B            0.1070098204      -14.8286811591       -2.4583700000  MEMB      106             0.0000000000
     12259       106  CHL1      H27C            1.7655313850      -14.1879435308       -2.6428500000  MEMB      106             0.0000000000
     12260       107  SAPS      N              13.1865563649        1.0577612083      -18.1044349444  MEMB      107             0.0000000000
     12261       107  SAPS      HN1            13.4682090725        0.2470612815      -17.5170362013  MEMB      107             0.0000000000
     12262       107  SAPS      HN2            13.5741452119        1.8750462113      -17.5911903499  MEMB      107             0.0000000000
     12263       107  SAPS      HN3            12.1755412991        1.2999261810      -18.0760695391  MEMB      107             0.0000000000
     12264       107  SAPS      C12            13.5421898276        0.9063982236      -19.5621485534  MEMB      107             0.0000000000
     12265       107  SAPS      H12A           12.7723676885        1.3811126649      -20.1524197560  MEMB      107             0.0000000000
     12266       107  SAPS      C13            14.8650875290        1.5537472466      -19.9594892152  MEMB      107             0.0000000000
     12267       107  SAPS      O13A           15.6482433794        2.0644534663      -19.1181643327  MEMB      107             0.0000000000
     12268       107  SAPS      O13B           15.1434061267        1.5809530435      -21.1770397654  MEMB      107             0.0000000000
     12269       107  SAPS      C11            13.6703221281       -0.5363540935      -19.9680768843  MEMB      107             0.0000000000
     12270       107  SAPS      H11A           14.4774145673       -1.0346407835      -19.3896020314  MEMB      107             0.0000000000
     12271       107  SAPS      H11B           13.9279208036       -0.5435446939      -21.0487767396  MEMB      107             0.0000000000
     12272       107  SAPS      P              11.1815351257       -1.0968477436      -20.5412247569  MEMB      107             0.0000000000
     12273       107  SAPS      O13            11.5002148118       -0.1161418427      -21.5744317120  MEMB      107             0.0000000000
     12274       107  SAPS      O14            10.5600658668       -2.3709181947      -20.9305026358  MEMB      107             0.0000000000
     12275       107  SAPS      O12            12.4872789918       -1.3561718907      -19.7013476259  MEMB      107             0.0000000000
     12276       107  SAPS      O11            10.3156561991       -0.4571020347      -19.3631395846  MEMB      107             0.0000000000
     12277       107  SAPS      C1             10.0437132080       -1.1783760457      -18.1737205251  MEMB      107             0.0000000000
     12278       107  SAPS      HA              9.8055899786       -2.2236705132      -18.4652300195  MEMB      107             0.0000000000
     12279       107  SAPS      HB             10.9748446011       -1.1996674888      -17.5680290767  MEMB      107             0.0000000000
     12280       107  SAPS      C2              8.9041199929       -0.4751452947      -17.4183234790  MEMB      107             0.0000000000
     12281       107  SAPS      HS              8.1257886607       -0.2406411596      -18.1756405899  MEMB      107             0.0000000000
     12282       107  SAPS      O21             9.2926626135        0.8513811279      -16.9137641175  MEMB      107             0.0000000000
     12283       107  SAPS      C21             8.3674857829        1.5713488436      -16.4295821971  MEMB      107             0.0000000000
     12284       107  SAPS      O22             7.1723457205        1.3939377137      -16.4524337047  MEMB      107             0.0000000000
     12285       107  SAPS      C22             8.9667868532        2.8717409442      -15.9726865320  MEMB      107             0.0000000000
     12286       107  SAPS      H2R             8.9872262215        3.5933764958      -16.8171656833  MEMB      107             0.0000000000
     12287       107  SAPS      H2S             8.3803550216        3.3799279412      -15.1775983924  MEMB      107             0.0000000000
     12288       107  SAPS      C3              8.3901030464       -1.3225077076      -16.1642241381  MEMB      107             0.0000000000
     12289       107  SAPS      HX              8.0089264486       -2.2781300996      -16.5835222102  MEMB      107             0.0000000000
     12290       107  SAPS      HY              7.4438835671       -0.8720723804      -15.7953099378  MEMB      107             0.0000000000
     12291       107  SAPS      O31             9.3807089437       -1.4104415436      -15.1646030314  MEMB      107             0.0000000000
     12292       107  SAPS      C31             9.6894239153       -2.6007100653      -14.7255759007  MEMB      107             0.0000000000
     12293       107  SAPS      O32             9.0738905084       -3.6471058313      -14.8772609550  MEMB      107             0.0000000000
     12294       107  SAPS      C32            10.8521493498       -2.3073147173      -13.7853135167  MEMB      107             0.0000000000
     12295       107  SAPS      H2X            10.4930407252       -2.3006333451      -12.7339728296  MEMB      107             0.0000000000
     12296       107  SAPS      H2Y            11.4535024403       -1.3739909371      -13.8253416958  MEMB      107             0.0000000000
     12297       107  SAPS      C23            10.4623822653        2.6958599754      -15.4963725037  MEMB      107             0.0000000000
     12298       107  SAPS      H3R            11.0416982373        2.1180758508      -16.2479575790  MEMB      107             0.0000000000
     12299       107  SAPS      H3S            10.2865068921        2.1625687063      -14.5377335190  MEMB      107             0.0000000000
     12300       107  SAPS      C24            11.1609974348        4.0643090290      -15.1977649739  MEMB      107             0.0000000000
     12301       107  SAPS      H4R            10.5154675919        4.6907011703      -14.5456568806  MEMB      107             0.0000000000
     12302       107  SAPS      H4S            11.0883371065        4.6365155227      -16.1473026248  MEMB      107             0.0000000000
     12303       107  SAPS      C25            12.5537162950        4.1999873782      -14.6039681738  MEMB      107             0.0000000000
     12304       107  SAPS      H5R            13.3721677603        4.0077851422      -15.3133305207  MEMB      107             0.0000000000
     12305       107  SAPS      C26            12.8067820625        4.2038288118      -13.2295943244  MEMB      107             0.0000000000
     12306       107  SAPS      H6R            13.8619959159        4.3142667890      -12.9392034095  MEMB      107             0.0000000000
     12307       107  SAPS      C27            11.7468810583        4.1575572800      -12.1261015728  MEMB      107             0.0000000000
     12308       107  SAPS      H7R            12.1896840889        3.6932230687      -11.2191067195  MEMB      107             0.0000000000
     12309       107  SAPS      H7S            10.9632661462        3.4857101101      -12.5370641621  MEMB      107             0.0000000000
     12310       107  SAPS      C28            11.0830818725        5.4813551116      -11.7920040178  MEMB      107             0.0000000000
     12311       107  SAPS      H8R            11.1653863071        6.3997867788      -12.3917609643  MEMB      107             0.0000000000
     12312       107  SAPS      C29            10.4067908489        5.6675415279      -10.6246086248  MEMB      107             0.0000000000
     12313       107  SAPS      H9R            10.0103244706        6.6663677360      -10.3897462295  MEMB      107             0.0000000000
     12314       107  SAPS      C210           10.1550327562        4.6835229659       -9.4651970714  MEMB      107             0.0000000000
     12315       107  SAPS      H10R           10.7693373925        3.7650658679       -9.5809009741  MEMB      107             0.0000000000
     12316       107  SAPS      H10S            9.1314644941        4.2627745138       -9.5631752529  MEMB      107             0.0000000000
     12317       107  SAPS      C211           10.4455825212        5.2860668935       -8.1044766104  MEMB      107             0.0000000000
     12318       107  SAPS      H11R           11.1075283415        6.1460102682       -8.2842691574  MEMB      107             0.0000000000
     12319       107  SAPS      C212            9.9689721314        5.0155703793       -6.9182151308  MEMB      107             0.0000000000
     12320       107  SAPS      H12R           10.2519597229        5.5270527648       -5.9863868735  MEMB      107             0.0000000000
     12321       107  SAPS      C213            8.9611076608        3.9187617367       -6.6709695959  MEMB      107             0.0000000000
     12322       107  SAPS      H13R            9.4262181551        2.9150167710       -6.5685520459  MEMB      107             0.0000000000
     12323       107  SAPS      H13S            8.2339985173        3.7786659536       -7.4992244845  MEMB      107             0.0000000000
     12324       107  SAPS      C214            8.2410399868        4.1098115805       -5.3455102529  MEMB      107             0.0000000000
     12325       107  SAPS      H14R            7.1645404185        4.1826673056       -5.5596146661  MEMB      107             0.0000000000
     12326       107  SAPS      C215            8.6140218102        4.0648598119       -4.0627840722  MEMB      107             0.0000000000
     12327       107  SAPS      H15R            7.8903272783        4.2097029267       -3.2471340866  MEMB      107             0.0000000000
     12328       107  SAPS      C216            9.9478926187        3.7170066147       -3.4950927720  MEMB      107             0.0000000000
     12329       107  SAPS      H16R           10.4047174997        4.6202389758       -3.0370501350  MEMB      107             0.0000000000
     12330       107  SAPS      H16S           10.5804584543        3.3350428424       -4.3247222363  MEMB      107             0.0000000000
     12331       107  SAPS      C217            9.9925267518        2.6126910900       -2.4373356329  MEMB      107             0.0000000000
     12332       107  SAPS      H17R           11.0116455696        2.2244919513       -2.2251583037  MEMB      107             0.0000000000
     12333       107  SAPS      H17S            9.3047314188        1.7885657131       -2.7238230660  MEMB      107             0.0000000000
     12334       107  SAPS      C218            9.4570852574        3.1060885360       -1.1041061983  MEMB      107             0.0000000000
     12335       107  SAPS      H18R            8.5434485031        3.7358286244       -1.1590309097  MEMB      107             0.0000000000
     12336       107  SAPS      H18S           10.2777852535        3.7788064515       -0.7751327182  MEMB      107             0.0000000000
     12337       107  SAPS      C219            9.3916305868        1.9501151927       -0.1370822061  MEMB      107             0.0000000000
     12338       107  SAPS      H19R           10.3975537749        1.4799025450       -0.1736784747  MEMB      107             0.0000000000
     12339       107  SAPS      H19S            8.6605615050        1.1911356176       -0.4889476149  MEMB      107             0.0000000000
     12340       107  SAPS      C220            8.9241717261        2.4344950373        1.2112366722  MEMB      107             0.0000000000
     12341       107  SAPS      H20R            9.7370172800        3.0149642467        1.6977136576  MEMB      107             0.0000000000
     12342       107  SAPS      H20S            8.7520667860        1.5170427696        1.8137171538  MEMB      107             0.0000000000
     12343       107  SAPS      H20T            8.0329291167        3.0975042711        1.2318915655  MEMB      107             0.0000000000
     12344       107  SAPS      C33            11.8153171642       -3.5777258824      -13.9584060286  MEMB      107             0.0000000000
     12345       107  SAPS      H3X            11.3557915333       -4.5539677917      -14.2231861123  MEMB      107             0.0000000000
     12346       107  SAPS      H3Y            12.2009498329       -3.6682337606      -12.9204191454  MEMB      107             0.0000000000
     12347       107  SAPS      C34            12.8363700132       -3.3174716095      -15.0827846742  MEMB      107             0.0000000000
     12348       107  SAPS      H4X            12.2620253980       -3.2124775179      -16.0279964287  MEMB      107             0.0000000000
     12349       107  SAPS      H4Y            13.4611470526       -4.2312221047      -15.1778357304  MEMB      107             0.0000000000
     12350       107  SAPS      C35            13.6156407785       -1.9423714029      -14.9820208088  MEMB      107             0.0000000000
     12351       107  SAPS      H5X            13.0457933708       -1.0092856301      -15.1793682191  MEMB      107             0.0000000000
     12352       107  SAPS      H5Y            14.4510037161       -2.0752455583      -15.7023223166  MEMB      107             0.0000000000
     12353       107  SAPS      C36            14.0612616652       -1.6230155118      -13.5688246444  MEMB      107             0.0000000000
     12354       107  SAPS      H6X            14.9311886769       -2.2620717359      -13.3058510070  MEMB      107             0.0000000000
     12355       107  SAPS      H6Y            13.2812757177       -1.7860170261      -12.7946328989  MEMB      107             0.0000000000
     12356       107  SAPS      C37            14.5611993040       -0.1907151917      -13.5080521514  MEMB      107             0.0000000000
     12357       107  SAPS      H7X            13.5966031718        0.3274879643      -13.6960431108  MEMB      107             0.0000000000
     12358       107  SAPS      H7Y            15.3414172538        0.0763666057      -14.2525308910  MEMB      107             0.0000000000
     12359       107  SAPS      C38            15.0530393015        0.3823615369      -12.1238780444  MEMB      107             0.0000000000
     12360       107  SAPS      H8X            15.3385021407        1.4518953337      -12.2183726227  MEMB      107             0.0000000000
     12361       107  SAPS      H8Y            15.9166280544       -0.2608657085      -11.8503929481  MEMB      107             0.0000000000
     12362       107  SAPS      C39            13.9706568394        0.3578533379      -10.9889346190  MEMB      107             0.0000000000
     12363       107  SAPS      H9X            13.9068115557       -0.7081686615      -10.6825985900  MEMB      107             0.0000000000
     12364       107  SAPS      H9Y            12.9999713683        0.6460644286      -11.4461275719  MEMB      107             0.0000000000
     12365       107  SAPS      C310           14.2989915810        1.2863161261       -9.8286734534  MEMB      107             0.0000000000
     12366       107  SAPS      H10X           14.1853983068        2.3373565331      -10.1703335647  MEMB      107             0.0000000000
     12367       107  SAPS      H10Y           15.3350465167        1.0834054893       -9.4826410737  MEMB      107             0.0000000000
     12368       107  SAPS      C311           13.2782270054        1.1134368771       -8.6883621697  MEMB      107             0.0000000000
     12369       107  SAPS      H11X           13.1383636813        0.0205831601       -8.5454275311  MEMB      107             0.0000000000
     12370       107  SAPS      H11Y           12.3349539114        1.6655726586       -8.8876182417  MEMB      107             0.0000000000
     12371       107  SAPS      C312           13.8847609610        1.4803099099       -7.3159058546  MEMB      107             0.0000000000
     12372       107  SAPS      H12X           14.4293131330        2.4469454950       -7.2575996005  MEMB      107             0.0000000000
     12373       107  SAPS      H12Y           14.5977077943        0.6820814866       -7.0178130654  MEMB      107             0.0000000000
     12374       107  SAPS      C313           12.7883962690        1.7084153292       -6.1823191783  MEMB      107             0.0000000000
     12375       107  SAPS      H13X           12.1308851943        2.5121416895       -6.5773180280  MEMB      107             0.0000000000
     12376       107  SAPS      H13Y           13.2951916212        2.0814160063       -5.2667048411  MEMB      107             0.0000000000
     12377       107  SAPS      C314           11.8430516928        0.6065284562       -5.8964905745  MEMB      107             0.0000000000
     12378       107  SAPS      H14X           11.3727789774        0.2533236859       -6.8390467435  MEMB      107             0.0000000000
     12379       107  SAPS      H14Y           11.0284965791        0.9336877811       -5.2154715193  MEMB      107             0.0000000000
     12380       107  SAPS      C315           12.4798039313       -0.7759330193       -5.3634144613  MEMB      107             0.0000000000
     12381       107  SAPS      H15X           13.0670713117       -1.3397195689       -6.1194458733  MEMB      107             0.0000000000
     12382       107  SAPS      H15Y           11.6536598773       -1.4606586393       -5.0753906155  MEMB      107             0.0000000000
     12383       107  SAPS      C316           13.4103236353       -0.5195308908       -4.1473016288  MEMB      107             0.0000000000
     12384       107  SAPS      H16X           14.2276340043        0.0745720991       -4.6092174461  MEMB      107             0.0000000000
     12385       107  SAPS      H16Y           13.8213892111       -1.5014205876       -3.8291207907  MEMB      107             0.0000000000
     12386       107  SAPS      C317           12.7136411286        0.2432870504       -3.0302211893  MEMB      107             0.0000000000
     12387       107  SAPS      H17X           11.6760000765       -0.1301193244       -2.8953531473  MEMB      107             0.0000000000
     12388       107  SAPS      H17Y           12.4888741174        1.2407753535       -3.4647524610  MEMB      107             0.0000000000
     12389       107  SAPS      C318           13.4869227250        0.3201819978       -1.6717182284  MEMB      107             0.0000000000
     12390       107  SAPS      H18X           13.0085034824        0.9560496628       -0.8964073258  MEMB      107             0.0000000000
     12391       107  SAPS      H18Y           14.4652970829        0.8059815271       -1.8744589055  MEMB      107             0.0000000000
     12392       107  SAPS      H18Z           13.6693407230       -0.6842151615       -1.2332765224  MEMB      107             0.0000000000
     12393       108  POPC      N              10.7050722009        5.9380661969      -18.8159762660  MEMB      108             0.0000000000
     12394       108  POPC      C12             9.8270183782        6.9110368604      -18.0020190563  MEMB      108             0.0000000000
     12395       108  POPC      H12A           10.4770378932        7.3215626136      -17.2435052563  MEMB      108             0.0000000000
     12396       108  POPC      H12B            9.0147006918        6.3404095767      -17.5766667169  MEMB      108             0.0000000000
     12397       108  POPC      C13             9.9672075553        5.4307440672      -20.0301372892  MEMB      108             0.0000000000
     12398       108  POPC      H13A           10.5542759073        4.6441389870      -20.4806957486  MEMB      108             0.0000000000
     12399       108  POPC      H13B            9.0432375671        4.9221034696      -19.7978356933  MEMB      108             0.0000000000
     12400       108  POPC      H13C            9.8971316651        6.1952334656      -20.7897724056  MEMB      108             0.0000000000
     12401       108  POPC      C14            11.9526888111        6.6558547358      -19.3290016591  MEMB      108             0.0000000000
     12402       108  POPC      H14A           11.6749042335        7.4326744502      -20.0259856187  MEMB      108             0.0000000000
     12403       108  POPC      H14B           12.4915323332        6.9975304519      -18.4576203716  MEMB      108             0.0000000000
     12404       108  POPC      H14C           12.4962251524        5.9124668914      -19.8932206538  MEMB      108             0.0000000000
     12405       108  POPC      C15            10.9838623945        4.7312431312      -18.0696147622  MEMB      108             0.0000000000
     12406       108  POPC      H15A           10.0787552019        4.2646438302      -17.7098011307  MEMB      108             0.0000000000
     12407       108  POPC      H15B           11.6505959959        4.9527169631      -17.2493614067  MEMB      108             0.0000000000
     12408       108  POPC      H15C           11.5265896829        4.0092038312      -18.6616505438  MEMB      108             0.0000000000
     12409       108  POPC      C11             9.2020847072        8.0402969095      -18.7835308967  MEMB      108             0.0000000000
     12410       108  POPC      H11A            8.6100743506        8.7070463040      -18.1207413217  MEMB      108             0.0000000000
     12411       108  POPC      H11B            8.5001504086        7.5697631718      -19.5047848896  MEMB      108             0.0000000000
     12412       108  POPC      P              10.6979771992       10.0450358548      -19.2222114375  MEMB      108             0.0000000000
     12413       108  POPC      O13             9.6751745543       11.0558232089      -19.0531573025  MEMB      108             0.0000000000
     12414       108  POPC      O14            11.8228019744       10.3622165876      -20.1696185886  MEMB      108             0.0000000000
     12415       108  POPC      O12            10.0807588973        8.7517721255      -19.6536663427  MEMB      108             0.0000000000
     12416       108  POPC      O11            11.3374607229        9.5953536304      -17.8710664039  MEMB      108             0.0000000000
     12417       108  POPC      C1             12.0700175882       10.3990706888      -17.0163079355  MEMB      108             0.0000000000
     12418       108  POPC      HA             11.4371773742       11.2558603669      -16.7004826140  MEMB      108             0.0000000000
     12419       108  POPC      HB             12.9322551355       10.8104453730      -17.5834395075  MEMB      108             0.0000000000
     12420       108  POPC      C2             12.5897994234        9.6370790029      -15.7791130836  MEMB      108             0.0000000000
     12421       108  POPC      HS             13.1051717131        8.7040543754      -16.0924458802  MEMB      108             0.0000000000
     12422       108  POPC      O21            11.3603302861        9.2409710152      -15.1194627773  MEMB      108             0.0000000000
     12423       108  POPC      C21            11.2652230659        8.6185042749      -13.9888460880  MEMB      108             0.0000000000
     12424       108  POPC      O22            12.0444883838        7.9097580398      -13.3941348158  MEMB      108             0.0000000000
     12425       108  POPC      C22             9.8457506136        8.9429917359      -13.4907302719  MEMB      108             0.0000000000
     12426       108  POPC      H2R             9.1475698919        9.3324871604      -14.2621948921  MEMB      108             0.0000000000
     12427       108  POPC      H2S             9.9946842162        9.7740611080      -12.7686059044  MEMB      108             0.0000000000
     12428       108  POPC      C3             13.5713244560       10.4137737804      -14.9656012936  MEMB      108             0.0000000000
     12429       108  POPC      HX             14.2124292974       10.9493461879      -15.6980407423  MEMB      108             0.0000000000
     12430       108  POPC      HY             14.2022285669        9.6741047380      -14.4278552810  MEMB      108             0.0000000000
     12431       108  POPC      O31            13.0308442719       11.4048322015      -14.0579022077  MEMB      108             0.0000000000
     12432       108  POPC      C31            13.8051718123       11.8049933653      -13.0781532178  MEMB      108             0.0000000000
     12433       108  POPC      O32            15.0650187674       11.6089816464      -13.0397574175  MEMB      108             0.0000000000
     12434       108  POPC      C32            13.0769994715       12.7968593631      -12.2618719193  MEMB      108             0.0000000000
     12435       108  POPC      H2X            12.7290751516       13.6150603504      -12.9280675554  MEMB      108             0.0000000000
     12436       108  POPC      H2Y            13.7574279271       13.3032792605      -11.5443220232  MEMB      108             0.0000000000
     12437       108  POPC      C23             9.2556191188        7.6882329889      -12.8460413655  MEMB      108             0.0000000000
     12438       108  POPC      H3R             9.8922377824        7.3702231307      -11.9928667975  MEMB      108             0.0000000000
     12439       108  POPC      H3S             9.0834938136        6.9149647009      -13.6249833697  MEMB      108             0.0000000000
     12440       108  POPC      C24             7.8530615773        7.9379675635      -12.2641737208  MEMB      108             0.0000000000
     12441       108  POPC      H4R             7.5723473998        7.0689620194      -11.6314415833  MEMB      108             0.0000000000
     12442       108  POPC      H4S             7.1601791563        8.1511639479      -13.1060659586  MEMB      108             0.0000000000
     12443       108  POPC      C25             7.7291019036        9.0983505915      -11.2647369805  MEMB      108             0.0000000000
     12444       108  POPC      H5R             6.6888519692        9.4659698083      -11.1341330903  MEMB      108             0.0000000000
     12445       108  POPC      H5S             8.2479675047        9.9882446983      -11.6808955830  MEMB      108             0.0000000000
     12446       108  POPC      C26             8.4157466918        8.7980697936       -9.8812811237  MEMB      108             0.0000000000
     12447       108  POPC      H6R             9.4853721439        8.7365332163      -10.1752803986  MEMB      108             0.0000000000
     12448       108  POPC      H6S             8.0693285653        7.7990608736       -9.5402580291  MEMB      108             0.0000000000
     12449       108  POPC      C27             8.2156332526        9.8837334470       -8.8880884110  MEMB      108             0.0000000000
     12450       108  POPC      H7R             7.1685378233        9.8390748858       -8.5194181324  MEMB      108             0.0000000000
     12451       108  POPC      H7S             8.3225605163       10.9120992203       -9.2947230621  MEMB      108             0.0000000000
     12452       108  POPC      C28             9.1323838436        9.6411501374       -7.7105900268  MEMB      108             0.0000000000
     12453       108  POPC      H8R             8.9777031919       10.5192491911       -7.0477649191  MEMB      108             0.0000000000
     12454       108  POPC      H8S            10.1833171735        9.8386706882       -8.0119962808  MEMB      108             0.0000000000
     12455       108  POPC      C29             8.8377173932        8.3122614421       -7.0158567060  MEMB      108             0.0000000000
     12456       108  POPC      H91             7.7884261535        8.0044213752       -6.8965995019  MEMB      108             0.0000000000
     12457       108  POPC      C210            9.7318447944        7.4871145305       -6.4551985731  MEMB      108             0.0000000000
     12458       108  POPC      H101            9.3219827186        6.5978914256       -5.9539041507  MEMB      108             0.0000000000
     12459       108  POPC      C211           11.1938064548        7.8262114109       -6.4585705307  MEMB      108             0.0000000000
     12460       108  POPC      H11R           11.2910088298        8.8198578649       -5.9711905195  MEMB      108             0.0000000000
     12461       108  POPC      H11S           11.5434273169        7.8033028903       -7.5128768323  MEMB      108             0.0000000000
     12462       108  POPC      C212           12.0115474102        6.7883589661       -5.6761540864  MEMB      108             0.0000000000
     12463       108  POPC      H12R           11.6205688824        6.8597152002       -4.6386734098  MEMB      108             0.0000000000
     12464       108  POPC      H12S           13.0779266248        7.0833223050       -5.7769157358  MEMB      108             0.0000000000
     12465       108  POPC      C213           11.7630768929        5.3417167967       -6.2208145680  MEMB      108             0.0000000000
     12466       108  POPC      H13R           11.9588620415        5.1850402637       -7.3031463825  MEMB      108             0.0000000000
     12467       108  POPC      H13S           10.7093202908        4.9897157407       -6.2171610400  MEMB      108             0.0000000000
     12468       108  POPC      C214           12.6762239894        4.3262737429       -5.3680704662  MEMB      108             0.0000000000
     12469       108  POPC      H14R           13.7613889244        4.5568273376       -5.4279304965  MEMB      108             0.0000000000
     12470       108  POPC      H14S           12.5076993497        3.3464917930       -5.8640013315  MEMB      108             0.0000000000
     12471       108  POPC      C215           12.3636540566        4.2290511822       -3.8560714057  MEMB      108             0.0000000000
     12472       108  POPC      H15R           12.7286392140        5.1509646789       -3.3548900980  MEMB      108             0.0000000000
     12473       108  POPC      H15S           12.9527500199        3.3441169033       -3.5333046530  MEMB      108             0.0000000000
     12474       108  POPC      C216           10.8917594957        4.0378106034       -3.3756267269  MEMB      108             0.0000000000
     12475       108  POPC      H16R           10.5145586496        3.0573693785       -3.7372553183  MEMB      108             0.0000000000
     12476       108  POPC      H16S           10.2704272237        4.8449749177       -3.8191960928  MEMB      108             0.0000000000
     12477       108  POPC      C217           10.7910938366        4.0434780584       -1.8632360681  MEMB      108             0.0000000000
     12478       108  POPC      H17R           11.4684045913        4.8179660689       -1.4440239944  MEMB      108             0.0000000000
     12479       108  POPC      H17S           11.1879847772        3.0558811539       -1.5447225752  MEMB      108             0.0000000000
     12480       108  POPC      C218            9.4033775807        4.0936886979       -1.3761090931  MEMB      108             0.0000000000
     12481       108  POPC      H18R            9.3430295254        4.1171263947       -0.2669965058  MEMB      108             0.0000000000
     12482       108  POPC      H18S            8.8942042875        3.1851274678       -1.7628655198  MEMB      108             0.0000000000
     12483       108  POPC      H18T            8.8895207846        4.9824930954       -1.8007244385  MEMB      108             0.0000000000
     12484       108  POPC      C33            12.0853263660       12.0495893405      -11.3320396068  MEMB      108             0.0000000000
     12485       108  POPC      H3X            11.3007138775       11.5726053982      -11.9574917908  MEMB      108             0.0000000000
     12486       108  POPC      H3Y            11.6003525874       12.8644820005      -10.7531858421  MEMB      108             0.0000000000
     12487       108  POPC      C34            12.7153779544       11.1017505776      -10.3508291989  MEMB      108             0.0000000000
     12488       108  POPC      H4X            13.0642479900       10.2719778349      -11.0020489015  MEMB      108             0.0000000000
     12489       108  POPC      H4Y            11.9475469404       10.7094482695       -9.6502185247  MEMB      108             0.0000000000
     12490       108  POPC      C35            13.7916518708       11.7517499082       -9.4004485715  MEMB      108             0.0000000000
     12491       108  POPC      H5X            13.6244565686       12.8078095280       -9.0986127181  MEMB      108             0.0000000000
     12492       108  POPC      H5Y            14.7625210275       11.8529631327       -9.9310047914  MEMB      108             0.0000000000
     12493       108  POPC      C36            14.1490178587       10.9228631136       -8.1858228478  MEMB      108             0.0000000000
     12494       108  POPC      H6X            14.6831542867       10.0259737657       -8.5660971729  MEMB      108             0.0000000000
     12495       108  POPC      H6Y            13.1783885183       10.5920411714       -7.7583227013  MEMB      108             0.0000000000
     12496       108  POPC      C37            14.9334712595       11.7001987340       -7.1104506201  MEMB      108             0.0000000000
     12497       108  POPC      H7X            15.6083414195       12.4287157453       -7.6085806102  MEMB      108             0.0000000000
     12498       108  POPC      H7Y            15.4883301863       10.9451571100       -6.5134877099  MEMB      108             0.0000000000
     12499       108  POPC      C38            13.9762611149       12.3630487144       -6.1753663364  MEMB      108             0.0000000000
     12500       108  POPC      H8X            13.2328016098       12.9996322823       -6.7010566104  MEMB      108             0.0000000000
     12501       108  POPC      H8Y            14.5060308370       13.0937204640       -5.5274589195  MEMB      108             0.0000000000
     12502       108  POPC      C39            13.2580326727       11.3828209541       -5.2630543916  MEMB      108             0.0000000000
     12503       108  POPC      H9X            13.9944280147       10.7448261330       -4.7291955079  MEMB      108             0.0000000000
     12504       108  POPC      H9Y            12.5021029266       10.7380935049       -5.7602642761  MEMB      108             0.0000000000
     12505       108  POPC      C310           12.3747814118       12.2616636661       -4.3446521432  MEMB      108             0.0000000000
     12506       108  POPC      H10X           11.3869505129       12.5126631877       -4.7868177239  MEMB      108             0.0000000000
     12507       108  POPC      H10Y           12.9478288405       13.1986899536       -4.1775606414  MEMB      108             0.0000000000
     12508       108  POPC      C311           12.1952500564       11.6009695530       -2.9348012929  MEMB      108             0.0000000000
     12509       108  POPC      H11X           11.8527139662       12.4506970725       -2.3063486884  MEMB      108             0.0000000000
     12510       108  POPC      H11Y           13.2454673043       11.3900167011       -2.6400748793  MEMB      108             0.0000000000
     12511       108  POPC      C312           11.2445999682       10.4092967489       -2.8524411410  MEMB      108             0.0000000000
     12512       108  POPC      H12X           11.7711741871        9.5912190027       -3.3889014463  MEMB      108             0.0000000000
     12513       108  POPC      H12Y           10.2158116325       10.5604725808       -3.2436716860  MEMB      108             0.0000000000
     12514       108  POPC      C313           11.1641331104       10.0710781118       -1.2938501467  MEMB      108             0.0000000000
     12515       108  POPC      H13X           10.9489754485       10.9421122127       -0.6386195397  MEMB      108             0.0000000000
     12516       108  POPC      H13Y           12.0068287996        9.6050568101       -0.7397662355  MEMB      108             0.0000000000
     12517       108  POPC      C314            9.8752895121        9.1289759234       -1.0774271566  MEMB      108             0.0000000000
     12518       108  POPC      H14X            9.9843948657        8.8976905860        0.0037399906  MEMB      108             0.0000000000
     12519       108  POPC      H14Y           10.0413828130        8.3079575022       -1.8072656364  MEMB      108             0.0000000000
     12520       108  POPC      C315            8.4364228903        9.6686125301       -1.4450735954  MEMB      108             0.0000000000
     12521       108  POPC      H15X            7.7073997170        8.9687844872       -0.9834610062  MEMB      108             0.0000000000
     12522       108  POPC      H15Y            8.1126464209        9.4296866367       -2.4806427609  MEMB      108             0.0000000000
     12523       108  POPC      C316            8.0429382390       11.1577852331       -1.2927473397  MEMB      108             0.0000000000
     12524       108  POPC      H16X            8.8542377523       11.8300839679       -1.6450665517  MEMB      108             0.0000000000
     12525       108  POPC      H16Y            7.9083700327       11.4436427911       -0.2276195519  MEMB      108             0.0000000000
     12526       108  POPC      H16Z            7.1182125365       11.3377705812       -1.8816523145  MEMB      108             0.0000000000
     12527       109  CHL1      C3            -15.6072954722       -1.6109463131      -17.3176250000  MEMB      109             0.0000000000
     12528       109  CHL1      H3            -14.5164823573       -1.6711890000      -17.1155950000  MEMB      109             0.0000000000
     12529       109  CHL1      O3            -15.8334016011       -1.5266645269      -18.6823750000  MEMB      109             0.0000000000
     12530       109  CHL1      H3'           -16.7777966443       -1.6847267531      -18.7511950000  MEMB      109             0.0000000000
     12531       109  CHL1      C4            -16.3049605951       -3.0080755022      -16.8393050000  MEMB      109             0.0000000000
     12532       109  CHL1      H4A           -17.3402484115       -3.0574483421      -17.2393750000  MEMB      109             0.0000000000
     12533       109  CHL1      H4B           -15.7501207929       -3.7884695961      -17.4027350000  MEMB      109             0.0000000000
     12534       109  CHL1      C5            -16.1468621071       -3.1718863433      -15.3241650000  MEMB      109             0.0000000000
     12535       109  CHL1      C6            -15.4800991892       -4.2379268725      -14.8260950000  MEMB      109             0.0000000000
     12536       109  CHL1      H6            -15.1901135232       -4.9604393095      -15.6031950000  MEMB      109             0.0000000000
     12537       109  CHL1      C7            -15.0939357412       -4.5241866085      -13.4282750000  MEMB      109             0.0000000000
     12538       109  CHL1      H7A           -15.4250716478       -5.5174850654      -13.0567250000  MEMB      109             0.0000000000
     12539       109  CHL1      H7B           -13.9956171554       -4.4531051178      -13.2767750000  MEMB      109             0.0000000000
     12540       109  CHL1      C8            -15.8674126437       -3.4493187528      -12.5564650000  MEMB      109             0.0000000000
     12541       109  CHL1      H8            -16.9367169948       -3.7371928252      -12.6461550000  MEMB      109             0.0000000000
     12542       109  CHL1      C14           -15.3503403955       -3.4163613758      -11.1772150000  MEMB      109             0.0000000000
     12543       109  CHL1      H14           -14.2556935014       -3.2940031537      -11.3224450000  MEMB      109             0.0000000000
     12544       109  CHL1      C15           -15.3154435893       -4.6480995384      -10.3049450000  MEMB      109             0.0000000000
     12545       109  CHL1      H15A          -16.3133130362       -5.1233827007      -10.4176050000  MEMB      109             0.0000000000
     12546       109  CHL1      H15B          -14.5664249614       -5.3150157171      -10.7829950000  MEMB      109             0.0000000000
     12547       109  CHL1      C16           -14.9726906713       -4.1700584469       -8.9243850000  MEMB      109             0.0000000000
     12548       109  CHL1      H16A          -15.7157664577       -4.6865922911       -8.2799150000  MEMB      109             0.0000000000
     12549       109  CHL1      H16B          -13.9048390480       -4.4099915932       -8.7334850000  MEMB      109             0.0000000000
     12550       109  CHL1      C17           -15.2490105468       -2.6367664018       -8.9157250000  MEMB      109             0.0000000000
     12551       109  CHL1      H17           -14.2773073001       -2.1062343692       -9.0086950000  MEMB      109             0.0000000000
     12552       109  CHL1      C13           -15.8502381123       -2.2783049659      -10.2522450000  MEMB      109             0.0000000000
     12553       109  CHL1      C18           -17.4445358813       -2.4802437003      -10.0611250000  MEMB      109             0.0000000000
     12554       109  CHL1      H18A          -17.6752744824       -3.4298213196       -9.5325650000  MEMB      109             0.0000000000
     12555       109  CHL1      H18B          -17.9759688311       -1.6083352739       -9.6233250000  MEMB      109             0.0000000000
     12556       109  CHL1      H18C          -17.9124665561       -2.6280924410      -11.0578650000  MEMB      109             0.0000000000
     12557       109  CHL1      C12           -15.4491685415       -1.0035117711      -10.8341550000  MEMB      109             0.0000000000
     12558       109  CHL1      H12A          -15.7274381554       -0.1247033824      -10.2140250000  MEMB      109             0.0000000000
     12559       109  CHL1      H12B          -14.3770591321       -0.7936096927      -11.0362350000  MEMB      109             0.0000000000
     12560       109  CHL1      C11           -16.1055777249       -0.7999969236      -12.2274250000  MEMB      109             0.0000000000
     12561       109  CHL1      H11A          -17.1887407321       -0.6844572246      -12.0089350000  MEMB      109             0.0000000000
     12562       109  CHL1      H11B          -15.7502399349        0.1759602146      -12.6218250000  MEMB      109             0.0000000000
     12563       109  CHL1      C9            -15.8972301495       -2.0466311908      -13.1567450000  MEMB      109             0.0000000000
     12564       109  CHL1      H9            -14.8108868987       -1.9011526226      -13.3384750000  MEMB      109             0.0000000000
     12565       109  CHL1      C10           -16.5399060522       -1.9166771637      -14.5127650000  MEMB      109             0.0000000000
     12566       109  CHL1      C19           -18.0912919160       -1.9290137136      -14.3066550000  MEMB      109             0.0000000000
     12567       109  CHL1      H19A          -18.3412529996       -1.1059359853      -13.6035250000  MEMB      109             0.0000000000
     12568       109  CHL1      H19B          -18.5481916957       -1.8235930239      -15.3138450000  MEMB      109             0.0000000000
     12569       109  CHL1      H19C          -18.4107725461       -2.9118101930      -13.8987750000  MEMB      109             0.0000000000
     12570       109  CHL1      C1            -16.0266808470       -0.5456883735      -15.1271450000  MEMB      109             0.0000000000
     12571       109  CHL1      H1A           -16.5782228677        0.2796708084      -14.6282550000  MEMB      109             0.0000000000
     12572       109  CHL1      H1B           -14.9667326409       -0.4491597441      -14.8085250000  MEMB      109             0.0000000000
     12573       109  CHL1      C2            -16.3374997123       -0.4908097300      -16.5922550000  MEMB      109             0.0000000000
     12574       109  CHL1      H2A           -16.0083289231        0.5458089765      -16.8189550000  MEMB      109             0.0000000000
     12575       109  CHL1      H2B           -17.4422850146       -0.4867282938      -16.7094850000  MEMB      109             0.0000000000
     12576       109  CHL1      C20           -15.8218265048       -2.0218475843       -7.5634050000  MEMB      109             0.0000000000
     12577       109  CHL1      H20           -16.8759612094       -2.3305961178       -7.3966550000  MEMB      109             0.0000000000
     12578       109  CHL1      C21           -15.8018086320       -0.4708588780       -7.5529850000  MEMB      109             0.0000000000
     12579       109  CHL1      H21A          -14.8531391756       -0.0238146080       -7.9197250000  MEMB      109             0.0000000000
     12580       109  CHL1      H21B          -15.9978945164       -0.1727886367       -6.5008350000  MEMB      109             0.0000000000
     12581       109  CHL1      H21C          -16.6508459575       -0.1074193563       -8.1705450000  MEMB      109             0.0000000000
     12582       109  CHL1      C22           -14.9766376821       -2.5101959749       -6.3686050000  MEMB      109             0.0000000000
     12583       109  CHL1      H22A          -14.9318111524       -3.6145416515       -6.4814150000  MEMB      109             0.0000000000
     12584       109  CHL1      H22B          -13.9475642121       -2.1681099757       -6.6100550000  MEMB      109             0.0000000000
     12585       109  CHL1      C23           -15.4756071349       -2.3090681136       -4.9582850000  MEMB      109             0.0000000000
     12586       109  CHL1      H23A          -15.9032566018       -1.2894755184       -4.8492850000  MEMB      109             0.0000000000
     12587       109  CHL1      H23B          -16.4525074329       -2.8352673460       -4.9026650000  MEMB      109             0.0000000000
     12588       109  CHL1      C24           -14.4892324332       -2.6696827653       -3.8038650000  MEMB      109             0.0000000000
     12589       109  CHL1      H24A          -14.3097405579       -3.7660892536       -3.8056450000  MEMB      109             0.0000000000
     12590       109  CHL1      H24B          -13.5195885719       -2.2309043372       -4.1225750000  MEMB      109             0.0000000000
     12591       109  CHL1      C25           -14.9413519309       -2.0549958759       -2.5179050000  MEMB      109             0.0000000000
     12592       109  CHL1      H25           -15.1895370413       -1.0041299303       -2.7794450000  MEMB      109             0.0000000000
     12593       109  CHL1      C26           -16.1808725968       -2.8566576024       -2.0383150000  MEMB      109             0.0000000000
     12594       109  CHL1      H26A          -15.7764962392       -3.8822297360       -1.9004850000  MEMB      109             0.0000000000
     12595       109  CHL1      H26B          -16.6174493078       -2.4246944969       -1.1124950000  MEMB      109             0.0000000000
     12596       109  CHL1      H26C          -16.9635610546       -2.9062006237       -2.8252450000  MEMB      109             0.0000000000
     12597       109  CHL1      C27           -13.8327189659       -2.0451339734       -1.3909450000  MEMB      109             0.0000000000
     12598       109  CHL1      H27A          -12.9431421040       -1.5539207724       -1.8400450000  MEMB      109             0.0000000000
     12599       109  CHL1      H27B          -14.1844341521       -1.5347454408       -0.4689250000  MEMB      109             0.0000000000
     12600       109  CHL1      H27C          -13.5359708909       -3.0966991848       -1.1897850000  MEMB      109             0.0000000000
     12601       110  SAPE      N             -12.5310555999      -11.7702576336      -20.3247044548  MEMB      110             0.0000000000
     12602       110  SAPE      HN1           -11.9783803644      -11.3221807788      -19.5661682489  MEMB      110             0.0000000000
     12603       110  SAPE      HN2           -12.3739354920      -12.7971365130      -20.3740250980  MEMB      110             0.0000000000
     12604       110  SAPE      HN3           -12.2382535701      -11.2873982899      -21.1980393229  MEMB      110             0.0000000000
     12605       110  SAPE      C12           -13.9650504435      -11.2858119011      -20.1068619873  MEMB      110             0.0000000000
     12606       110  SAPE      H12A          -14.2863307441      -11.6978894592      -19.1264070267  MEMB      110             0.0000000000
     12607       110  SAPE      H12B          -14.5381469264      -11.7761938846      -20.9225867190  MEMB      110             0.0000000000
     12608       110  SAPE      C11           -13.9866285508       -9.7025132223      -20.0655459152  MEMB      110             0.0000000000
     12609       110  SAPE      H11A          -14.8081715222       -9.2407931381      -19.4771557729  MEMB      110             0.0000000000
     12610       110  SAPE      H11B          -14.0945439232       -9.3170125653      -21.1019167653  MEMB      110             0.0000000000
     12611       110  SAPE      P             -12.1656554793       -7.8488726999      -19.9467314262  MEMB      110             0.0000000000
     12612       110  SAPE      O13           -10.9812149119       -7.6039238416      -19.1318459903  MEMB      110             0.0000000000
     12613       110  SAPE      O14           -12.0799781184       -7.7016469346      -21.3929847136  MEMB      110             0.0000000000
     12614       110  SAPE      O12           -12.7499359641       -9.1820474310      -19.4899742924  MEMB      110             0.0000000000
     12615       110  SAPE      O11           -13.3230545432       -6.8661570024      -19.5413511873  MEMB      110             0.0000000000
     12616       110  SAPE      C1            -14.1346336699       -6.9677602142      -18.3560030825  MEMB      110             0.0000000000
     12617       110  SAPE      HA            -15.1918911148       -6.8853111647      -18.6872579847  MEMB      110             0.0000000000
     12618       110  SAPE      HB            -14.0265930333       -7.9808395956      -17.9129247232  MEMB      110             0.0000000000
     12619       110  SAPE      C2            -13.8452036018       -5.8514863989      -17.2872053015  MEMB      110             0.0000000000
     12620       110  SAPE      HS            -14.2174535917       -4.9540706810      -17.8260893270  MEMB      110             0.0000000000
     12621       110  SAPE      O21           -12.4142133188       -5.8787071035      -17.1642799317  MEMB      110             0.0000000000
     12622       110  SAPE      C21           -11.9453431452       -4.6386204087      -16.9790758988  MEMB      110             0.0000000000
     12623       110  SAPE      O22           -12.6490208896       -3.6226642801      -16.9415210913  MEMB      110             0.0000000000
     12624       110  SAPE      C22           -10.4134605563       -4.5645352500      -17.0236564554  MEMB      110             0.0000000000
     12625       110  SAPE      H2R           -10.0185634694       -5.6011414818      -17.0854994822  MEMB      110             0.0000000000
     12626       110  SAPE      H2S           -10.1439399666       -3.9963113391      -17.9395174920  MEMB      110             0.0000000000
     12627       110  SAPE      C3            -14.4921752620       -6.0320922271      -15.8850774871  MEMB      110             0.0000000000
     12628       110  SAPE      HX            -15.5776465991       -6.2097789728      -16.0416023741  MEMB      110             0.0000000000
     12629       110  SAPE      HY            -14.3038272706       -5.1259989272      -15.2703895401  MEMB      110             0.0000000000
     12630       110  SAPE      O31           -13.7752388388       -7.2075024807      -15.3361013924  MEMB      110             0.0000000000
     12631       110  SAPE      C31           -14.5978951848       -8.0189191348      -14.7397601993  MEMB      110             0.0000000000
     12632       110  SAPE      O32           -15.8047301120       -7.9793870901      -14.6721276338  MEMB      110             0.0000000000
     12633       110  SAPE      C32           -13.8255118387       -9.2306643059      -14.2137750646  MEMB      110             0.0000000000
     12634       110  SAPE      H2X           -14.5942213275      -10.0181994505      -14.3660743753  MEMB      110             0.0000000000
     12635       110  SAPE      H2Y           -13.5033792551       -9.0069286071      -13.1743068998  MEMB      110             0.0000000000
     12636       110  SAPE      C23           -10.0025772203       -3.9138012719      -15.6830808247  MEMB      110             0.0000000000
     12637       110  SAPE      H3R           -10.7608337668       -3.1348865731      -15.4536036585  MEMB      110             0.0000000000
     12638       110  SAPE      H3S            -8.9869956989       -3.5121766444      -15.8870723647  MEMB      110             0.0000000000
     12639       110  SAPE      C24           -10.0031628919       -4.9625804365      -14.5315011837  MEMB      110             0.0000000000
     12640       110  SAPE      H4R            -9.0578952756       -5.5038832931      -14.7500896324  MEMB      110             0.0000000000
     12641       110  SAPE      H4S           -10.8740861059       -5.6160501776      -14.7523879589  MEMB      110             0.0000000000
     12642       110  SAPE      C25            -9.9140136157       -4.4829644752      -13.1487557886  MEMB      110             0.0000000000
     12643       110  SAPE      H5R            -9.0167309617       -3.8803933739      -12.9443259080  MEMB      110             0.0000000000
     12644       110  SAPE      C26           -10.8806808756       -4.4992037444      -12.1453484617  MEMB      110             0.0000000000
     12645       110  SAPE      H6R           -10.7217314719       -4.2638117424      -11.0826513351  MEMB      110             0.0000000000
     12646       110  SAPE      C27           -12.3012233872       -5.0860543161      -12.2533022870  MEMB      110             0.0000000000
     12647       110  SAPE      H7R           -12.6937189948       -5.3855568839      -13.2485738854  MEMB      110             0.0000000000
     12648       110  SAPE      H7S           -12.9138835099       -4.1827282040      -12.0460075884  MEMB      110             0.0000000000
     12649       110  SAPE      C28           -12.5824962857       -6.1298230048      -11.2293237957  MEMB      110             0.0000000000
     12650       110  SAPE      H8R           -12.4768265567       -7.1770918293      -11.5487949189  MEMB      110             0.0000000000
     12651       110  SAPE      C29           -12.9350127625       -5.9314200457       -9.9744700550  MEMB      110             0.0000000000
     12652       110  SAPE      H9R           -13.0185081854       -6.8225880892       -9.3350575888  MEMB      110             0.0000000000
     12653       110  SAPE      C210          -13.0559896268       -4.5885904212       -9.3549094407  MEMB      110             0.0000000000
     12654       110  SAPE      H10R          -14.1314501905       -4.3468370125       -9.2161253552  MEMB      110             0.0000000000
     12655       110  SAPE      H10S          -12.6157165576       -3.8066359152      -10.0099112068  MEMB      110             0.0000000000
     12656       110  SAPE      C211          -12.5148892352       -4.4202187387       -7.9091518752  MEMB      110             0.0000000000
     12657       110  SAPE      H11R          -11.4222589153       -4.5388640448       -7.8635199450  MEMB      110             0.0000000000
     12658       110  SAPE      C212          -13.1311833580       -3.9262077486       -6.7420821056  MEMB      110             0.0000000000
     12659       110  SAPE      H12R          -12.5844864229       -3.6737376274       -5.8215490114  MEMB      110             0.0000000000
     12660       110  SAPE      C213          -14.4830569207       -3.4032290994       -6.5937085716  MEMB      110             0.0000000000
     12661       110  SAPE      H13R          -14.9819834494       -3.2094501460       -7.5672804386  MEMB      110             0.0000000000
     12662       110  SAPE      H13S          -14.5617517018       -2.3505074081       -6.2474347878  MEMB      110             0.0000000000
     12663       110  SAPE      C214          -15.3437367968       -4.3051416862       -5.6866263341  MEMB      110             0.0000000000
     12664       110  SAPE      H14R          -16.2965550838       -4.6106004400       -6.1436072820  MEMB      110             0.0000000000
     12665       110  SAPE      C215          -15.2106653799       -4.7158820936       -4.3728665948  MEMB      110             0.0000000000
     12666       110  SAPE      H15R          -16.0546172420       -5.2873481937       -3.9591368637  MEMB      110             0.0000000000
     12667       110  SAPE      C216          -14.2002413069       -4.4652747356       -3.2895541440  MEMB      110             0.0000000000
     12668       110  SAPE      H16R          -14.7529946682       -4.4300149776       -2.3264646826  MEMB      110             0.0000000000
     12669       110  SAPE      H16S          -13.7831976450       -3.4593695086       -3.5098956395  MEMB      110             0.0000000000
     12670       110  SAPE      C217          -13.0679656505       -5.5111721442       -3.1003974499  MEMB      110             0.0000000000
     12671       110  SAPE      H17R          -12.6009467990       -5.4749815152       -4.1078220140  MEMB      110             0.0000000000
     12672       110  SAPE      H17S          -13.5324785168       -6.5107592626       -2.9612055720  MEMB      110             0.0000000000
     12673       110  SAPE      C218          -11.9999943859       -5.1707542351       -2.0858373323  MEMB      110             0.0000000000
     12674       110  SAPE      H18R          -12.4419084767       -5.3392632807       -1.0805318798  MEMB      110             0.0000000000
     12675       110  SAPE      H18S          -11.6094279773       -4.1503131828       -2.2870294229  MEMB      110             0.0000000000
     12676       110  SAPE      C219          -10.8327711499       -6.1553666293       -2.1309543830  MEMB      110             0.0000000000
     12677       110  SAPE      H19R          -10.2967247100       -6.0318836890       -3.0962136824  MEMB      110             0.0000000000
     12678       110  SAPE      H19S          -11.2567679408       -7.1576161623       -1.9072512051  MEMB      110             0.0000000000
     12679       110  SAPE      C220           -9.7178861539       -5.8761505393       -1.0971834310  MEMB      110             0.0000000000
     12680       110  SAPE      H20R          -10.0638201629       -6.1013518604       -0.0657118498  MEMB      110             0.0000000000
     12681       110  SAPE      H20S           -9.3744250095       -4.8273845897       -1.2254237730  MEMB      110             0.0000000000
     12682       110  SAPE      H20T           -8.7680159465       -6.4274157916       -1.2650363406  MEMB      110             0.0000000000
     12683       110  SAPE      C33           -12.5589508296       -9.5895195698      -15.1420507746  MEMB      110             0.0000000000
     12684       110  SAPE      H3X           -12.9339787065       -9.4829456815      -16.1823954017  MEMB      110             0.0000000000
     12685       110  SAPE      H3Y           -12.3307922805      -10.6507403863      -14.9052492450  MEMB      110             0.0000000000
     12686       110  SAPE      C34           -11.2510511108       -8.8160706651      -14.7637042365  MEMB      110             0.0000000000
     12687       110  SAPE      H4X           -11.4232260595       -7.7599242946      -14.4649877661  MEMB      110             0.0000000000
     12688       110  SAPE      H4Y           -10.5311883817       -8.7643408386      -15.6083598684  MEMB      110             0.0000000000
     12689       110  SAPE      C35           -10.6155006373       -9.4579109292      -13.5186617250  MEMB      110             0.0000000000
     12690       110  SAPE      H5X           -10.1256841091      -10.4220255101      -13.7733846853  MEMB      110             0.0000000000
     12691       110  SAPE      H5Y           -11.2938704466       -9.6635063731      -12.6631698769  MEMB      110             0.0000000000
     12692       110  SAPE      C36            -9.5491779924       -8.5620528757      -12.8013453464  MEMB      110             0.0000000000
     12693       110  SAPE      H6X            -9.9280724343       -7.5499613716      -12.5436035694  MEMB      110             0.0000000000
     12694       110  SAPE      H6Y            -8.8445045664       -8.3074299817      -13.6216647168  MEMB      110             0.0000000000
     12695       110  SAPE      C37            -8.8537537974       -9.1408102284      -11.5567932831  MEMB      110             0.0000000000
     12696       110  SAPE      H7X            -7.8878973944       -8.6236287347      -11.3724955639  MEMB      110             0.0000000000
     12697       110  SAPE      H7Y            -8.5068855085      -10.1815436040      -11.7325120959  MEMB      110             0.0000000000
     12698       110  SAPE      C38            -9.6373913489       -9.0266119499      -10.2221130341  MEMB      110             0.0000000000
     12699       110  SAPE      H8X           -10.5420763309       -9.6621270964      -10.3315972101  MEMB      110             0.0000000000
     12700       110  SAPE      H8Y            -9.8985459132       -7.9607383095      -10.0488134016  MEMB      110             0.0000000000
     12701       110  SAPE      C39            -8.8634047196       -9.5618349570       -8.9889307683  MEMB      110             0.0000000000
     12702       110  SAPE      H9X            -7.9870135756       -8.9208305299       -8.7536145924  MEMB      110             0.0000000000
     12703       110  SAPE      H9Y            -8.4116547026      -10.5503686906       -9.2192443746  MEMB      110             0.0000000000
     12704       110  SAPE      C310           -9.6278127766       -9.8339124771       -7.6490066247  MEMB      110             0.0000000000
     12705       110  SAPE      H10X           -8.9400246494      -10.0522982215       -6.8042730307  MEMB      110             0.0000000000
     12706       110  SAPE      H10Y          -10.3257480699      -10.6947981080       -7.7270024521  MEMB      110             0.0000000000
     12707       110  SAPE      C311          -10.4104234993       -8.5457655736       -7.0876095584  MEMB      110             0.0000000000
     12708       110  SAPE      H11X          -11.1970385512       -8.1154747426       -7.7436639911  MEMB      110             0.0000000000
     12709       110  SAPE      H11Y           -9.6400760432       -7.7719847523       -6.8823081022  MEMB      110             0.0000000000
     12710       110  SAPE      C312          -11.0982847734       -8.7124209423       -5.6862029931  MEMB      110             0.0000000000
     12711       110  SAPE      H12X          -11.4710377802       -7.6711255108       -5.5809407142  MEMB      110             0.0000000000
     12712       110  SAPE      H12Y          -10.2892089521       -8.8233745416       -4.9329386114  MEMB      110             0.0000000000
     12713       110  SAPE      C313          -12.3031771438       -9.6726075332       -5.6351639749  MEMB      110             0.0000000000
     12714       110  SAPE      H13X          -12.0816723199      -10.7607609457       -5.6008279228  MEMB      110             0.0000000000
     12715       110  SAPE      H13Y          -12.9454728918       -9.4784936096       -6.5206564190  MEMB      110             0.0000000000
     12716       110  SAPE      C314          -13.1638301670       -9.3801151600       -4.3572949683  MEMB      110             0.0000000000
     12717       110  SAPE      H14X          -14.1831735198       -9.7403939056       -4.6131452710  MEMB      110             0.0000000000
     12718       110  SAPE      H14Y          -13.1683818259       -8.2709637510       -4.2933923728  MEMB      110             0.0000000000
     12719       110  SAPE      C315          -12.6439342092       -9.9802891560       -3.0157671196  MEMB      110             0.0000000000
     12720       110  SAPE      H15X          -11.6897073246       -9.4823850480       -2.7403326448  MEMB      110             0.0000000000
     12721       110  SAPE      H15Y          -12.3558358921      -11.0340414899       -3.2180690856  MEMB      110             0.0000000000
     12722       110  SAPE      C316          -13.6568713590       -9.8521217394       -1.8444880747  MEMB      110             0.0000000000
     12723       110  SAPE      H16X          -14.6284276224      -10.3486140840       -2.0539985798  MEMB      110             0.0000000000
     12724       110  SAPE      H16Y          -13.8667573670       -8.8082967744       -1.5271577904  MEMB      110             0.0000000000
     12725       110  SAPE      C317          -13.1955039802      -10.6419583111       -0.6155632411  MEMB      110             0.0000000000
     12726       110  SAPE      H17X          -12.3766152723      -10.0117091196       -0.2074843775  MEMB      110             0.0000000000
     12727       110  SAPE      H17Y          -12.9444461600      -11.6752301120       -0.9374954851  MEMB      110             0.0000000000
     12728       110  SAPE      C318          -14.1422660511      -10.7985786273        0.6033274051  MEMB      110             0.0000000000
     12729       110  SAPE      H18X          -14.5606301103       -9.7852677347        0.7835870129  MEMB      110             0.0000000000
     12730       110  SAPE      H18Y          -13.5829534317      -11.2377873513        1.4568994062  MEMB      110             0.0000000000
     12731       110  SAPE      H18Z          -14.9880129477      -11.5017988020        0.4467555370  MEMB      110             0.0000000000
     12732       111  SLPC      N               0.8880064332       17.8037389750      -19.0539876597  MEMB      111             0.0000000000
     12733       111  SLPC      C13             0.3797709741       16.6267430136      -19.8214162394  MEMB      111             0.0000000000
     12734       111  SLPC      H13A            0.2006462435       15.7695748507      -19.1892950196  MEMB      111             0.0000000000
     12735       111  SLPC      H13B           -0.5291770611       16.9465236951      -20.3092215271  MEMB      111             0.0000000000
     12736       111  SLPC      H13C            1.0578906440       16.3627975527      -20.6194678117  MEMB      111             0.0000000000
     12737       111  SLPC      C14             1.2882636197       18.9067504417      -19.9607145140  MEMB      111             0.0000000000
     12738       111  SLPC      H14A            0.4125929155       19.1262221788      -20.5535321749  MEMB      111             0.0000000000
     12739       111  SLPC      H14B            1.8017988203       19.7287885968      -19.4843375782  MEMB      111             0.0000000000
     12740       111  SLPC      H14C            2.0565200220       18.3856071222      -20.5126127087  MEMB      111             0.0000000000
     12741       111  SLPC      C15             2.0999299762       17.2957622557      -18.3196190325  MEMB      111             0.0000000000
     12742       111  SLPC      H15A            2.2797318064       17.9306259712      -17.4646223369  MEMB      111             0.0000000000
     12743       111  SLPC      H15B            2.0186739725       16.3226965572      -17.8581640328  MEMB      111             0.0000000000
     12744       111  SLPC      H15C            2.9100277315       17.2389346551      -19.0315967517  MEMB      111             0.0000000000
     12745       111  SLPC      C12            -0.1626945943       18.3067752447      -18.0736063934  MEMB      111             0.0000000000
     12746       111  SLPC      H12A           -0.9306529387       18.8708608789      -18.5819837155  MEMB      111             0.0000000000
     12747       111  SLPC      H12B            0.2217254949       19.0448952673      -17.3852750454  MEMB      111             0.0000000000
     12748       111  SLPC      C11            -0.9750329767       17.2656269752      -17.1700177247  MEMB      111             0.0000000000
     12749       111  SLPC      H11A           -1.6104672880       16.6369223562      -17.8297711730  MEMB      111             0.0000000000
     12750       111  SLPC      H11B           -1.6607936497       17.8605059190      -16.5295708325  MEMB      111             0.0000000000
     12751       111  SLPC      P               0.1306542129       16.9170124879      -14.8465093110  MEMB      111             0.0000000000
     12752       111  SLPC      O13             0.3577093730       18.4102150695      -14.8994297580  MEMB      111             0.0000000000
     12753       111  SLPC      O14            -1.0296436558       16.5272127632      -13.9979919056  MEMB      111             0.0000000000
     12754       111  SLPC      O12            -0.1479932202       16.4609619914      -16.3740841138  MEMB      111             0.0000000000
     12755       111  SLPC      O11             1.4150392645       16.1304176333      -14.4826233472  MEMB      111             0.0000000000
     12756       111  SLPC      C1              1.5881373579       14.8486714908      -15.0751524619  MEMB      111             0.0000000000
     12757       111  SLPC      HA              0.6169341966       14.3094366962      -15.0927922795  MEMB      111             0.0000000000
     12758       111  SLPC      HB              1.9153088130       14.8380855447      -16.1368340023  MEMB      111             0.0000000000
     12759       111  SLPC      C2              2.5390469772       14.0499793610      -14.1502717005  MEMB      111             0.0000000000
     12760       111  SLPC      HS              2.4943870961       12.9844768175      -14.4617695237  MEMB      111             0.0000000000
     12761       111  SLPC      O21             2.0814351744       14.2210511088      -12.8075820611  MEMB      111             0.0000000000
     12762       111  SLPC      C21             2.6612230135       13.3138358837      -12.0002343490  MEMB      111             0.0000000000
     12763       111  SLPC      O22             3.1372212239       12.2504192728      -12.2676529597  MEMB      111             0.0000000000
     12764       111  SLPC      C22             2.7159874849       13.8399925948      -10.5983820198  MEMB      111             0.0000000000
     12765       111  SLPC      H2R             3.7514432641       13.6011567044      -10.2741755867  MEMB      111             0.0000000000
     12766       111  SLPC      H2S             2.3930934960       14.9021803731      -10.5557464531  MEMB      111             0.0000000000
     12767       111  SLPC      C3              4.0423183745       14.4648816872      -14.2119681530  MEMB      111             0.0000000000
     12768       111  SLPC      HX              4.5431198906       14.2185687656      -15.1726183342  MEMB      111             0.0000000000
     12769       111  SLPC      HY              4.6295111939       13.7940299875      -13.5490327347  MEMB      111             0.0000000000
     12770       111  SLPC      O31             4.2181497148       15.8396519056      -13.8267046570  MEMB      111             0.0000000000
     12771       111  SLPC      C31             5.3374496692       16.2232017916      -13.2243551419  MEMB      111             0.0000000000
     12772       111  SLPC      O32             6.2830533488       15.4927453903      -12.8951547833  MEMB      111             0.0000000000
     12773       111  SLPC      C32             5.2901230537       17.7719644472      -12.8469318898  MEMB      111             0.0000000000
     12774       111  SLPC      H2X             5.8335609324       18.2625878571      -13.6825659301  MEMB      111             0.0000000000
     12775       111  SLPC      H2Y             5.9458689485       17.8498247942      -11.9534802286  MEMB      111             0.0000000000
     12776       111  SLPC      C23             1.7330388101       13.0136229021       -9.6553162423  MEMB      111             0.0000000000
     12777       111  SLPC      H3R             2.1866778707       12.0088100648       -9.5178967820  MEMB      111             0.0000000000
     12778       111  SLPC      H3S             0.8179461651       12.6975091762      -10.2002921921  MEMB      111             0.0000000000
     12779       111  SLPC      C24             1.4607496672       13.6308926424       -8.2617095578  MEMB      111             0.0000000000
     12780       111  SLPC      H4R             0.7336652460       12.9436764414       -7.7785912438  MEMB      111             0.0000000000
     12781       111  SLPC      H4S             0.8821229056       14.5678562664       -8.4087164321  MEMB      111             0.0000000000
     12782       111  SLPC      C25             2.6702811999       13.9049378037       -7.3504885457  MEMB      111             0.0000000000
     12783       111  SLPC      H5R             3.3026194328       12.9982361323       -7.4616692611  MEMB      111             0.0000000000
     12784       111  SLPC      H5S             2.2503528510       14.0006670205       -6.3263707016  MEMB      111             0.0000000000
     12785       111  SLPC      C26             3.3819965031       15.2107728229       -7.6681603449  MEMB      111             0.0000000000
     12786       111  SLPC      H6R             2.5041539247       15.8773923054       -7.8071976224  MEMB      111             0.0000000000
     12787       111  SLPC      H6S             3.9244288517       15.2633020741       -8.6363172939  MEMB      111             0.0000000000
     12788       111  SLPC      C27             4.2200151996       15.7108653900       -6.5601162781  MEMB      111             0.0000000000
     12789       111  SLPC      H7R             3.6127734624       15.6612724315       -5.6310737086  MEMB      111             0.0000000000
     12790       111  SLPC      H7S             4.4406209200       16.7405992804       -6.9140960270  MEMB      111             0.0000000000
     12791       111  SLPC      C28             5.5097671205       15.0040603910       -6.2084255542  MEMB      111             0.0000000000
     12792       111  SLPC      H8R             6.0418320382       14.6567131084       -7.1197857039  MEMB      111             0.0000000000
     12793       111  SLPC      H8S             5.2926452496       14.0651922847       -5.6555182573  MEMB      111             0.0000000000
     12794       111  SLPC      C29             6.3874746916       15.8779216899       -5.3861565143  MEMB      111             0.0000000000
     12795       111  SLPC      H9R             6.4519411814       16.8724736684       -5.8516774666  MEMB      111             0.0000000000
     12796       111  SLPC      C210            7.0943430689       15.5532434586       -4.3213895154  MEMB      111             0.0000000000
     12797       111  SLPC      H10R            7.7468415955       16.3315069085       -3.8988350405  MEMB      111             0.0000000000
     12798       111  SLPC      C211            7.2017193319       14.2609933577       -3.7191301228  MEMB      111             0.0000000000
     12799       111  SLPC      H11R            8.2352654151       13.8727283856       -3.5952203026  MEMB      111             0.0000000000
     12800       111  SLPC      H11S            6.8047174778       13.3787663481       -4.2653775967  MEMB      111             0.0000000000
     12801       111  SLPC      C212            6.6377681482       14.2983001614       -2.3857848668  MEMB      111             0.0000000000
     12802       111  SLPC      H12R            6.8117850006       15.2513436797       -1.8647993640  MEMB      111             0.0000000000
     12803       111  SLPC      C213            6.0052406228       13.3421045632       -1.7118289972  MEMB      111             0.0000000000
     12804       111  SLPC      H13R            5.5563451807       13.6171809209       -0.7460001869  MEMB      111             0.0000000000
     12805       111  SLPC      C214            5.7349140846       11.9548379995       -2.2873633905  MEMB      111             0.0000000000
     12806       111  SLPC      H14R            6.6723358297       11.6480644948       -2.7986870141  MEMB      111             0.0000000000
     12807       111  SLPC      H14S            4.8554456236       11.8252415057       -2.9537422562  MEMB      111             0.0000000000
     12808       111  SLPC      C215            5.4465375062       11.0230637618       -1.0726331995  MEMB      111             0.0000000000
     12809       111  SLPC      H15R            6.2928965697       10.9796033465       -0.3542269219  MEMB      111             0.0000000000
     12810       111  SLPC      H15S            5.3634904960        9.9848519270       -1.4593375619  MEMB      111             0.0000000000
     12811       111  SLPC      C216            3.9973395533       11.0754755109       -0.4486014450  MEMB      111             0.0000000000
     12812       111  SLPC      H16R            3.9958313094       11.9618336756        0.2212400484  MEMB      111             0.0000000000
     12813       111  SLPC      H16S            4.0404502783       10.1049379085        0.0903969258  MEMB      111             0.0000000000
     12814       111  SLPC      C217            2.7572204114       11.1703785303       -1.2601763244  MEMB      111             0.0000000000
     12815       111  SLPC      H17R            2.7756540495       12.1107572364       -1.8515059348  MEMB      111             0.0000000000
     12816       111  SLPC      H17S            1.8505313369       11.1296084138       -0.6194165479  MEMB      111             0.0000000000
     12817       111  SLPC      C218            2.4811394026        9.9570981032       -2.2946406824  MEMB      111             0.0000000000
     12818       111  SLPC      H18R            3.1687207174        9.8411769031       -3.1595772052  MEMB      111             0.0000000000
     12819       111  SLPC      H18S            1.4688245080       10.0772303649       -2.7363498056  MEMB      111             0.0000000000
     12820       111  SLPC      H18T            2.4959634717        8.9540240869       -1.8172060902  MEMB      111             0.0000000000
     12821       111  SLPC      C33             3.8591512542       18.3179669341      -12.6314877791  MEMB      111             0.0000000000
     12822       111  SLPC      H3X             3.4864369991       17.7038596916      -11.7839752426  MEMB      111             0.0000000000
     12823       111  SLPC      H3Y             3.1707119759       18.1109001864      -13.4785388282  MEMB      111             0.0000000000
     12824       111  SLPC      C34             3.8291993519       19.7746430805      -12.3115608132  MEMB      111             0.0000000000
     12825       111  SLPC      H4X             4.5089462405       20.3457738361      -12.9794491324  MEMB      111             0.0000000000
     12826       111  SLPC      H4Y             4.3527912476       19.9122932001      -11.3413931523  MEMB      111             0.0000000000
     12827       111  SLPC      C35             2.3726016484       20.3036842508      -12.3634209320  MEMB      111             0.0000000000
     12828       111  SLPC      H5X             1.9586584809       19.9326685261      -13.3253562187  MEMB      111             0.0000000000
     12829       111  SLPC      H5Y             2.2593368180       21.3716882623      -12.6477786809  MEMB      111             0.0000000000
     12830       111  SLPC      C36             1.5225441729       19.9302623210      -11.0972983992  MEMB      111             0.0000000000
     12831       111  SLPC      H6X             0.8219917806       20.7174080079      -10.7452347194  MEMB      111             0.0000000000
     12832       111  SLPC      H6Y             2.2864162216       19.7552336145      -10.3097803189  MEMB      111             0.0000000000
     12833       111  SLPC      C37             0.6978592010       18.6623896878      -11.2972988645  MEMB      111             0.0000000000
     12834       111  SLPC      H7X             1.2117797153       17.7721721612      -11.7188669169  MEMB      111             0.0000000000
     12835       111  SLPC      H7Y            -0.1158548698       18.9464103825      -11.9983857186  MEMB      111             0.0000000000
     12836       111  SLPC      C38            -0.1492986453       18.3246313444      -10.0719881423  MEMB      111             0.0000000000
     12837       111  SLPC      H8X            -0.6900509617       17.3750816100      -10.2726450309  MEMB      111             0.0000000000
     12838       111  SLPC      H8Y            -0.8859334916       19.0935076796       -9.7549399971  MEMB      111             0.0000000000
     12839       111  SLPC      C39             0.6699572695       18.1236030535       -8.7483871856  MEMB      111             0.0000000000
     12840       111  SLPC      H9X             1.3428053791       19.0044030524       -8.6723102275  MEMB      111             0.0000000000
     12841       111  SLPC      H9Y             1.2009817822       17.1918408044       -9.0384790319  MEMB      111             0.0000000000
     12842       111  SLPC      C310           -0.2320646513       17.9457624440       -7.5357102282  MEMB      111             0.0000000000
     12843       111  SLPC      H10X           -1.0871928015       17.2816233261       -7.7847003918  MEMB      111             0.0000000000
     12844       111  SLPC      H10Y           -0.6333769118       18.9258605260       -7.2000354216  MEMB      111             0.0000000000
     12845       111  SLPC      C311            0.3889133607       17.2498322806       -6.2905938530  MEMB      111             0.0000000000
     12846       111  SLPC      H11X            1.3035682881       17.8039984545       -5.9895498525  MEMB      111             0.0000000000
     12847       111  SLPC      H11Y            0.5401729664       16.2096000640       -6.6502579442  MEMB      111             0.0000000000
     12848       111  SLPC      C312           -0.4095181996       17.2404914580       -4.9737277211  MEMB      111             0.0000000000
     12849       111  SLPC      H12X           -1.2600388720       16.5408065395       -5.1199351013  MEMB      111             0.0000000000
     12850       111  SLPC      H12Y           -0.7701724057       18.2886647413       -4.8990126399  MEMB      111             0.0000000000
     12851       111  SLPC      C313            0.3762826246       16.7944811635       -3.7193290863  MEMB      111             0.0000000000
     12852       111  SLPC      H13X           -0.1276119814       17.1860107037       -2.8098699737  MEMB      111             0.0000000000
     12853       111  SLPC      H13Y            1.2877809966       17.4265685357       -3.6564214718  MEMB      111             0.0000000000
     12854       111  SLPC      C314            0.6502849074       15.3465214955       -3.7724159827  MEMB      111             0.0000000000
     12855       111  SLPC      H14X            1.2056165201       15.1843404198       -4.7209016261  MEMB      111             0.0000000000
     12856       111  SLPC      H14Y           -0.2919591960       14.7580039611       -3.7844266145  MEMB      111             0.0000000000
     12857       111  SLPC      C315            1.5472314726       15.0604895235       -2.5555973011  MEMB      111             0.0000000000
     12858       111  SLPC      H15X            2.1591020246       15.9844286266       -2.4764023574  MEMB      111             0.0000000000
     12859       111  SLPC      H15Y            2.2051753723       14.2128852863       -2.8436907154  MEMB      111             0.0000000000
     12860       111  SLPC      C316            0.8522397069       14.7732697159       -1.2406187370  MEMB      111             0.0000000000
     12861       111  SLPC      H16X            0.0456645637       15.4959924642       -0.9927697578  MEMB      111             0.0000000000
     12862       111  SLPC      H16Y            1.6433190082       14.7754254583       -0.4605481544  MEMB      111             0.0000000000
     12863       111  SLPC      C317            0.1185197249       13.4896187615       -1.1332672152  MEMB      111             0.0000000000
     12864       111  SLPC      H17X            0.7734096647       12.6420159915       -0.8382919173  MEMB      111             0.0000000000
     12865       111  SLPC      H17Y           -0.3595365651       13.2138519416       -2.0974950893  MEMB      111             0.0000000000
     12866       111  SLPC      C318           -0.9492908106       13.4951016137       -0.0252319266  MEMB      111             0.0000000000
     12867       111  SLPC      H18X           -1.1320853522       12.4646811211        0.3477831934  MEMB      111             0.0000000000
     12868       111  SLPC      H18Y           -1.8254019402       14.0572502636       -0.4134836183  MEMB      111             0.0000000000
     12869       111  SLPC      H18Z           -0.6478186034       14.1523853588        0.8182212441  MEMB      111             0.0000000000
     12870       112  CHL1      C3              8.6798711128       14.1870672710      -17.3226150000  MEMB      112             0.0000000000
     12871       112  CHL1      H3              8.6324381106       13.1473046708      -16.9340650000  MEMB      112             0.0000000000
     12872       112  CHL1      O3              8.2869925949       14.1852486528      -18.6773850000  MEMB      112             0.0000000000
     12873       112  CHL1      H3'             7.7222462527       13.4097555543      -18.6416350000  MEMB      112             0.0000000000
     12874       112  CHL1      C4              7.6720697797       14.8966959746      -16.4135450000  MEMB      112             0.0000000000
     12875       112  CHL1      H4A             7.5079274225       15.9321829381      -16.7811750000  MEMB      112             0.0000000000
     12876       112  CHL1      H4B             6.7828023784       14.2711311756      -16.6419950000  MEMB      112             0.0000000000
     12877       112  CHL1      C5              8.0347211547       14.7558390759      -15.0028650000  MEMB      112             0.0000000000
     12878       112  CHL1      C6              7.2990722183       14.0951963104      -14.2027950000  MEMB      112             0.0000000000
     12879       112  CHL1      H6              6.3089320734       13.7875174754      -14.5701450000  MEMB      112             0.0000000000
     12880       112  CHL1      C7              7.5878823618       13.8265495313      -12.7307650000  MEMB      112             0.0000000000
     12881       112  CHL1      H7A             6.6881125529       13.9728821604      -12.0956750000  MEMB      112             0.0000000000
     12882       112  CHL1      H7B             7.9768270776       12.7918427079      -12.6193450000  MEMB      112             0.0000000000
     12883       112  CHL1      C8              8.7214349155       14.8027702170      -12.2091050000  MEMB      112             0.0000000000
     12884       112  CHL1      H8              8.3138105652       15.8233371588      -12.0460250000  MEMB      112             0.0000000000
     12885       112  CHL1      C14             9.3019825203       14.2956007988      -10.9008450000  MEMB      112             0.0000000000
     12886       112  CHL1      H14             9.8187253551       13.3427809931      -11.1446350000  MEMB      112             0.0000000000
     12887       112  CHL1      C15             8.3828105863       13.9560655054       -9.7244850000  MEMB      112             0.0000000000
     12888       112  CHL1      H15A            7.5970790222       14.7395831137       -9.7797150000  MEMB      112             0.0000000000
     12889       112  CHL1      H15B            7.9610038023       12.9351004493       -9.8429850000  MEMB      112             0.0000000000
     12890       112  CHL1      C16             9.1846166346       14.1093054240       -8.5284250000  MEMB      112             0.0000000000
     12891       112  CHL1      H16A            8.7875340838       14.8975613920       -7.8536750000  MEMB      112             0.0000000000
     12892       112  CHL1      H16B            9.2222567205       13.1502685353       -7.9688250000  MEMB      112             0.0000000000
     12893       112  CHL1      C17            10.6737530302       14.4966250514       -8.9710750000  MEMB      112             0.0000000000
     12894       112  CHL1      H17            11.2225960244       13.5963543387       -9.3212150000  MEMB      112             0.0000000000
     12895       112  CHL1      C13            10.3037126891       15.2338609391      -10.3006850000  MEMB      112             0.0000000000
     12896       112  CHL1      C18             9.7671197607       16.5987137633       -9.9146550000  MEMB      112             0.0000000000
     12897       112  CHL1      H18A            9.0942353237       16.4960555632       -9.0365950000  MEMB      112             0.0000000000
     12898       112  CHL1      H18B           10.6322401329       17.2842798413       -9.7885750000  MEMB      112             0.0000000000
     12899       112  CHL1      H18C            9.0693541905       17.0004119561      -10.6802150000  MEMB      112             0.0000000000
     12900       112  CHL1      C12            11.4743369160       15.2255785426      -11.2597650000  MEMB      112             0.0000000000
     12901       112  CHL1      H12A           12.2905303009       15.8909369016      -10.9055950000  MEMB      112             0.0000000000
     12902       112  CHL1      H12B           11.9416752409       14.2177089331      -11.2488650000  MEMB      112             0.0000000000
     12903       112  CHL1      C11            11.0393009760       15.6134812600      -12.6208550000  MEMB      112             0.0000000000
     12904       112  CHL1      H11A           10.8455382894       16.6912279501      -12.4331350000  MEMB      112             0.0000000000
     12905       112  CHL1      H11B           11.9145444987       15.5280177026      -13.2997950000  MEMB      112             0.0000000000
     12906       112  CHL1      C9              9.8335768363       14.8937192110      -13.3179350000  MEMB      112             0.0000000000
     12907       112  CHL1      H9             10.2392401277       13.8599261303      -13.3499350000  MEMB      112             0.0000000000
     12908       112  CHL1      C10             9.4310920341       15.3262677929      -14.6698550000  MEMB      112             0.0000000000
     12909       112  CHL1      C19             9.2931617997       16.9323491896      -14.7048050000  MEMB      112             0.0000000000
     12910       112  CHL1      H19A            8.9683275630       17.3412289039      -13.7241850000  MEMB      112             0.0000000000
     12911       112  CHL1      H19B           10.2744619260       17.4180766244      -14.8930450000  MEMB      112             0.0000000000
     12912       112  CHL1      H19C            8.5946182357       17.3190312835      -15.4773650000  MEMB      112             0.0000000000
     12913       112  CHL1      C1             10.5372897967       14.6574462452      -15.6343550000  MEMB      112             0.0000000000
     12914       112  CHL1      H1A            11.5594258641       15.0556245623      -15.4582450000  MEMB      112             0.0000000000
     12915       112  CHL1      H1B            10.6186354745       13.6056282693      -15.2859650000  MEMB      112             0.0000000000
     12916       112  CHL1      C2             10.0930668101       14.7638480037      -17.1462050000  MEMB      112             0.0000000000
     12917       112  CHL1      H2A            10.8410145882       14.2434863911      -17.7819150000  MEMB      112             0.0000000000
     12918       112  CHL1      H2B             9.9157072476       15.7831514699      -17.5510350000  MEMB      112             0.0000000000
     12919       112  CHL1      C20            11.3773027256       15.2728073271       -7.8164950000  MEMB      112             0.0000000000
     12920       112  CHL1      H20            10.7017315977       16.0114126288       -7.3344350000  MEMB      112             0.0000000000
     12921       112  CHL1      C21            12.6125756137       16.0982238520       -8.3106950000  MEMB      112             0.0000000000
     12922       112  CHL1      H21A           13.3016430164       15.4969183576       -8.9415150000  MEMB      112             0.0000000000
     12923       112  CHL1      H21B           13.2885952836       16.4165050667       -7.4884950000  MEMB      112             0.0000000000
     12924       112  CHL1      H21C           12.3321357315       17.0198013800       -8.8641950000  MEMB      112             0.0000000000
     12925       112  CHL1      C22            11.7963987667       14.3530354591       -6.6432350000  MEMB      112             0.0000000000
     12926       112  CHL1      H22A           10.9599903120       13.6463689477       -6.4551850000  MEMB      112             0.0000000000
     12927       112  CHL1      H22B           12.7231009780       13.7870412793       -6.8781950000  MEMB      112             0.0000000000
     12928       112  CHL1      C23            11.9951957891       15.0797693355       -5.3284450000  MEMB      112             0.0000000000
     12929       112  CHL1      H23A           12.8612885879       15.7714640665       -5.2524850000  MEMB      112             0.0000000000
     12930       112  CHL1      H23B           11.0867663645       15.6811572077       -5.1107050000  MEMB      112             0.0000000000
     12931       112  CHL1      C24            12.2191405388       14.0727064263       -4.1047550000  MEMB      112             0.0000000000
     12932       112  CHL1      H24A           11.3678489697       13.3602424152       -4.1497850000  MEMB      112             0.0000000000
     12933       112  CHL1      H24B           13.0689741318       13.4037264975       -4.3588750000  MEMB      112             0.0000000000
     12934       112  CHL1      C25            12.2755025246       14.6819096819       -2.6672750000  MEMB      112             0.0000000000
     12935       112  CHL1      H25            13.0926581809       15.4264983168       -2.7776050000  MEMB      112             0.0000000000
     12936       112  CHL1      C26            11.0517471686       15.3629506735       -2.2729950000  MEMB      112             0.0000000000
     12937       112  CHL1      H26A           11.0781169845       15.9399736083       -1.3239550000  MEMB      112             0.0000000000
     12938       112  CHL1      H26B           10.6598379865       16.0436597905       -3.0587250000  MEMB      112             0.0000000000
     12939       112  CHL1      H26C           10.3216392926       14.5359379587       -2.1414950000  MEMB      112             0.0000000000
     12940       112  CHL1      C27            12.6210269565       13.6027058760       -1.6124450000  MEMB      112             0.0000000000
     12941       112  CHL1      H27A           11.7978685751       12.8566154117       -1.6225050000  MEMB      112             0.0000000000
     12942       112  CHL1      H27B           13.5311245345       13.0712109231       -1.9639550000  MEMB      112             0.0000000000
     12943       112  CHL1      H27C           13.0744948925       14.0265264374       -0.6910050000  MEMB      112             0.0000000000
     12944       113  SAPE      N              17.9198751358       -6.3773006198      -21.8908220424  MEMB      113             0.0000000000
     12945       113  SAPE      HN1            18.4558309958       -6.7920542056      -22.6797014926  MEMB      113             0.0000000000
     12946       113  SAPE      HN2            16.9486586963       -6.2352594484      -22.2345702483  MEMB      113             0.0000000000
     12947       113  SAPE      HN3            18.3284093302       -5.5044287238      -21.4999325961  MEMB      113             0.0000000000
     12948       113  SAPE      C12            17.9179345350       -7.3662913696      -20.7281121107  MEMB      113             0.0000000000
     12949       113  SAPE      H12A           18.9166285318       -7.3421968833      -20.2419530553  MEMB      113             0.0000000000
     12950       113  SAPE      H12B           17.7739925290       -8.3347159744      -21.2532364646  MEMB      113             0.0000000000
     12951       113  SAPE      C11            16.7832548222       -7.0814274449      -19.7439900301  MEMB      113             0.0000000000
     12952       113  SAPE      H11A           16.8686165711       -6.0748256766      -19.2816185877  MEMB      113             0.0000000000
     12953       113  SAPE      H11B           16.8328199009       -7.8578993465      -18.9509226957  MEMB      113             0.0000000000
     12954       113  SAPE      P              14.2049922999       -7.6879786650      -19.5370100892  MEMB      113             0.0000000000
     12955       113  SAPE      O13            12.9721698690       -7.5799746199      -20.3507115396  MEMB      113             0.0000000000
     12956       113  SAPE      O14            14.5208189111       -9.0343960864      -18.9502639442  MEMB      113             0.0000000000
     12957       113  SAPE      O12            15.5256337555       -7.2122399071      -20.3753250854  MEMB      113             0.0000000000
     12958       113  SAPE      O11            14.2153966251       -6.5849081303      -18.4237651611  MEMB      113             0.0000000000
     12959       113  SAPE      C1             13.2060018010       -6.8081441299      -17.3953123796  MEMB      113             0.0000000000
     12960       113  SAPE      HA             12.2211751398       -7.0814847912      -17.8308838915  MEMB      113             0.0000000000
     12961       113  SAPE      HB             13.4951726577       -7.6738503787      -16.7618663001  MEMB      113             0.0000000000
     12962       113  SAPE      C2             13.0777631188       -5.6285226327      -16.4305233580  MEMB      113             0.0000000000
     12963       113  SAPE      HS             12.6569419791       -4.8232436943      -17.0698641157  MEMB      113             0.0000000000
     12964       113  SAPE      O21            14.3331822407       -5.2773018720      -15.8979434877  MEMB      113             0.0000000000
     12965       113  SAPE      C21            14.5648244592       -4.0614533889      -15.4544912064  MEMB      113             0.0000000000
     12966       113  SAPE      O22            13.7843085599       -3.1527745123      -15.5023365750  MEMB      113             0.0000000000
     12967       113  SAPE      C22            15.9860595452       -3.9639767048      -14.8269021532  MEMB      113             0.0000000000
     12968       113  SAPE      H2R            16.1586044631       -4.8607887731      -14.1942270599  MEMB      113             0.0000000000
     12969       113  SAPE      H2S            16.6868868310       -3.9959706073      -15.6883766632  MEMB      113             0.0000000000
     12970       113  SAPE      C3             12.1140297282       -5.8468724313      -15.2703163755  MEMB      113             0.0000000000
     12971       113  SAPE      HX             11.1634720136       -6.2028294610      -15.7220420038  MEMB      113             0.0000000000
     12972       113  SAPE      HY             12.0468450515       -4.9693136082      -14.5923060299  MEMB      113             0.0000000000
     12973       113  SAPE      O31            12.4875675356       -6.9852240896      -14.5018098529  MEMB      113             0.0000000000
     12974       113  SAPE      C31            12.9577013337       -6.7960049053      -13.2836048227  MEMB      113             0.0000000000
     12975       113  SAPE      O32            12.8783100688       -5.7430107132      -12.6813606890  MEMB      113             0.0000000000
     12976       113  SAPE      C32            13.6580260714       -7.9965646185      -12.7826832306  MEMB      113             0.0000000000
     12977       113  SAPE      H2X            13.1453348399       -8.8489322207      -13.2775953405  MEMB      113             0.0000000000
     12978       113  SAPE      H2Y            13.3722733580       -8.1169016342      -11.7158255578  MEMB      113             0.0000000000
     12979       113  SAPE      C23            16.0515443916       -2.5948696272      -14.0601736001  MEMB      113             0.0000000000
     12980       113  SAPE      H3R            15.3095177799       -1.8033928898      -14.2995101490  MEMB      113             0.0000000000
     12981       113  SAPE      H3S            17.0731823936       -2.1631167105      -14.1247184804  MEMB      113             0.0000000000
     12982       113  SAPE      C24            15.7609864112       -2.7806807423      -12.6198726829  MEMB      113             0.0000000000
     12983       113  SAPE      H4R            16.5451355671       -3.4724693920      -12.2445602672  MEMB      113             0.0000000000
     12984       113  SAPE      H4S            14.7897535117       -3.3192852802      -12.5893315836  MEMB      113             0.0000000000
     12985       113  SAPE      C25            15.6395903908       -1.4646039910      -11.7996456676  MEMB      113             0.0000000000
     12986       113  SAPE      H5R            15.5809916775       -0.5135875115      -12.3493129269  MEMB      113             0.0000000000
     12987       113  SAPE      C26            16.0414005375       -1.4082317514      -10.4399989446  MEMB      113             0.0000000000
     12988       113  SAPE      H6R            15.9235883881       -0.4172259469       -9.9773675745  MEMB      113             0.0000000000
     12989       113  SAPE      C27            16.5936750845       -2.5280457533       -9.5153748414  MEMB      113             0.0000000000
     12990       113  SAPE      H7R            17.0891055856       -2.2213322248       -8.5694376604  MEMB      113             0.0000000000
     12991       113  SAPE      H7S            17.4230668760       -2.9768415569      -10.1027525093  MEMB      113             0.0000000000
     12992       113  SAPE      C28            15.3860537355       -3.4073334083       -9.3092821875  MEMB      113             0.0000000000
     12993       113  SAPE      H8R            14.9850604092       -3.8587158793      -10.2287704851  MEMB      113             0.0000000000
     12994       113  SAPE      C29            14.8088814666       -3.6552405521       -8.0865570356  MEMB      113             0.0000000000
     12995       113  SAPE      H9R            14.0663231877       -4.4659026678       -8.0486869735  MEMB      113             0.0000000000
     12996       113  SAPE      C210           15.3262478941       -3.0361790920       -6.7636300635  MEMB      113             0.0000000000
     12997       113  SAPE      H10R           14.3747696556       -2.8756487065       -6.2129576601  MEMB      113             0.0000000000
     12998       113  SAPE      H10S           15.7818892331       -2.0343564244       -6.9154947226  MEMB      113             0.0000000000
     12999       113  SAPE      C211           16.3124281124       -3.9146308400       -5.9324791187  MEMB      113             0.0000000000
     13000       113  SAPE      H11R           17.1135575301       -4.5030627243       -6.4035840348  MEMB      113             0.0000000000
     13001       113  SAPE      C212           16.4032887949       -3.8983089991       -4.5434505646  MEMB      113             0.0000000000
     13002       113  SAPE      H12R           17.0383806196       -4.6943700180       -4.1275849351  MEMB      113             0.0000000000
     13003       113  SAPE      C213           15.5429400453       -3.0370347236       -3.6269145578  MEMB      113             0.0000000000
     13004       113  SAPE      H13R           14.6552864516       -3.6009848947       -3.2686520953  MEMB      113             0.0000000000
     13005       113  SAPE      H13S           15.1653954330       -2.1780656547       -4.2218545983  MEMB      113             0.0000000000
     13006       113  SAPE      C214           16.2008182383       -2.6606856333       -2.3049485542  MEMB      113             0.0000000000
     13007       113  SAPE      H14R           17.2951850701       -2.5495937158       -2.3094092481  MEMB      113             0.0000000000
     13008       113  SAPE      C215           15.6021351654       -2.3604579373       -1.1704184517  MEMB      113             0.0000000000
     13009       113  SAPE      H15R           16.2186208285       -1.8749112116       -0.3995809627  MEMB      113             0.0000000000
     13010       113  SAPE      C216           14.1347653444       -2.3462687623       -0.9610021258  MEMB      113             0.0000000000
     13011       113  SAPE      H16R           13.6782365124       -1.7201078242       -1.7571330564  MEMB      113             0.0000000000
     13012       113  SAPE      H16S           13.8572219808       -1.7241277012       -0.0833738050  MEMB      113             0.0000000000
     13013       113  SAPE      C217           13.3643603233       -3.6261423661       -0.7567822380  MEMB      113             0.0000000000
     13014       113  SAPE      H17R           13.7213567758       -4.3806866061       -1.4899510753  MEMB      113             0.0000000000
     13015       113  SAPE      H17S           12.2790239746       -3.3898724856       -0.7800726181  MEMB      113             0.0000000000
     13016       113  SAPE      C218           13.6482565506       -4.1782174227        0.6714588874  MEMB      113             0.0000000000
     13017       113  SAPE      H18R           13.4731978884       -3.3427990907        1.3826207085  MEMB      113             0.0000000000
     13018       113  SAPE      H18S           14.7557088126       -4.1850645101        0.7599092108  MEMB      113             0.0000000000
     13019       113  SAPE      C219           13.0145267275       -5.5028856377        0.9989819425  MEMB      113             0.0000000000
     13020       113  SAPE      H19R           13.7208981326       -6.0771357197        1.6358469002  MEMB      113             0.0000000000
     13021       113  SAPE      H19S           12.8487842382       -6.1145705103        0.0864621632  MEMB      113             0.0000000000
     13022       113  SAPE      C220           11.6901672108       -5.3484594693        1.7008749011  MEMB      113             0.0000000000
     13023       113  SAPE      H20R           11.8138317206       -4.5486033321        2.4619641708  MEMB      113             0.0000000000
     13024       113  SAPE      H20S           11.2631716614       -6.2788591145        2.1325601394  MEMB      113             0.0000000000
     13025       113  SAPE      H20T           10.9456602597       -5.0147588260        0.9467697033  MEMB      113             0.0000000000
     13026       113  SAPE      C33            15.2007160683       -7.7009166840      -12.9427062259  MEMB      113             0.0000000000
     13027       113  SAPE      H3X            15.5635121117       -6.8629844661      -12.3098006539  MEMB      113             0.0000000000
     13028       113  SAPE      H3Y            15.4003275527       -7.3770849623      -13.9865497590  MEMB      113             0.0000000000
     13029       113  SAPE      C34            16.1316937050       -8.9212414806      -12.6993735081  MEMB      113             0.0000000000
     13030       113  SAPE      H4X            17.1545626366       -8.6086685349      -12.9999700860  MEMB      113             0.0000000000
     13031       113  SAPE      H4Y            15.8981021719       -9.7149882676      -13.4408057454  MEMB      113             0.0000000000
     13032       113  SAPE      C35            16.0804758466       -9.3579549221      -11.2225827039  MEMB      113             0.0000000000
     13033       113  SAPE      H5X            16.7709090519      -10.2283408160      -11.2154163620  MEMB      113             0.0000000000
     13034       113  SAPE      H5Y            15.1050347484       -9.7632354803      -10.8782241433  MEMB      113             0.0000000000
     13035       113  SAPE      C36            16.4996687735       -8.3584321043      -10.0962945098  MEMB      113             0.0000000000
     13036       113  SAPE      H6X            16.0123514547       -7.3620680650      -10.1603379631  MEMB      113             0.0000000000
     13037       113  SAPE      H6Y            17.5620694690       -8.0803099070      -10.2644430487  MEMB      113             0.0000000000
     13038       113  SAPE      C37            16.5329994608       -8.9321181773       -8.6696558043  MEMB      113             0.0000000000
     13039       113  SAPE      H7X            17.3048546112       -8.4357856201       -8.0433860033  MEMB      113             0.0000000000
     13040       113  SAPE      H7Y            16.9993516821       -9.9291261008       -8.8206920900  MEMB      113             0.0000000000
     13041       113  SAPE      C38            15.2059735000       -9.1054573743       -7.8750531622  MEMB      113             0.0000000000
     13042       113  SAPE      H8X            15.2691897385       -9.7758916568       -6.9914006637  MEMB      113             0.0000000000
     13043       113  SAPE      H8Y            14.4898597881       -9.5486371937       -8.5996874649  MEMB      113             0.0000000000
     13044       113  SAPE      C39            14.6054538694       -7.7493038830       -7.3027965897  MEMB      113             0.0000000000
     13045       113  SAPE      H9X            14.4350070726       -7.0382254670       -8.1392388096  MEMB      113             0.0000000000
     13046       113  SAPE      H9Y            15.3336866764       -7.3025226214       -6.5925954705  MEMB      113             0.0000000000
     13047       113  SAPE      C310           13.2323838129       -7.8959438737       -6.5699389846  MEMB      113             0.0000000000
     13048       113  SAPE      H10X           12.5722183184       -8.6119835749       -7.1045317184  MEMB      113             0.0000000000
     13049       113  SAPE      H10Y           12.7468968620       -6.9012423982       -6.6658146547  MEMB      113             0.0000000000
     13050       113  SAPE      C311           13.3188561308       -8.3322836789       -5.1453972650  MEMB      113             0.0000000000
     13051       113  SAPE      H11X           13.9327088029       -9.2582732075       -5.1524043146  MEMB      113             0.0000000000
     13052       113  SAPE      H11Y           12.3288797635       -8.6910497866       -4.7910594970  MEMB      113             0.0000000000
     13053       113  SAPE      C312           13.9491890767       -7.2664154426       -4.1374563044  MEMB      113             0.0000000000
     13054       113  SAPE      H12X           13.2550688654       -6.4936863880       -3.7432381967  MEMB      113             0.0000000000
     13055       113  SAPE      H12Y           14.8252649558       -6.7967686204       -4.6336860413  MEMB      113             0.0000000000
     13056       113  SAPE      C313           14.5015043774       -8.1183471517       -2.9790673784  MEMB      113             0.0000000000
     13057       113  SAPE      H13X           14.8688082930       -9.0646188731       -3.4307082904  MEMB      113             0.0000000000
     13058       113  SAPE      H13Y           13.7399871700       -8.3670523981       -2.2092890108  MEMB      113             0.0000000000
     13059       113  SAPE      C314           15.6933887094       -7.5286833271       -2.3549524669  MEMB      113             0.0000000000
     13060       113  SAPE      H14X           15.5746029653       -6.4440121753       -2.1459083734  MEMB      113             0.0000000000
     13061       113  SAPE      H14Y           16.4870624541       -7.5770848696       -3.1308767676  MEMB      113             0.0000000000
     13062       113  SAPE      C315           16.1195279915       -8.2452493945       -0.9856055389  MEMB      113             0.0000000000
     13063       113  SAPE      H15X           16.5210703053       -9.2181541255       -1.3413314756  MEMB      113             0.0000000000
     13064       113  SAPE      H15Y           15.2503827975       -8.5351212968       -0.3572091312  MEMB      113             0.0000000000
     13065       113  SAPE      C316           17.1324224620       -7.4026797781       -0.1767845124  MEMB      113             0.0000000000
     13066       113  SAPE      H16X           16.7513830619       -6.4151193569        0.1606399969  MEMB      113             0.0000000000
     13067       113  SAPE      H16Y           18.0347344406       -7.2524949682       -0.8073388260  MEMB      113             0.0000000000
     13068       113  SAPE      C317           17.5007711739       -8.0902993268        1.1082832447  MEMB      113             0.0000000000
     13069       113  SAPE      H17X           16.6859598021       -7.8747051145        1.8321085966  MEMB      113             0.0000000000
     13070       113  SAPE      H17Y           18.2946355036       -7.4635304978        1.5679138759  MEMB      113             0.0000000000
     13071       113  SAPE      C318           17.8556643704       -9.5801586388        0.9805320257  MEMB      113             0.0000000000
     13072       113  SAPE      H18X           18.1564224450       -9.9569290923        1.9814854983  MEMB      113             0.0000000000
     13073       113  SAPE      H18Y           18.6817524704       -9.7203991354        0.2509892048  MEMB      113             0.0000000000
     13074       113  SAPE      H18Z           17.0073446013      -10.2032983970        0.6250444318  MEMB      113             0.0000000000
     13075       114  OSM       N               9.6810270439      -12.6071889258      -22.1630067485  MEMB      114             0.0000000000
     13076       114  OSM       C15            11.1454195926      -12.5201629021      -22.4451268074  MEMB      114             0.0000000000
     13077       114  OSM       H15A           11.7318405490      -13.0853116782      -21.7358192001  MEMB      114             0.0000000000
     13078       114  OSM       H15B           11.4984844828      -11.5411741385      -22.1564641995  MEMB      114             0.0000000000
     13079       114  OSM       H15C           11.2730067297      -12.8736443513      -23.4576348064  MEMB      114             0.0000000000
     13080       114  OSM       C14             9.3497489207      -12.2009153534      -20.7714845293  MEMB      114             0.0000000000
     13081       114  OSM       H14A            9.8082223498      -11.2371855436      -20.6058733522  MEMB      114             0.0000000000
     13082       114  OSM       H14B            9.7605473104      -12.9822461556      -20.1492574226  MEMB      114             0.0000000000
     13083       114  OSM       H14C            8.2820629626      -12.0394943574      -20.7517346961  MEMB      114             0.0000000000
     13084       114  OSM       C13             8.9704581349      -11.7420539852      -23.1443311658  MEMB      114             0.0000000000
     13085       114  OSM       H13A            7.8941764914      -11.8047203262      -23.0803737654  MEMB      114             0.0000000000
     13086       114  OSM       H13B            9.2309542271      -12.0228859801      -24.1541209902  MEMB      114             0.0000000000
     13087       114  OSM       H13C            9.3175891858      -10.7440976401      -22.9207620510  MEMB      114             0.0000000000
     13088       114  OSM       C12             9.1437293573      -14.0317746566      -22.3640887509  MEMB      114             0.0000000000
     13089       114  OSM       H12A            9.1260095188      -14.1977607581      -23.4311101383  MEMB      114             0.0000000000
     13090       114  OSM       H12B            8.1490593932      -14.2154385057      -21.9855398122  MEMB      114             0.0000000000
     13091       114  OSM       C11            10.1029852619      -15.1308757001      -21.7955436889  MEMB      114             0.0000000000
     13092       114  OSM       H11A           10.9362425517      -15.3106086804      -22.5080740201  MEMB      114             0.0000000000
     13093       114  OSM       H11B            9.5291978272      -16.0762151990      -21.6886683837  MEMB      114             0.0000000000
     13094       114  OSM       P              11.3630335244      -15.9854441645      -19.6579221146  MEMB      114             0.0000000000
     13095       114  OSM       O13            12.2083453102      -16.7851371367      -20.5567103192  MEMB      114             0.0000000000
     13096       114  OSM       O14            12.0752454773      -15.3511138260      -18.5342645808  MEMB      114             0.0000000000
     13097       114  OSM       O11            10.2132902565      -16.9593467691      -19.0608683041  MEMB      114             0.0000000000
     13098       114  OSM       O12            10.5887102934      -14.8323431159      -20.5066529936  MEMB      114             0.0000000000
     13099       114  OSM       C1S             8.9273975211      -16.4962143295      -18.7579673213  MEMB      114             0.0000000000
     13100       114  OSM       H1S             8.1493604985      -17.0372712173      -19.3378266312  MEMB      114             0.0000000000
     13101       114  OSM       H1T             8.7106936414      -15.4600351399      -19.0951515498  MEMB      114             0.0000000000
     13102       114  OSM       NF              9.3606573469      -15.9049538754      -16.4658528595  MEMB      114             0.0000000000
     13103       114  OSM       HNF             9.8551458816      -16.2919913385      -15.6914550435  MEMB      114             0.0000000000
     13104       114  OSM       C2S             8.5122882047      -16.7309869361      -17.3040117670  MEMB      114             0.0000000000
     13105       114  OSM       H2S             7.4610489912      -16.3937207242      -17.1796389770  MEMB      114             0.0000000000
     13106       114  OSM       C3S             8.6331763767      -18.1612201623      -16.9979932903  MEMB      114             0.0000000000
     13107       114  OSM       H3S             9.6154719936      -18.6254666726      -17.2301397695  MEMB      114             0.0000000000
     13108       114  OSM       O3              7.6707981516      -19.0148411973      -17.6638517800  MEMB      114             0.0000000000
     13109       114  OSM       HO3             7.2712711436      -18.5224432969      -18.3846308102  MEMB      114             0.0000000000
     13110       114  OSM       C4S             8.5298681893      -18.2240922649      -15.4719498957  MEMB      114             0.0000000000
     13111       114  OSM       H4S             9.5238460733      -18.2967545084      -15.0064092394  MEMB      114             0.0000000000
     13112       114  OSM       C5S             7.4593833724      -18.4399202655      -14.6617426277  MEMB      114             0.0000000000
     13113       114  OSM       H5S             6.5329576331      -18.8386021199      -15.1008182279  MEMB      114             0.0000000000
     13114       114  OSM       C6S             7.3693832990      -18.5824177122      -13.1592648404  MEMB      114             0.0000000000
     13115       114  OSM       H6S             7.1995947672      -19.6706148824      -13.0132528668  MEMB      114             0.0000000000
     13116       114  OSM       H6T             6.5643201498      -17.9594394543      -12.7141889597  MEMB      114             0.0000000000
     13117       114  OSM       C7S             8.5992899087      -18.2841815865      -12.4173890004  MEMB      114             0.0000000000
     13118       114  OSM       H7S             9.4773162448      -18.7652336241      -12.8990321322  MEMB      114             0.0000000000
     13119       114  OSM       H7T             8.6057895287      -18.8494192033      -11.4609449932  MEMB      114             0.0000000000
     13120       114  OSM       C8S             8.8115614900      -16.7696131123      -12.2211159768  MEMB      114             0.0000000000
     13121       114  OSM       H8S             8.4819712536      -16.2259219206      -13.1322087899  MEMB      114             0.0000000000
     13122       114  OSM       H8T             9.8922974461      -16.5618262672      -12.0689473666  MEMB      114             0.0000000000
     13123       114  OSM       C9S             8.0211910717      -16.2971551775      -11.0963541393  MEMB      114             0.0000000000
     13124       114  OSM       H9S             6.9539528499      -16.5795101849      -11.2212521539  MEMB      114             0.0000000000
     13125       114  OSM       H9T             8.0230928042      -15.1903883074      -10.9994821285  MEMB      114             0.0000000000
     13126       114  OSM       C10S            8.5545320470      -16.6484783414       -9.7124604699  MEMB      114             0.0000000000
     13127       114  OSM       H10S            9.6031466339      -16.2816481286       -9.7252656109  MEMB      114             0.0000000000
     13128       114  OSM       H10T            8.5521927815      -17.7550599407       -9.6135017218  MEMB      114             0.0000000000
     13129       114  OSM       C11S            7.7796702558      -15.9874266786       -8.5710823865  MEMB      114             0.0000000000
     13130       114  OSM       H11S            6.7406318071      -16.3765096852       -8.5133345043  MEMB      114             0.0000000000
     13131       114  OSM       H11T            7.6028771863      -14.9274838667       -8.8531929443  MEMB      114             0.0000000000
     13132       114  OSM       C12S            8.6356892809      -16.2733228387       -7.3916957159  MEMB      114             0.0000000000
     13133       114  OSM       H12S            9.6464441925      -15.8336191585       -7.5308204095  MEMB      114             0.0000000000
     13134       114  OSM       H12T            8.8191713988      -17.3623182904       -7.2702691592  MEMB      114             0.0000000000
     13135       114  OSM       C13S            8.0947212126      -15.6511818564       -6.0878227593  MEMB      114             0.0000000000
     13136       114  OSM       H13S            7.1374006021      -16.1342545896       -5.7971360647  MEMB      114             0.0000000000
     13137       114  OSM       H13T            8.0122304246      -14.5674579259       -6.3181679566  MEMB      114             0.0000000000
     13138       114  OSM       C14S            9.1463493709      -15.7939515346       -4.9480473866  MEMB      114             0.0000000000
     13139       114  OSM       H14S            8.9446492932      -15.1107945659       -4.0954431291  MEMB      114             0.0000000000
     13140       114  OSM       H14T           10.2084468383      -15.5459633799       -5.1596414271  MEMB      114             0.0000000000
     13141       114  OSM       C15S            9.3116676905      -17.2188460875       -4.3814565002  MEMB      114             0.0000000000
     13142       114  OSM       H15S            9.9560024938      -17.7449042376       -5.1179452094  MEMB      114             0.0000000000
     13143       114  OSM       H15T            8.3528821950      -17.7784584867       -4.3380367839  MEMB      114             0.0000000000
     13144       114  OSM       C16S            9.9997753472      -17.3853129435       -3.0486164840  MEMB      114             0.0000000000
     13145       114  OSM       H16S            9.8954960216      -18.4399207842       -2.7150773587  MEMB      114             0.0000000000
     13146       114  OSM       H16T            9.6303389424      -16.6198276944       -2.3331668038  MEMB      114             0.0000000000
     13147       114  OSM       C17S           11.5416707609      -17.1743584046       -3.2081243612  MEMB      114             0.0000000000
     13148       114  OSM       H17S           11.7374874953      -16.0903611128       -3.3527835265  MEMB      114             0.0000000000
     13149       114  OSM       H17T           11.8848323892      -17.7466282930       -4.0964190488  MEMB      114             0.0000000000
     13150       114  OSM       C18S           12.4261037965      -17.7105656162       -2.1668917649  MEMB      114             0.0000000000
     13151       114  OSM       H18S           12.3850688311      -18.8206996304       -2.1823686022  MEMB      114             0.0000000000
     13152       114  OSM       H18T           11.9844379617      -17.4273636765       -1.1875799235  MEMB      114             0.0000000000
     13153       114  OSM       H18U           13.4653266873      -17.3200178341       -2.2094259380  MEMB      114             0.0000000000
     13154       114  OSM       C1F             9.4240751731      -14.5354235880      -16.5144690690  MEMB      114             0.0000000000
     13155       114  OSM       OF              8.6449642182      -13.8100026787      -17.1594309806  MEMB      114             0.0000000000
     13156       114  OSM       C2F            10.5819727350      -13.9243629002      -15.7412868784  MEMB      114             0.0000000000
     13157       114  OSM       H2F            11.3176917429      -13.6757370197      -16.5357827548  MEMB      114             0.0000000000
     13158       114  OSM       H2G            11.0451396657      -14.7004511859      -15.0951567083  MEMB      114             0.0000000000
     13159       114  OSM       C3F            10.2398394368      -12.8505430182      -14.7388716522  MEMB      114             0.0000000000
     13160       114  OSM       H3F             9.6926315357      -12.0849993816      -15.3294879798  MEMB      114             0.0000000000
     13161       114  OSM       H3G            11.1314851350      -12.3797816199      -14.2723179927  MEMB      114             0.0000000000
     13162       114  OSM       C4F             9.3072383137      -13.3557883233      -13.5704136388  MEMB      114             0.0000000000
     13163       114  OSM       H4F             9.9198249067      -14.0829129713      -12.9956538304  MEMB      114             0.0000000000
     13164       114  OSM       H4G             8.4204592223      -13.8260850046      -14.0466116825  MEMB      114             0.0000000000
     13165       114  OSM       C5F             8.8707425359      -12.1861351100      -12.7444570491  MEMB      114             0.0000000000
     13166       114  OSM       H5F             8.1986452816      -12.5791077332      -11.9518795424  MEMB      114             0.0000000000
     13167       114  OSM       H5G             8.2198342079      -11.6215660877      -13.4458136558  MEMB      114             0.0000000000
     13168       114  OSM       C6F             9.9802267702      -11.3815718295      -11.9896377206  MEMB      114             0.0000000000
     13169       114  OSM       H6F             9.6312451120      -10.5849639833      -11.2982996504  MEMB      114             0.0000000000
     13170       114  OSM       H6G            10.5993607041      -10.8984279141      -12.7754915952  MEMB      114             0.0000000000
     13171       114  OSM       C7F            10.8467647976      -12.3091532785      -11.1621992173  MEMB      114             0.0000000000
     13172       114  OSM       H7F            11.2705936011      -13.0603219486      -11.8625107453  MEMB      114             0.0000000000
     13173       114  OSM       H7G            10.2724263065      -12.9532786635      -10.4625148381  MEMB      114             0.0000000000
     13174       114  OSM       C8F            12.0383797746      -11.6698850310      -10.3880045172  MEMB      114             0.0000000000
     13175       114  OSM       H8F            11.6932721565      -10.7425307934       -9.8827963192  MEMB      114             0.0000000000
     13176       114  OSM       H8G            12.7540160487      -11.2449582369      -11.1239545777  MEMB      114             0.0000000000
     13177       114  OSM       C9F            12.7488944590      -12.6582911379       -9.4432846515  MEMB      114             0.0000000000
     13178       114  OSM       H9F            13.5852444268      -13.1225960428       -9.9863683676  MEMB      114             0.0000000000
     13179       114  OSM       C10F           12.4876443924      -12.9729425172       -8.1744358224  MEMB      114             0.0000000000
     13180       114  OSM       H10F           12.9928595980      -13.8239820821       -7.6943430389  MEMB      114             0.0000000000
     13181       114  OSM       C11F           11.3897844981      -12.3774220164       -7.3652287581  MEMB      114             0.0000000000
     13182       114  OSM       H11F           10.8051933037      -13.0783805535       -6.7318008904  MEMB      114             0.0000000000
     13183       114  OSM       H11G           10.6226693642      -11.8882650043       -8.0028658510  MEMB      114             0.0000000000
     13184       114  OSM       C12F           11.7548822238      -11.1192641507       -6.4417068409  MEMB      114             0.0000000000
     13185       114  OSM       H12F           12.1986561766      -10.2718997178       -7.0068249330  MEMB      114             0.0000000000
     13186       114  OSM       H12G           12.5804082819      -11.3724099342       -5.7426030530  MEMB      114             0.0000000000
     13187       114  OSM       C13F           10.4286024358      -10.5738647475       -5.7752714737  MEMB      114             0.0000000000
     13188       114  OSM       H13F            9.7095832510      -10.4221243105       -6.6085223961  MEMB      114             0.0000000000
     13189       114  OSM       H13G           10.6547397914       -9.5846739462       -5.3228510118  MEMB      114             0.0000000000
     13190       114  OSM       C14F            9.7214278454      -11.4094202918       -4.6493102525  MEMB      114             0.0000000000
     13191       114  OSM       H14F            9.3820488014      -12.4286032333       -4.9328748281  MEMB      114             0.0000000000
     13192       114  OSM       H14G            8.7325946834      -10.9295132837       -4.4873870782  MEMB      114             0.0000000000
     13193       114  OSM       C15F           10.5672396188      -11.4083000056       -3.4231319193  MEMB      114             0.0000000000
     13194       114  OSM       H15F           11.0378821547      -10.4089430429       -3.3043814716  MEMB      114             0.0000000000
     13195       114  OSM       H15G           11.5004122532      -12.0051005330       -3.5087990413  MEMB      114             0.0000000000
     13196       114  OSM       C16F            9.9082359597      -11.8444349732       -2.0517011041  MEMB      114             0.0000000000
     13197       114  OSM       H16F            8.9772814337      -12.4234635117       -2.2316210958  MEMB      114             0.0000000000
     13198       114  OSM       H16G            9.4931798451      -10.9302614148       -1.5759534691  MEMB      114             0.0000000000
     13199       114  OSM       C17F           10.8717136621      -12.6830371253       -1.1731561990  MEMB      114             0.0000000000
     13200       114  OSM       H17F           10.4219092605      -12.8152553216       -0.1659243521  MEMB      114             0.0000000000
     13201       114  OSM       H17G           11.7831548746      -12.0878482256       -0.9510157912  MEMB      114             0.0000000000
     13202       114  OSM       C18F           11.3582879454      -13.9937196792       -1.7138367631  MEMB      114             0.0000000000
     13203       114  OSM       H18F           11.7860149498      -14.6380644591       -0.9162223225  MEMB      114             0.0000000000
     13204       114  OSM       H18G           12.1674232247      -14.0408083640       -2.4737083525  MEMB      114             0.0000000000
     13205       114  OSM       H18H           10.5104178603      -14.6557238514       -1.9916642089  MEMB      114             0.0000000000
     13206       115  CHL1      C3            -12.7860654307       12.5563206012      -17.3730850000  MEMB      115             0.0000000000
     13207       115  CHL1      H3            -13.7169760643       11.9962897287      -17.6056350000  MEMB      115             0.0000000000
     13208       115  CHL1      O3            -12.0633497693       12.9039811988      -18.6269150000  MEMB      115             0.0000000000
     13209       115  CHL1      H3'           -11.9389708933       12.0964098907      -19.1308550000  MEMB      115             0.0000000000
     13210       115  CHL1      C4            -12.9944399961       13.9001665679      -16.7162950000  MEMB      115             0.0000000000
     13211       115  CHL1      H4A           -12.0365666626       14.4581322993      -16.7903350000  MEMB      115             0.0000000000
     13212       115  CHL1      H4B           -13.5848170645       14.6389992930      -17.2993150000  MEMB      115             0.0000000000
     13213       115  CHL1      C5            -13.3870853343       13.8334522558      -15.2700350000  MEMB      115             0.0000000000
     13214       115  CHL1      C6            -14.6144561956       14.2380754860      -14.8025950000  MEMB      115             0.0000000000
     13215       115  CHL1      H6            -15.3543329484       14.6913578673      -15.4786950000  MEMB      115             0.0000000000
     13216       115  CHL1      C7            -15.1171394135       14.1076203744      -13.3509350000  MEMB      115             0.0000000000
     13217       115  CHL1      H7A           -15.5747481334       15.0107431605      -12.8934650000  MEMB      115             0.0000000000
     13218       115  CHL1      H7B           -15.9667207122       13.3960342665      -13.2723650000  MEMB      115             0.0000000000
     13219       115  CHL1      C8            -13.8744965886       13.7893777677      -12.4065550000  MEMB      115             0.0000000000
     13220       115  CHL1      H8            -13.1936898218       14.6653155175      -12.3469750000  MEMB      115             0.0000000000
     13221       115  CHL1      C14           -14.4589711567       13.4214554693      -11.0753850000  MEMB      115             0.0000000000
     13222       115  CHL1      H14           -15.0661301605       12.5545380913      -11.4131950000  MEMB      115             0.0000000000
     13223       115  CHL1      C15           -15.4176451009       14.3743160032      -10.3822150000  MEMB      115             0.0000000000
     13224       115  CHL1      H15A          -14.9333500445       15.3677953124      -10.2691750000  MEMB      115             0.0000000000
     13225       115  CHL1      H15B          -16.3898937047       14.4909588588      -10.9070550000  MEMB      115             0.0000000000
     13226       115  CHL1      C16           -15.4831747032       13.8573827912       -8.8969750000  MEMB      115             0.0000000000
     13227       115  CHL1      H16A          -15.1015250396       14.6903401207       -8.2686150000  MEMB      115             0.0000000000
     13228       115  CHL1      H16B          -16.4967585547       13.5166978171       -8.5954650000  MEMB      115             0.0000000000
     13229       115  CHL1      C17           -14.4758271350       12.6404269443       -8.8140350000  MEMB      115             0.0000000000
     13230       115  CHL1      H17           -14.9576211843       11.6626097635       -9.0286650000  MEMB      115             0.0000000000
     13231       115  CHL1      C13           -13.5471730605       12.8910742431      -10.1048750000  MEMB      115             0.0000000000
     13232       115  CHL1      C18           -12.4908401184       13.8892262173       -9.7547150000  MEMB      115             0.0000000000
     13233       115  CHL1      H18A          -11.7153235043       13.6026214037       -9.0125850000  MEMB      115             0.0000000000
     13234       115  CHL1      H18B          -11.8755345669       14.2477207607      -10.6074750000  MEMB      115             0.0000000000
     13235       115  CHL1      H18C          -13.0415849879       14.7827144745       -9.3904550000  MEMB      115             0.0000000000
     13236       115  CHL1      C12           -12.8724194017       11.6451542695      -10.7005050000  MEMB      115             0.0000000000
     13237       115  CHL1      H12A          -12.1699479019       11.2170934990       -9.9537550000  MEMB      115             0.0000000000
     13238       115  CHL1      H12B          -13.5377020054       10.7798117054      -10.9076350000  MEMB      115             0.0000000000
     13239       115  CHL1      C11           -12.0813482878       12.0128490235      -11.9476050000  MEMB      115             0.0000000000
     13240       115  CHL1      H11A          -11.3104937060       12.7610672779      -11.6642650000  MEMB      115             0.0000000000
     13241       115  CHL1      H11B          -11.6185504153       11.0491055677      -12.2498150000  MEMB      115             0.0000000000
     13242       115  CHL1      C9            -13.0553999921       12.6434058954      -13.0095650000  MEMB      115             0.0000000000
     13243       115  CHL1      H9            -13.7991974863       11.8671339334      -13.2897050000  MEMB      115             0.0000000000
     13244       115  CHL1      C10           -12.4131811306       13.0276258008      -14.4163050000  MEMB      115             0.0000000000
     13245       115  CHL1      C19           -11.1031985197       13.7650920149      -14.1840450000  MEMB      115             0.0000000000
     13246       115  CHL1      H19A          -10.3962023066       13.2321952536      -13.5128450000  MEMB      115             0.0000000000
     13247       115  CHL1      H19B          -10.4804288484       13.8467569584      -15.1004550000  MEMB      115             0.0000000000
     13248       115  CHL1      H19C          -11.2048865178       14.8380765395      -13.9144050000  MEMB      115             0.0000000000
     13249       115  CHL1      C1            -12.1701415328       11.6478842086      -15.0978750000  MEMB      115             0.0000000000
     13250       115  CHL1      H1A           -11.4188933062       10.9932987941      -14.6065050000  MEMB      115             0.0000000000
     13251       115  CHL1      H1B           -13.1499415060       11.1266980432      -15.1496550000  MEMB      115             0.0000000000
     13252       115  CHL1      C2            -11.8039523536       11.7046464277      -16.5830850000  MEMB      115             0.0000000000
     13253       115  CHL1      H2A           -11.7730226995       10.6729854709      -16.9942050000  MEMB      115             0.0000000000
     13254       115  CHL1      H2B           -10.8179079755       12.2150702371      -16.5440350000  MEMB      115             0.0000000000
     13255       115  CHL1      C20           -13.8163049591       12.5130218872       -7.3523350000  MEMB      115             0.0000000000
     13256       115  CHL1      H20           -13.3587402669       13.5148301238       -7.2062350000  MEMB      115             0.0000000000
     13257       115  CHL1      C21           -12.7667391434       11.4187396658       -7.2710750000  MEMB      115             0.0000000000
     13258       115  CHL1      H21A          -12.5127483039       11.1109127601       -6.2342250000  MEMB      115             0.0000000000
     13259       115  CHL1      H21B          -11.8301852405       11.7028752851       -7.7968750000  MEMB      115             0.0000000000
     13260       115  CHL1      H21C          -13.2023321363       10.5699402205       -7.8403950000  MEMB      115             0.0000000000
     13261       115  CHL1      C22           -15.0040087626       12.3560894773       -6.3973350000  MEMB      115             0.0000000000
     13262       115  CHL1      H22A          -15.7022920943       13.2200351048       -6.4152150000  MEMB      115             0.0000000000
     13263       115  CHL1      H22B          -15.5796373973       11.4898904450       -6.7880450000  MEMB      115             0.0000000000
     13264       115  CHL1      C23           -14.6560553085       12.0290496421       -4.9253950000  MEMB      115             0.0000000000
     13265       115  CHL1      H23A          -15.5057168785       11.5179405253       -4.4242250000  MEMB      115             0.0000000000
     13266       115  CHL1      H23B          -13.8047835995       11.3173780307       -4.8689650000  MEMB      115             0.0000000000
     13267       115  CHL1      C24           -14.4219424671       13.3254177926       -4.0946950000  MEMB      115             0.0000000000
     13268       115  CHL1      H24A          -13.8041850745       13.9543734025       -4.7707950000  MEMB      115             0.0000000000
     13269       115  CHL1      H24B          -15.3447971468       13.9079494786       -3.8865650000  MEMB      115             0.0000000000
     13270       115  CHL1      C25           -13.6756103246       13.1421706861       -2.7052050000  MEMB      115             0.0000000000
     13271       115  CHL1      H25           -12.6420480430       12.8526237597       -2.9919650000  MEMB      115             0.0000000000
     13272       115  CHL1      C26           -13.4842997769       14.4192773893       -1.9666850000  MEMB      115             0.0000000000
     13273       115  CHL1      H26A          -14.4808028991       14.8042708698       -1.6615950000  MEMB      115             0.0000000000
     13274       115  CHL1      H26B          -12.9018224749       14.2908417876       -1.0293750000  MEMB      115             0.0000000000
     13275       115  CHL1      H26C          -12.9724469690       15.1667321445       -2.6098250000  MEMB      115             0.0000000000
     13276       115  CHL1      C27           -14.1963005199       12.0731220051       -1.7716650000  MEMB      115             0.0000000000
     13277       115  CHL1      H27A          -14.0060156694       11.1412588593       -2.3459150000  MEMB      115             0.0000000000
     13278       115  CHL1      H27B          -13.7182598619       11.9878220984       -0.7724050000  MEMB      115             0.0000000000
     13279       115  CHL1      H27C          -15.2650013302       12.2368418824       -1.5159450000  MEMB      115             0.0000000000
     13280       116  OSM       N             -15.2079079731        6.0261300622      -20.8618058568  MEMB      116             0.0000000000
     13281       116  OSM       C15           -14.7020115306        5.7330682803      -22.2631157857  MEMB      116             0.0000000000
     13282       116  OSM       H15A          -14.1568241968        4.8027001638      -22.3229970901  MEMB      116             0.0000000000
     13283       116  OSM       H15B          -14.0181896432        6.5209045267      -22.5425822535  MEMB      116             0.0000000000
     13284       116  OSM       H15C          -15.5087379385        5.5103116133      -22.9457371639  MEMB      116             0.0000000000
     13285       116  OSM       C14           -16.1889815678        5.0305431823      -20.4678105282  MEMB      116             0.0000000000
     13286       116  OSM       H14A          -15.8586169577        4.0023517862      -20.4768432263  MEMB      116             0.0000000000
     13287       116  OSM       H14B          -16.8673796226        4.9864724946      -21.3069969428  MEMB      116             0.0000000000
     13288       116  OSM       H14C          -16.6039601962        5.2882149571      -19.5045877410  MEMB      116             0.0000000000
     13289       116  OSM       C13           -13.9887197445        6.0201944086      -20.0490136791  MEMB      116             0.0000000000
     13290       116  OSM       H13A          -14.2283247592        6.2561905979      -19.0227119573  MEMB      116             0.0000000000
     13291       116  OSM       H13B          -13.3332696658        6.8052173795      -20.3961789281  MEMB      116             0.0000000000
     13292       116  OSM       H13C          -13.4584501588        5.0942184958      -20.2156956820  MEMB      116             0.0000000000
     13293       116  OSM       C12           -15.8408664982        7.4287683245      -20.8111415892  MEMB      116             0.0000000000
     13294       116  OSM       H12A          -15.1390173579        8.2232415017      -21.0175880337  MEMB      116             0.0000000000
     13295       116  OSM       H12B          -16.1214686253        7.5532314422      -19.7756845193  MEMB      116             0.0000000000
     13296       116  OSM       C11           -17.1353441618        7.6410364010      -21.6767471602  MEMB      116             0.0000000000
     13297       116  OSM       H11A          -16.8766034253        7.7614612640      -22.7504659996  MEMB      116             0.0000000000
     13298       116  OSM       H11B          -17.4694001965        8.6207206545      -21.2730809940  MEMB      116             0.0000000000
     13299       116  OSM       P             -19.6854825134        6.9481934031      -20.9900816050  MEMB      116             0.0000000000
     13300       116  OSM       O13           -20.4532209727        7.4062650781      -22.2069506674  MEMB      116             0.0000000000
     13301       116  OSM       O14           -20.1971214641        5.7216031316      -20.3414467618  MEMB      116             0.0000000000
     13302       116  OSM       O11           -19.6698919267        8.0945580736      -19.9240199122  MEMB      116             0.0000000000
     13303       116  OSM       O12           -18.1646926027        6.6346831773      -21.4078664543  MEMB      116             0.0000000000
     13304       116  OSM       C1S           -18.7867960347        8.0411301537      -18.8149253699  MEMB      116             0.0000000000
     13305       116  OSM       H1S           -18.2388512325        8.9959379975      -18.9646561169  MEMB      116             0.0000000000
     13306       116  OSM       H1T           -18.0986524414        7.1716777703      -18.8844377415  MEMB      116             0.0000000000
     13307       116  OSM       NF            -19.9187433785        6.5536582776      -17.1551449838  MEMB      116             0.0000000000
     13308       116  OSM       HNF           -20.8700903630        6.2584951619      -17.1978828297  MEMB      116             0.0000000000
     13309       116  OSM       C2S           -19.5211474616        7.9262280506      -17.4866954610  MEMB      116             0.0000000000
     13310       116  OSM       H2S           -18.7795565399        8.2205511799      -16.7135606298  MEMB      116             0.0000000000
     13311       116  OSM       C3S           -20.7979220322        8.7882518303      -17.5481358714  MEMB      116             0.0000000000
     13312       116  OSM       H3S           -21.4248158138        8.4086871299      -18.3831541297  MEMB      116             0.0000000000
     13313       116  OSM       O3            -20.4841959710       10.1994009750      -17.8757856545  MEMB      116             0.0000000000
     13314       116  OSM       HO3           -19.5360075511       10.3341823485      -17.9419108538  MEMB      116             0.0000000000
     13315       116  OSM       C4S           -21.6644647135        8.6934423008      -16.2685054031  MEMB      116             0.0000000000
     13316       116  OSM       H4S           -22.5798840715        8.0839185881      -16.2906099859  MEMB      116             0.0000000000
     13317       116  OSM       C5S           -21.4087813260        9.3823346693      -15.2045579613  MEMB      116             0.0000000000
     13318       116  OSM       H5S           -20.4747197302        9.9632787284      -15.2103054597  MEMB      116             0.0000000000
     13319       116  OSM       C6S           -22.2681512925        9.3317630124      -13.9588592152  MEMB      116             0.0000000000
     13320       116  OSM       H6S           -23.2539074966        8.8350900170      -14.0850394843  MEMB      116             0.0000000000
     13321       116  OSM       H6T           -22.3974078039       10.3996367577      -13.6809026886  MEMB      116             0.0000000000
     13322       116  OSM       C7S           -21.6134118269        8.6717080449      -12.7264727477  MEMB      116             0.0000000000
     13323       116  OSM       H7S           -21.4265005814        7.5775869947      -12.7742652880  MEMB      116             0.0000000000
     13324       116  OSM       H7T           -22.3577833192        8.7713991700      -11.9077576106  MEMB      116             0.0000000000
     13325       116  OSM       C8S           -20.2998892154        9.4726490840      -12.3525361638  MEMB      116             0.0000000000
     13326       116  OSM       H8S           -20.5848945288       10.5424253725      -12.4456576939  MEMB      116             0.0000000000
     13327       116  OSM       H8T           -19.5548863998        9.3338488978      -13.1649560741  MEMB      116             0.0000000000
     13328       116  OSM       C9S           -19.7232781043        9.1846957441      -10.9555070815  MEMB      116             0.0000000000
     13329       116  OSM       H9S           -19.6447247673        8.0777579176      -10.9022231300  MEMB      116             0.0000000000
     13330       116  OSM       H9T           -20.4327432739        9.3694795529      -10.1207407380  MEMB      116             0.0000000000
     13331       116  OSM       C10S          -18.3048431902        9.7619128316      -10.5986548926  MEMB      116             0.0000000000
     13332       116  OSM       H10S          -18.2160085947       10.8248969870      -10.9092891515  MEMB      116             0.0000000000
     13333       116  OSM       H10T          -17.5328669413        9.1486157373      -11.1107493466  MEMB      116             0.0000000000
     13334       116  OSM       C11S          -18.0421319367        9.6640392012       -9.0942740844  MEMB      116             0.0000000000
     13335       116  OSM       H11S          -18.9309048720       10.0036964508       -8.5206576108  MEMB      116             0.0000000000
     13336       116  OSM       H11T          -17.1612773564       10.3046827031       -8.8752026643  MEMB      116             0.0000000000
     13337       116  OSM       C12S          -17.7408373632        8.2528966189       -8.6412270142  MEMB      116             0.0000000000
     13338       116  OSM       H12S          -16.8058057527        8.0518503326       -9.2065733898  MEMB      116             0.0000000000
     13339       116  OSM       H12T          -18.5707491349        7.6352460614       -9.0462890456  MEMB      116             0.0000000000
     13340       116  OSM       C13S          -17.6184029689        7.9755533547       -7.1833300036  MEMB      116             0.0000000000
     13341       116  OSM       H13S          -16.6062185532        8.3009944729       -6.8610073965  MEMB      116             0.0000000000
     13342       116  OSM       H13T          -17.6598816342        6.8879654356       -6.9602754481  MEMB      116             0.0000000000
     13343       116  OSM       C14S          -18.6268550146        8.6384819694       -6.2923757604  MEMB      116             0.0000000000
     13344       116  OSM       H14S          -19.6469072497        8.3418124177       -6.6176474732  MEMB      116             0.0000000000
     13345       116  OSM       H14T          -18.5488766952        9.7463928742       -6.3201920386  MEMB      116             0.0000000000
     13346       116  OSM       C15S          -18.5858795029        8.2398197249       -4.7487569547  MEMB      116             0.0000000000
     13347       116  OSM       H15S          -18.6899109729        7.1343868608       -4.7098112519  MEMB      116             0.0000000000
     13348       116  OSM       H15T          -19.4698620648        8.6756688158       -4.2359883756  MEMB      116             0.0000000000
     13349       116  OSM       C16S          -17.2032644448        8.5069699498       -4.0269186960  MEMB      116             0.0000000000
     13350       116  OSM       H16S          -16.7318147487        9.4372532124       -4.4098408670  MEMB      116             0.0000000000
     13351       116  OSM       H16T          -16.3949367211        7.7901639682       -4.2859866317  MEMB      116             0.0000000000
     13352       116  OSM       C17S          -17.2724353038        8.7062865976       -2.4681521124  MEMB      116             0.0000000000
     13353       116  OSM       H17S          -17.6318853284        7.7999297760       -1.9355796968  MEMB      116             0.0000000000
     13354       116  OSM       H17T          -18.0027350772        9.4819217044       -2.1529166631  MEMB      116             0.0000000000
     13355       116  OSM       C18S          -15.8810250142        8.8979966248       -1.8137970678  MEMB      116             0.0000000000
     13356       116  OSM       H18S          -15.8921809634        8.5152098411       -0.7708829482  MEMB      116             0.0000000000
     13357       116  OSM       H18T          -15.7029518167        9.9889693539       -1.7024893301  MEMB      116             0.0000000000
     13358       116  OSM       H18U          -15.0196752912        8.4176713357       -2.3253480458  MEMB      116             0.0000000000
     13359       116  OSM       C1F           -18.9876471707        5.5733539860      -16.9913930575  MEMB      116             0.0000000000
     13360       116  OSM       OF            -17.8233398348        5.8348521521      -16.8547649988  MEMB      116             0.0000000000
     13361       116  OSM       C2F           -19.5050288848        4.1283528321      -16.8422319729  MEMB      116             0.0000000000
     13362       116  OSM       H2F           -19.4054748263        3.6458183327      -17.8380081041  MEMB      116             0.0000000000
     13363       116  OSM       H2G           -20.5911621688        4.2467031790      -16.6406671636  MEMB      116             0.0000000000
     13364       116  OSM       C3F           -18.7165229482        3.3179560002      -15.8722150866  MEMB      116             0.0000000000
     13365       116  OSM       H3F           -17.6509413472        3.2736291266      -16.1834900817  MEMB      116             0.0000000000
     13366       116  OSM       H3G           -19.1104699202        2.2793998305      -15.8951884971  MEMB      116             0.0000000000
     13367       116  OSM       C4F           -18.7113869244        3.8606468225      -14.4325317271  MEMB      116             0.0000000000
     13368       116  OSM       H4F           -18.5870785078        4.9633675145      -14.3789069087  MEMB      116             0.0000000000
     13369       116  OSM       H4G           -17.8483269164        3.3603008214      -13.9435507568  MEMB      116             0.0000000000
     13370       116  OSM       C5F           -19.9022921157        3.4417048483      -13.6290201849  MEMB      116             0.0000000000
     13371       116  OSM       H5F           -20.1501506364        2.3697565028      -13.4747029581  MEMB      116             0.0000000000
     13372       116  OSM       H5G           -20.8041495665        3.8151187375      -14.1596200319  MEMB      116             0.0000000000
     13373       116  OSM       C6F           -19.9195861360        4.1564452909      -12.2933483563  MEMB      116             0.0000000000
     13374       116  OSM       H6F           -19.8353915927        5.2607513730      -12.3813281779  MEMB      116             0.0000000000
     13375       116  OSM       H6G           -18.9999928585        3.9837467230      -11.6943124296  MEMB      116             0.0000000000
     13376       116  OSM       C7F           -21.2647998866        3.8873139637      -11.5779904138  MEMB      116             0.0000000000
     13377       116  OSM       H7F           -21.2868269166        2.8140025918      -11.2919171244  MEMB      116             0.0000000000
     13378       116  OSM       H7G           -22.1091078779        4.1471064163      -12.2517665890  MEMB      116             0.0000000000
     13379       116  OSM       C8F           -21.3986280112        4.6810709756      -10.3647997174  MEMB      116             0.0000000000
     13380       116  OSM       H8F           -21.5227089524        5.7739421461      -10.5215077272  MEMB      116             0.0000000000
     13381       116  OSM       H8G           -20.4685506825        4.5645207858       -9.7683990107  MEMB      116             0.0000000000
     13382       116  OSM       C9F           -22.6509871125        4.2705779918       -9.5821707462  MEMB      116             0.0000000000
     13383       116  OSM       H9F           -23.5747272740        4.7054685643       -9.9915301631  MEMB      116             0.0000000000
     13384       116  OSM       C10F          -22.8089965682        3.5477933596       -8.5198415882  MEMB      116             0.0000000000
     13385       116  OSM       H10F          -23.8211313437        3.3895875631       -8.1191497895  MEMB      116             0.0000000000
     13386       116  OSM       C11F          -21.7592424387        2.8996471398       -7.6886254140  MEMB      116             0.0000000000
     13387       116  OSM       H11F          -20.7744335997        2.9595607535       -8.1993918885  MEMB      116             0.0000000000
     13388       116  OSM       H11G          -22.0936240224        1.8734329317       -7.4251977350  MEMB      116             0.0000000000
     13389       116  OSM       C12F          -21.5246312355        3.6133598478       -6.3210362810  MEMB      116             0.0000000000
     13390       116  OSM       H12F          -22.4805966002        3.4671343838       -5.7741640099  MEMB      116             0.0000000000
     13391       116  OSM       H12G          -21.2360989603        4.6804919529       -6.4319376790  MEMB      116             0.0000000000
     13392       116  OSM       C13F          -20.5276370393        2.9652780180       -5.3299586293  MEMB      116             0.0000000000
     13393       116  OSM       H13F          -20.6762994609        1.8666153011       -5.2581185414  MEMB      116             0.0000000000
     13394       116  OSM       H13G          -20.6610564269        3.2725106028       -4.2706536317  MEMB      116             0.0000000000
     13395       116  OSM       C14F          -18.9941350644        3.3023419552       -5.6390800735  MEMB      116             0.0000000000
     13396       116  OSM       H14F          -18.9449408059        4.1534715470       -6.3514554667  MEMB      116             0.0000000000
     13397       116  OSM       H14G          -18.4229824855        2.4329926038       -6.0293841682  MEMB      116             0.0000000000
     13398       116  OSM       C15F          -18.1166557419        3.5133132528       -4.3857782485  MEMB      116             0.0000000000
     13399       116  OSM       H15F          -18.0487884432        2.5616064044       -3.8165957691  MEMB      116             0.0000000000
     13400       116  OSM       H15G          -18.6730919949        4.2387451222       -3.7545502454  MEMB      116             0.0000000000
     13401       116  OSM       C16F          -16.7996047596        4.2064249738       -4.6879179982  MEMB      116             0.0000000000
     13402       116  OSM       H16F          -16.8649505093        5.1682241646       -5.2401788751  MEMB      116             0.0000000000
     13403       116  OSM       H16G          -16.2524174563        3.5062676915       -5.3547657176  MEMB      116             0.0000000000
     13404       116  OSM       C17F          -16.0001150799        4.4102605881       -3.3914043599  MEMB      116             0.0000000000
     13405       116  OSM       H17F          -16.6155265475        4.9040649444       -2.6092617959  MEMB      116             0.0000000000
     13406       116  OSM       H17G          -15.2265896331        5.1830528719       -3.5883073077  MEMB      116             0.0000000000
     13407       116  OSM       C18F          -15.3829516575        3.0723349649       -2.8690552847  MEMB      116             0.0000000000
     13408       116  OSM       H18F          -16.2050335088        2.3387535339       -2.7263647744  MEMB      116             0.0000000000
     13409       116  OSM       H18G          -15.0810002788        3.0721051482       -1.7998736001  MEMB      116             0.0000000000
     13410       116  OSM       H18H          -14.6787042012        2.7331939007       -3.6585744518  MEMB      116             0.0000000000
     13411       117  CHL1      C3             -2.8988754581      -18.6563896355      -17.2948800000  MEMB      117             0.0000000000
     13412       117  CHL1      H3             -3.9564248294      -18.3341700503      -17.1849400000  MEMB      117             0.0000000000
     13413       117  CHL1      O3             -2.5682657419      -18.6831097645      -18.7051200000  MEMB      117             0.0000000000
     13414       117  CHL1      H3'            -3.1968947800      -19.3599159721      -18.9665900000  MEMB      117             0.0000000000
     13415       117  CHL1      C4             -2.0841680730      -17.5374510611      -16.6214300000  MEMB      117             0.0000000000
     13416       117  CHL1      H4A            -1.0392708032      -17.3520808026      -16.9502800000  MEMB      117             0.0000000000
     13417       117  CHL1      H4B            -2.5520147474      -16.5737077749      -16.9157900000  MEMB      117             0.0000000000
     13418       117  CHL1      C5             -1.9786492302      -17.5871496840      -15.1231300000  MEMB      117             0.0000000000
     13419       117  CHL1      C6             -2.3172550029      -16.5312543374      -14.3596200000  MEMB      117             0.0000000000
     13420       117  CHL1      H6             -2.5972415763      -15.5870937414      -14.8496900000  MEMB      117             0.0000000000
     13421       117  CHL1      C7             -2.1930232343      -16.5404987774      -12.8237700000  MEMB      117             0.0000000000
     13422       117  CHL1      H7A            -1.6252249954      -15.7028188956      -12.3652600000  MEMB      117             0.0000000000
     13423       117  CHL1      H7B            -3.2338593009      -16.4270071838      -12.4521500000  MEMB      117             0.0000000000
     13424       117  CHL1      C8             -1.4635621515      -17.7274794418      -12.2838600000  MEMB      117             0.0000000000
     13425       117  CHL1      H8             -0.3574240270      -17.6460322680      -12.3482200000  MEMB      117             0.0000000000
     13426       117  CHL1      C14            -1.8403051344      -17.6755457249      -10.7713500000  MEMB      117             0.0000000000
     13427       117  CHL1      H14            -2.9421597247      -17.8130272911      -10.7348400000  MEMB      117             0.0000000000
     13428       117  CHL1      C15            -1.4822502153      -16.4009825261       -9.9403300000  MEMB      117             0.0000000000
     13429       117  CHL1      H15A           -0.5052781179      -15.9219812761      -10.1648400000  MEMB      117             0.0000000000
     13430       117  CHL1      H15B           -2.2696113929      -15.6190194044       -9.9943100000  MEMB      117             0.0000000000
     13431       117  CHL1      C16            -1.4841367826      -16.9670233877       -8.5485800000  MEMB      117             0.0000000000
     13432       117  CHL1      H16A           -0.4511311189      -16.8251174445       -8.1650800000  MEMB      117             0.0000000000
     13433       117  CHL1      H16B           -2.2065456177      -16.5055954632       -7.8418100000  MEMB      117             0.0000000000
     13434       117  CHL1      C17            -1.7700172471      -18.4793889679       -8.5918900000  MEMB      117             0.0000000000
     13435       117  CHL1      H17            -2.8741783661      -18.5907020412       -8.5394100000  MEMB      117             0.0000000000
     13436       117  CHL1      C13            -1.3597803745      -18.9445854504      -10.0269900000  MEMB      117             0.0000000000
     13437       117  CHL1      C18             0.1794045845      -19.0060451747      -10.0042200000  MEMB      117             0.0000000000
     13438       117  CHL1      H18A            0.4881292718      -19.9312141275       -9.4721900000  MEMB      117             0.0000000000
     13439       117  CHL1      H18B            0.5740162605      -19.1220850841      -11.0362800000  MEMB      117             0.0000000000
     13440       117  CHL1      H18C            0.6531001177      -18.0544881922       -9.6809700000  MEMB      117             0.0000000000
     13441       117  CHL1      C12            -2.0538876247      -20.1307086170      -10.6546800000  MEMB      117             0.0000000000
     13442       117  CHL1      H12A           -1.6738708312      -21.0526268328      -10.1648100000  MEMB      117             0.0000000000
     13443       117  CHL1      H12B           -3.1549687285      -20.1013449021      -10.5095500000  MEMB      117             0.0000000000
     13444       117  CHL1      C11            -1.6815124771      -20.3104313946      -12.1430200000  MEMB      117             0.0000000000
     13445       117  CHL1      H11A           -0.6125909084      -20.6130449672      -12.1551000000  MEMB      117             0.0000000000
     13446       117  CHL1      H11B           -2.1796242958      -21.1941437848      -12.5960700000  MEMB      117             0.0000000000
     13447       117  CHL1      C9             -1.9989777944      -19.0210898091      -12.9339800000  MEMB      117             0.0000000000
     13448       117  CHL1      H9             -3.0936538798      -18.9253970604      -12.7700600000  MEMB      117             0.0000000000
     13449       117  CHL1      C10            -1.7646768962      -19.0130453016      -14.5108300000  MEMB      117             0.0000000000
     13450       117  CHL1      C19            -0.2774919320      -19.4533751916      -14.6456500000  MEMB      117             0.0000000000
     13451       117  CHL1      H19A            0.1365100490      -19.3749455305      -15.6736400000  MEMB      117             0.0000000000
     13452       117  CHL1      H19B            0.4046076893      -18.7897617449      -14.0723500000  MEMB      117             0.0000000000
     13453       117  CHL1      H19C           -0.1991280730      -20.5362049985      -14.4097200000  MEMB      117             0.0000000000
     13454       117  CHL1      C1             -2.6859068217      -20.0396623919      -15.2163500000  MEMB      117             0.0000000000
     13455       117  CHL1      H1A            -2.3898994087      -21.0300019626      -14.8090100000  MEMB      117             0.0000000000
     13456       117  CHL1      H1B            -3.7122497892      -19.7856672604      -14.8751500000  MEMB      117             0.0000000000
     13457       117  CHL1      C2             -2.5900306948      -20.0649051969      -16.6967800000  MEMB      117             0.0000000000
     13458       117  CHL1      H2A            -3.3318944512      -20.7602132197      -17.1445600000  MEMB      117             0.0000000000
     13459       117  CHL1      H2B            -1.5710012972      -20.3449256276      -17.0395300000  MEMB      117             0.0000000000
     13460       117  CHL1      C20            -1.0918414526      -19.2554464043       -7.3424000000  MEMB      117             0.0000000000
     13461       117  CHL1      H20             0.0164071494      -19.2937892935       -7.4105600000  MEMB      117             0.0000000000
     13462       117  CHL1      C21            -1.6659000250      -20.6756794635       -7.2829900000  MEMB      117             0.0000000000
     13463       117  CHL1      H21A           -1.3332423176      -21.2677083000       -6.4036900000  MEMB      117             0.0000000000
     13464       117  CHL1      H21B           -1.3725005232      -21.3011385467       -8.1530800000  MEMB      117             0.0000000000
     13465       117  CHL1      H21C           -2.7753356183      -20.7344662688       -7.2877700000  MEMB      117             0.0000000000
     13466       117  CHL1      C22            -1.3693046168      -18.5734992910       -5.9206000000  MEMB      117             0.0000000000
     13467       117  CHL1      H22A           -1.0426781526      -17.5118952043       -5.8955000000  MEMB      117             0.0000000000
     13468       117  CHL1      H22B           -2.4715708249      -18.5029021003       -5.8008000000  MEMB      117             0.0000000000
     13469       117  CHL1      C23            -0.8432843457      -19.2998543535       -4.6062500000  MEMB      117             0.0000000000
     13470       117  CHL1      H23A           -1.1012686625      -18.6971422760       -3.7093100000  MEMB      117             0.0000000000
     13471       117  CHL1      H23B           -1.2792563713      -20.3020164491       -4.4064200000  MEMB      117             0.0000000000
     13472       117  CHL1      C24             0.6898687302      -19.4282311338       -4.5405100000  MEMB      117             0.0000000000
     13473       117  CHL1      H24A            1.0554814310      -20.2888519548       -5.1404900000  MEMB      117             0.0000000000
     13474       117  CHL1      H24B            1.0306065256      -18.4789559233       -5.0064400000  MEMB      117             0.0000000000
     13475       117  CHL1      C25             1.2689114035      -19.5683896509       -3.0924900000  MEMB      117             0.0000000000
     13476       117  CHL1      H25             0.7259410855      -20.4719659062       -2.7416900000  MEMB      117             0.0000000000
     13477       117  CHL1      C26             2.7582878587      -19.7917496017       -3.0632500000  MEMB      117             0.0000000000
     13478       117  CHL1      H26A            3.3621511197      -18.8898416343       -3.3003900000  MEMB      117             0.0000000000
     13479       117  CHL1      H26B            3.1153590241      -20.1466043242       -2.0728400000  MEMB      117             0.0000000000
     13480       117  CHL1      H26C            2.9899468510      -20.6263306950       -3.7590400000  MEMB      117             0.0000000000
     13481       117  CHL1      C27             1.2666557759      -18.3004688945       -2.2020500000  MEMB      117             0.0000000000
     13482       117  CHL1      H27A            1.7182550316      -18.4494171228       -1.1979600000  MEMB      117             0.0000000000
     13483       117  CHL1      H27B            1.7873756852      -17.4558639145       -2.7018500000  MEMB      117             0.0000000000
     13484       117  CHL1      H27C            0.2807871587      -17.8072453270       -2.0638000000  MEMB      117             0.0000000000
     13485       118  CHL1      C3             18.2972147405        7.1204476525      -17.4406100000  MEMB      118             0.0000000000
     13486       118  CHL1      H3             18.8390274306        8.0289036289      -17.7804100000  MEMB      118             0.0000000000
     13487       118  CHL1      O3             18.1557646595        6.2712025075      -18.5593900000  MEMB      118             0.0000000000
     13488       118  CHL1      H3'            17.8880842514        7.0015017027      -19.1220700000  MEMB      118             0.0000000000
     13489       118  CHL1      C4             19.1696025726        6.3297419191      -16.3697300000  MEMB      118             0.0000000000
     13490       118  CHL1      H4A            18.7612883169        5.2988497215      -16.3000800000  MEMB      118             0.0000000000
     13491       118  CHL1      H4B            20.1319005314        6.2912604808      -16.9236400000  MEMB      118             0.0000000000
     13492       118  CHL1      C5             19.2898773059        7.0358566961      -15.0419400000  MEMB      118             0.0000000000
     13493       118  CHL1      C6             20.4593015543        7.3310829499      -14.4410200000  MEMB      118             0.0000000000
     13494       118  CHL1      H6             21.4015399453        6.8734880327      -14.7768400000  MEMB      118             0.0000000000
     13495       118  CHL1      C7             20.5717419403        7.9468795034      -13.0687800000  MEMB      118             0.0000000000
     13496       118  CHL1      H7A            21.3183268794        7.3599951786      -12.4921400000  MEMB      118             0.0000000000
     13497       118  CHL1      H7B            20.9851022836        8.9651892568      -13.2315600000  MEMB      118             0.0000000000
     13498       118  CHL1      C8             19.2204039597        7.9852317209      -12.3578800000  MEMB      118             0.0000000000
     13499       118  CHL1      H8             18.8343387150        6.9630899980      -12.1566700000  MEMB      118             0.0000000000
     13500       118  CHL1      C14            19.3797735049        8.7057000959      -11.0011500000  MEMB      118             0.0000000000
     13501       118  CHL1      H14            19.6112743159        9.7438219919      -11.3221300000  MEMB      118             0.0000000000
     13502       118  CHL1      C15            20.5562586817        8.3772205376       -9.9898900000  MEMB      118             0.0000000000
     13503       118  CHL1      H15A           20.6728273119        7.2724506505       -9.9746500000  MEMB      118             0.0000000000
     13504       118  CHL1      H15B           21.4348843104        8.9865014267      -10.2917300000  MEMB      118             0.0000000000
     13505       118  CHL1      C16            19.9402893255        8.8159434072       -8.6011800000  MEMB      118             0.0000000000
     13506       118  CHL1      H16A           19.6689977452        7.9531801674       -7.9559200000  MEMB      118             0.0000000000
     13507       118  CHL1      H16B           20.6225780453        9.5180641020       -8.0759900000  MEMB      118             0.0000000000
     13508       118  CHL1      C17            18.6212293084        9.5380517407       -8.9223400000  MEMB      118             0.0000000000
     13509       118  CHL1      H17            18.8406568253       10.5887266192       -9.2091200000  MEMB      118             0.0000000000
     13510       118  CHL1      C13            18.1449011830        8.8313780189      -10.1786200000  MEMB      118             0.0000000000
     13511       118  CHL1      C18            17.6289421708        7.4118361112       -9.7764200000  MEMB      118             0.0000000000
     13512       118  CHL1      H18A           18.1377730653        7.0501795438       -8.8573900000  MEMB      118             0.0000000000
     13513       118  CHL1      H18B           16.5326661988        7.3952722039       -9.5968700000  MEMB      118             0.0000000000
     13514       118  CHL1      H18C           17.8442771699        6.6694263026      -10.5744100000  MEMB      118             0.0000000000
     13515       118  CHL1      C12            17.1529415633        9.5844161415      -11.1117600000  MEMB      118             0.0000000000
     13516       118  CHL1      H12A           16.1837798969        9.7263877615      -10.5874600000  MEMB      118             0.0000000000
     13517       118  CHL1      H12B           17.4409436347       10.5928951804      -11.4783000000  MEMB      118             0.0000000000
     13518       118  CHL1      C11            16.9348921078        8.7672101651      -12.4349400000  MEMB      118             0.0000000000
     13519       118  CHL1      H11A           16.2833737487        7.9040570395      -12.1803500000  MEMB      118             0.0000000000
     13520       118  CHL1      H11B           16.2578053282        9.4388038586      -13.0048800000  MEMB      118             0.0000000000
     13521       118  CHL1      C9             18.1572916975        8.5116605271      -13.3158100000  MEMB      118             0.0000000000
     13522       118  CHL1      H9             18.5724770723        9.4923052668      -13.6324800000  MEMB      118             0.0000000000
     13523       118  CHL1      C10            17.9461699763        7.5559857027      -14.4800600000  MEMB      118             0.0000000000
     13524       118  CHL1      C19            17.2709119339        6.2010766308      -14.1030400000  MEMB      118             0.0000000000
     13525       118  CHL1      H19A           16.9181482112        5.7099719404      -15.0350700000  MEMB      118             0.0000000000
     13526       118  CHL1      H19B           17.8581654573        5.4775967244      -13.4980300000  MEMB      118             0.0000000000
     13527       118  CHL1      H19C           16.3713286423        6.3516828189      -13.4687000000  MEMB      118             0.0000000000
     13528       118  CHL1      C1             17.1681432219        8.2645343425      -15.6102800000  MEMB      118             0.0000000000
     13529       118  CHL1      H1A            16.1818424749        8.6141813371      -15.2370700000  MEMB      118             0.0000000000
     13530       118  CHL1      H1B            17.6897874795        9.2048093217      -15.8897100000  MEMB      118             0.0000000000
     13531       118  CHL1      C2             16.9669490200        7.4300466034      -16.9087500000  MEMB      118             0.0000000000
     13532       118  CHL1      H2A            16.4337139695        8.0634681599      -17.6495300000  MEMB      118             0.0000000000
     13533       118  CHL1      H2B            16.3488991402        6.5348885891      -16.6828600000  MEMB      118             0.0000000000
     13534       118  CHL1      C20            17.7288265586        9.4949705314       -7.6588700000  MEMB      118             0.0000000000
     13535       118  CHL1      H20            17.5510706874        8.4663459533       -7.2785100000  MEMB      118             0.0000000000
     13536       118  CHL1      C21            16.4316769450       10.1669889634       -7.9480100000  MEMB      118             0.0000000000
     13537       118  CHL1      H21A           15.8016015165        9.5746115050       -8.6454500000  MEMB      118             0.0000000000
     13538       118  CHL1      H21B           16.6037469092       11.1193429479       -8.4936700000  MEMB      118             0.0000000000
     13539       118  CHL1      H21C           15.8563416031       10.1987315158       -6.9981200000  MEMB      118             0.0000000000
     13540       118  CHL1      C22            18.4483436382       10.3237448831       -6.5529300000  MEMB      118             0.0000000000
     13541       118  CHL1      H22A           19.5395643466       10.1180700924       -6.5173500000  MEMB      118             0.0000000000
     13542       118  CHL1      H22B           18.3742372565       11.4045618821       -6.7992700000  MEMB      118             0.0000000000
     13543       118  CHL1      C23            17.8943708397       10.0604969713       -5.1435900000  MEMB      118             0.0000000000
     13544       118  CHL1      H23A           16.7898494417        9.9734282454       -5.2259200000  MEMB      118             0.0000000000
     13545       118  CHL1      H23B           18.3589486925        9.1124633658       -4.7975800000  MEMB      118             0.0000000000
     13546       118  CHL1      C24            18.2991750760       11.1119118457       -4.1359000000  MEMB      118             0.0000000000
     13547       118  CHL1      H24A           17.6551752165       12.0058854253       -4.2787700000  MEMB      118             0.0000000000
     13548       118  CHL1      H24B           17.9044289336       10.6960858630       -3.1842800000  MEMB      118             0.0000000000
     13549       118  CHL1      C25            19.7951092035       11.3799412640       -4.0634600000  MEMB      118             0.0000000000
     13550       118  CHL1      H25            20.2014532906       11.7290414145       -5.0367700000  MEMB      118             0.0000000000
     13551       118  CHL1      C26            20.2220430216       12.5204773373       -3.1553500000  MEMB      118             0.0000000000
     13552       118  CHL1      H26A           19.9059909363       12.5356966544       -2.0903600000  MEMB      118             0.0000000000
     13553       118  CHL1      H26B           21.3263031139       12.4855552279       -3.0382100000  MEMB      118             0.0000000000
     13554       118  CHL1      H26C           20.1050895158       13.4942837567       -3.6772100000  MEMB      118             0.0000000000
     13555       118  CHL1      C27            20.6279488498       10.1359842666       -3.5241600000  MEMB      118             0.0000000000
     13556       118  CHL1      H27A           20.5985972141        9.2302952286       -4.1669500000  MEMB      118             0.0000000000
     13557       118  CHL1      H27B           21.6730058404       10.5041022351       -3.4425100000  MEMB      118             0.0000000000
     13558       118  CHL1      H27C           20.2284012681        9.9889044814       -2.4979800000  MEMB      118             0.0000000000
     13559       119  SAPC      N              -9.2160582535      -16.2277571661      -21.8568707688  MEMB      119             0.0000000000
     13560       119  SAPC      C12           -10.3684876719      -17.2275263981      -21.7446179932  MEMB      119             0.0000000000
     13561       119  SAPC      H12A           -9.9137143094      -18.2068716237      -21.7661599911  MEMB      119             0.0000000000
     13562       119  SAPC      H12B          -11.0584139668      -17.1332543039      -22.5701569364  MEMB      119             0.0000000000
     13563       119  SAPC      C13            -8.1532224076      -16.4053989654      -20.6921668081  MEMB      119             0.0000000000
     13564       119  SAPC      H13A           -8.6347921114      -16.3717975245      -19.7260603557  MEMB      119             0.0000000000
     13565       119  SAPC      H13B           -7.6803799259      -17.3677855805      -20.8211317338  MEMB      119             0.0000000000
     13566       119  SAPC      H13C           -7.3477907693      -15.6879492486      -20.7464397211  MEMB      119             0.0000000000
     13567       119  SAPC      C14            -8.4551126922      -16.3922497380      -23.1456981993  MEMB      119             0.0000000000
     13568       119  SAPC      H14A           -7.8890697753      -17.3096584137      -23.2117042350  MEMB      119             0.0000000000
     13569       119  SAPC      H14B           -9.2304991739      -16.5794694619      -23.8737945228  MEMB      119             0.0000000000
     13570       119  SAPC      H14C           -8.1118897879      -15.4649959221      -23.5802075903  MEMB      119             0.0000000000
     13571       119  SAPC      C15            -9.8626736852      -14.8824319306      -21.8101247734  MEMB      119             0.0000000000
     13572       119  SAPC      H15A          -10.5725387905      -14.7811971776      -22.6177404136  MEMB      119             0.0000000000
     13573       119  SAPC      H15B          -10.2973963291      -14.7718294733      -20.8276873076  MEMB      119             0.0000000000
     13574       119  SAPC      H15C           -9.0251580910      -14.2639808497      -22.0973285624  MEMB      119             0.0000000000
     13575       119  SAPC      C11           -11.2867708674      -17.1553229005      -20.5318876033  MEMB      119             0.0000000000
     13576       119  SAPC      H11A          -12.0081539818      -17.9815997872      -20.7085056066  MEMB      119             0.0000000000
     13577       119  SAPC      H11B          -11.8533424374      -16.1996769093      -20.5395364093  MEMB      119             0.0000000000
     13578       119  SAPC      P             -11.6228194176      -17.5219276808      -17.9982084939  MEMB      119             0.0000000000
     13579       119  SAPC      O13           -12.6222168641      -16.4065518460      -18.1314890715  MEMB      119             0.0000000000
     13580       119  SAPC      O14           -12.0317016175      -18.9630657514      -17.9088188587  MEMB      119             0.0000000000
     13581       119  SAPC      O12           -10.6777048101      -17.3735092629      -19.2408876141  MEMB      119             0.0000000000
     13582       119  SAPC      O11           -10.4840869152      -17.1916630606      -16.9392298110  MEMB      119             0.0000000000
     13583       119  SAPC      C1             -9.8212193194      -15.9062815021      -16.9758175591  MEMB      119             0.0000000000
     13584       119  SAPC      HA             -9.0944984093      -15.8721129808      -17.8154785386  MEMB      119             0.0000000000
     13585       119  SAPC      HB            -10.5712631284      -15.1498016295      -17.2912434546  MEMB      119             0.0000000000
     13586       119  SAPC      C2             -8.9551903446      -15.7369200626      -15.7540559442  MEMB      119             0.0000000000
     13587       119  SAPC      HS             -8.0949666565      -15.1032759227      -16.0587383907  MEMB      119             0.0000000000
     13588       119  SAPC      O21            -8.4833786730      -17.0236998864      -15.2591343847  MEMB      119             0.0000000000
     13589       119  SAPC      C21            -7.5241477772      -17.0067917548      -14.4628183758  MEMB      119             0.0000000000
     13590       119  SAPC      O22            -6.8460711416      -16.0698233549      -14.0655902427  MEMB      119             0.0000000000
     13591       119  SAPC      C22            -7.3767753163      -18.3922731312      -13.8580602482  MEMB      119             0.0000000000
     13592       119  SAPC      H2R            -7.0228866139      -19.1306208031      -14.6090107267  MEMB      119             0.0000000000
     13593       119  SAPC      H2S            -6.6559654207      -18.3269384225      -13.0151573739  MEMB      119             0.0000000000
     13594       119  SAPC      C3             -9.8143118160      -15.0455447904      -14.5921901025  MEMB      119             0.0000000000
     13595       119  SAPC      HX            -10.1302243452      -14.0329474631      -14.9225945530  MEMB      119             0.0000000000
     13596       119  SAPC      HY             -9.0951273819      -14.8637830944      -13.7651125277  MEMB      119             0.0000000000
     13597       119  SAPC      O31           -10.8274350625      -15.9488987632      -14.0917673989  MEMB      119             0.0000000000
     13598       119  SAPC      C31           -12.1251199486      -15.5614239108      -14.3199116692  MEMB      119             0.0000000000
     13599       119  SAPC      O32           -12.4579633894      -14.5039344453      -14.6943538863  MEMB      119             0.0000000000
     13600       119  SAPC      C32           -13.1409227391      -16.6722101306      -14.1692838756  MEMB      119             0.0000000000
     13601       119  SAPC      H2X           -13.4327643368      -17.0129767372      -15.1856633718  MEMB      119             0.0000000000
     13602       119  SAPC      H2Y           -14.0546422463      -16.3542980098      -13.6230519851  MEMB      119             0.0000000000
     13603       119  SAPC      C23            -8.6717542769      -18.9983401096      -13.1928697866  MEMB      119             0.0000000000
     13604       119  SAPC      H3R            -8.5123840008      -19.9950539782      -12.7286676787  MEMB      119             0.0000000000
     13605       119  SAPC      H3S            -9.4990535445      -19.0288548494      -13.9337921625  MEMB      119             0.0000000000
     13606       119  SAPC      C24            -9.1826376048      -18.1826509175      -12.0171488000  MEMB      119             0.0000000000
     13607       119  SAPC      H4R           -10.2157050765      -18.5022629616      -11.7623136899  MEMB      119             0.0000000000
     13608       119  SAPC      H4S            -9.3638832797      -17.1886702679      -12.4791805758  MEMB      119             0.0000000000
     13609       119  SAPC      C25            -8.3970028839      -18.2152555634      -10.7141325288  MEMB      119             0.0000000000
     13610       119  SAPC      H5R            -8.2179200567      -19.2573071732      -10.4107219996  MEMB      119             0.0000000000
     13611       119  SAPC      C26            -7.9850474945      -17.1056006969      -10.0238025485  MEMB      119             0.0000000000
     13612       119  SAPC      H6R            -7.4811053762      -17.4161739687       -9.0966639783  MEMB      119             0.0000000000
     13613       119  SAPC      C27            -8.2657837041      -15.6571173689      -10.3899111811  MEMB      119             0.0000000000
     13614       119  SAPC      H7R            -9.3646216467      -15.5180267224      -10.4766860291  MEMB      119             0.0000000000
     13615       119  SAPC      H7S            -7.9752376975      -15.5310187438      -11.4548068673  MEMB      119             0.0000000000
     13616       119  SAPC      C28            -7.7153220289      -14.5662856025       -9.5873988546  MEMB      119             0.0000000000
     13617       119  SAPC      H8R            -6.8471106111      -14.0568690672      -10.0309125861  MEMB      119             0.0000000000
     13618       119  SAPC      C29            -8.2375584086      -14.0084976966       -8.4303888861  MEMB      119             0.0000000000
     13619       119  SAPC      H9R            -7.6950155749      -13.1354824346       -8.0386094436  MEMB      119             0.0000000000
     13620       119  SAPC      C210           -9.4178763319      -14.3752558431       -7.7443429841  MEMB      119             0.0000000000
     13621       119  SAPC      H10R           -9.4097134170      -13.8578422225       -6.7612169973  MEMB      119             0.0000000000
     13622       119  SAPC      H10S           -9.4312460294      -15.4490948331       -7.4597171219  MEMB      119             0.0000000000
     13623       119  SAPC      C211          -10.6696871828      -13.8529467989       -8.4492047993  MEMB      119             0.0000000000
     13624       119  SAPC      H11R          -10.6699958161      -12.7531261534       -8.4690658223  MEMB      119             0.0000000000
     13625       119  SAPC      C212          -11.7219678851      -14.4487308839       -8.9662318503  MEMB      119             0.0000000000
     13626       119  SAPC      H12R          -12.3206745891      -13.7815898692       -9.6037845524  MEMB      119             0.0000000000
     13627       119  SAPC      C213          -12.0553738810      -15.8740189166       -9.0647797445  MEMB      119             0.0000000000
     13628       119  SAPC      H13R          -11.1615563264      -16.4863389215       -8.8188624596  MEMB      119             0.0000000000
     13629       119  SAPC      H13S          -12.2746044332      -15.9064513894      -10.1534519675  MEMB      119             0.0000000000
     13630       119  SAPC      C214          -13.3189541694      -16.2822190724       -8.3617922730  MEMB      119             0.0000000000
     13631       119  SAPC      H14R          -14.0569158165      -16.8257525068       -8.9700558833  MEMB      119             0.0000000000
     13632       119  SAPC      C215          -13.5798563624      -16.1138112197       -7.0790419444  MEMB      119             0.0000000000
     13633       119  SAPC      H15R          -14.5100024047      -16.6328375884       -6.8043783529  MEMB      119             0.0000000000
     13634       119  SAPC      C216          -12.7731359018      -15.4875303562       -5.9717557525  MEMB      119             0.0000000000
     13635       119  SAPC      H16R          -11.7298031303      -15.4260462075       -6.3485808402  MEMB      119             0.0000000000
     13636       119  SAPC      H16S          -12.8562323669      -16.1991842981       -5.1226586715  MEMB      119             0.0000000000
     13637       119  SAPC      C217          -13.1014240507      -14.1046730890       -5.4059538215  MEMB      119             0.0000000000
     13638       119  SAPC      H17R          -14.0972512921      -14.0316136871       -4.9188076079  MEMB      119             0.0000000000
     13639       119  SAPC      H17S          -13.2538978955      -13.3952547649       -6.2472610058  MEMB      119             0.0000000000
     13640       119  SAPC      C218          -12.1879535258      -13.5110010263       -4.2650558718  MEMB      119             0.0000000000
     13641       119  SAPC      H18R          -12.4313684833      -12.4280746853       -4.2166712255  MEMB      119             0.0000000000
     13642       119  SAPC      H18S          -11.1312899454      -13.6410850178       -4.5826428206  MEMB      119             0.0000000000
     13643       119  SAPC      C219          -12.2852895306      -14.0732181267       -2.8524774382  MEMB      119             0.0000000000
     13644       119  SAPC      H19R          -11.8040535025      -13.3438079878       -2.1664064070  MEMB      119             0.0000000000
     13645       119  SAPC      H19S          -11.7148520268      -15.0254573841       -2.8059791505  MEMB      119             0.0000000000
     13646       119  SAPC      C220          -13.8043787434      -14.3968920426       -2.4794975331  MEMB      119             0.0000000000
     13647       119  SAPC      H20R          -14.1907707414      -15.3457373784       -2.9092811355  MEMB      119             0.0000000000
     13648       119  SAPC      H20S          -14.4680628569      -13.5277607155       -2.6755951201  MEMB      119             0.0000000000
     13649       119  SAPC      H20T          -13.8106365510      -14.5094549455       -1.3742323130  MEMB      119             0.0000000000
     13650       119  SAPC      C33           -12.5045754158      -17.9213770569      -13.3879663428  MEMB      119             0.0000000000
     13651       119  SAPC      H3X           -12.0884057154      -17.5696468719      -12.4197670422  MEMB      119             0.0000000000
     13652       119  SAPC      H3Y           -11.6391886413      -18.3947012644      -13.8992306464  MEMB      119             0.0000000000
     13653       119  SAPC      C34           -13.5794798240      -18.9888650019      -13.0216672375  MEMB      119             0.0000000000
     13654       119  SAPC      H4X           -12.9032576357      -19.7767714633      -12.6263847680  MEMB      119             0.0000000000
     13655       119  SAPC      H4Y           -14.2466517033      -19.3684314450      -13.8248681416  MEMB      119             0.0000000000
     13656       119  SAPC      C35           -14.4334316911      -18.4859546674      -11.7756323222  MEMB      119             0.0000000000
     13657       119  SAPC      H5X           -15.2393584202      -17.7394348668      -11.9414979070  MEMB      119             0.0000000000
     13658       119  SAPC      H5Y           -13.6793145785      -18.0848143096      -11.0651999959  MEMB      119             0.0000000000
     13659       119  SAPC      C36           -15.2399741511      -19.5850535635      -11.1320827590  MEMB      119             0.0000000000
     13660       119  SAPC      H6X           -15.9477597630      -20.0690395763      -11.8385651632  MEMB      119             0.0000000000
     13661       119  SAPC      H6Y           -15.8865610363      -19.0832491394      -10.3807914161  MEMB      119             0.0000000000
     13662       119  SAPC      C37           -14.3578928963      -20.6806936615      -10.4270956957  MEMB      119             0.0000000000
     13663       119  SAPC      H7X           -13.5857138489      -21.0972817439      -11.1086490014  MEMB      119             0.0000000000
     13664       119  SAPC      H7Y           -15.1173032625      -21.4529022011      -10.1794862713  MEMB      119             0.0000000000
     13665       119  SAPC      C38           -13.7269271743      -20.3514993320       -9.1001111894  MEMB      119             0.0000000000
     13666       119  SAPC      H8X           -14.4119288213      -20.5623937067       -8.2512191368  MEMB      119             0.0000000000
     13667       119  SAPC      H8Y           -13.4917322813      -19.2682060104       -9.0260865527  MEMB      119             0.0000000000
     13668       119  SAPC      C39           -12.3821037086      -21.1152455746       -8.9488822809  MEMB      119             0.0000000000
     13669       119  SAPC      H9X           -11.8042139929      -21.0050396404       -9.8913365184  MEMB      119             0.0000000000
     13670       119  SAPC      H9Y           -12.6943431388      -22.1647096955       -8.7605940203  MEMB      119             0.0000000000
     13671       119  SAPC      C310          -11.5921474785      -20.6195158292       -7.6980296211  MEMB      119             0.0000000000
     13672       119  SAPC      H10X          -11.0130550941      -21.4490429107       -7.2388365096  MEMB      119             0.0000000000
     13673       119  SAPC      H10Y          -12.3606917251      -20.4057736618       -6.9247405858  MEMB      119             0.0000000000
     13674       119  SAPC      C311          -10.6157460304      -19.4445955095       -7.9793990892  MEMB      119             0.0000000000
     13675       119  SAPC      H11X          -11.2323226066      -18.6120965373       -8.3807714562  MEMB      119             0.0000000000
     13676       119  SAPC      H11Y           -9.9578867700      -19.7348284500       -8.8263380842  MEMB      119             0.0000000000
     13677       119  SAPC      C312           -9.8187230120      -18.8532710836       -6.8287210692  MEMB      119             0.0000000000
     13678       119  SAPC      H12X           -9.3527515700      -17.9132035425       -7.1940488199  MEMB      119             0.0000000000
     13679       119  SAPC      H12Y           -9.0084335703      -19.5667224856       -6.5665393954  MEMB      119             0.0000000000
     13680       119  SAPC      C313          -10.5682023467      -18.5183591253       -5.4733437872  MEMB      119             0.0000000000
     13681       119  SAPC      H13X          -11.0103887148      -19.4891055854       -5.1627897935  MEMB      119             0.0000000000
     13682       119  SAPC      H13Y          -11.3808861109      -17.7890321562       -5.6781566175  MEMB      119             0.0000000000
     13683       119  SAPC      C314           -9.7934454091      -18.0028312467       -4.2427768084  MEMB      119             0.0000000000
     13684       119  SAPC      H14X           -8.9578872959      -18.6723448818       -3.9462714675  MEMB      119             0.0000000000
     13685       119  SAPC      H14Y          -10.6242145619      -18.0162311855       -3.5052380012  MEMB      119             0.0000000000
     13686       119  SAPC      C315           -9.2461324941      -16.5638898830       -4.3413141066  MEMB      119             0.0000000000
     13687       119  SAPC      H15X          -10.1142781548      -15.9348080457       -4.6326907465  MEMB      119             0.0000000000
     13688       119  SAPC      H15Y           -8.5426441908      -16.7131343652       -5.1881613092  MEMB      119             0.0000000000
     13689       119  SAPC      C316           -8.5629491455      -16.1615500361       -3.0431924173  MEMB      119             0.0000000000
     13690       119  SAPC      H16X           -8.1658330112      -17.1122115464       -2.6274266366  MEMB      119             0.0000000000
     13691       119  SAPC      H16Y           -9.2114040260      -15.6623459398       -2.2917800004  MEMB      119             0.0000000000
     13692       119  SAPC      C317           -7.3696103043      -15.2000416045       -3.1814818856  MEMB      119             0.0000000000
     13693       119  SAPC      H17X           -7.6714394234      -14.2194546353       -3.6077084297  MEMB      119             0.0000000000
     13694       119  SAPC      H17Y           -6.6185098757      -15.5229300226       -3.9337528280  MEMB      119             0.0000000000
     13695       119  SAPC      C318           -6.5936697738      -15.1274523183       -1.7945586046  MEMB      119             0.0000000000
     13696       119  SAPC      H18X           -7.3079804553      -14.8169679450       -1.0022961087  MEMB      119             0.0000000000
     13697       119  SAPC      H18Y           -5.7292765818      -14.4336560475       -1.8706650867  MEMB      119             0.0000000000
     13698       119  SAPC      H18Z           -6.2201409526      -16.1408290581       -1.5340501268  MEMB      119             0.0000000000
     13699       120  CHL1      C3             -7.1945026407       19.2914206851      -17.3360650000  MEMB      120             0.0000000000
     13700       120  CHL1      H3             -6.4244906750       20.0895846984      -17.2702750000  MEMB      120             0.0000000000
     13701       120  CHL1      O3             -7.4306756593       19.0479983149      -18.6639350000  MEMB      120             0.0000000000
     13702       120  CHL1      H3'            -6.5613136707       18.8379477968      -19.0127850000  MEMB      120             0.0000000000
     13703       120  CHL1      C4             -6.5100654420       17.9684129531      -16.8619450000  MEMB      120             0.0000000000
     13704       120  CHL1      H4A            -7.0794718230       17.0887553335      -17.2311250000  MEMB      120             0.0000000000
     13705       120  CHL1      H4B            -5.5124571644       17.8858369460      -17.3438750000  MEMB      120             0.0000000000
     13706       120  CHL1      C5             -6.3095156054       17.8544069201      -15.3387450000  MEMB      120             0.0000000000
     13707       120  CHL1      C6             -5.0989366533       17.6613619386      -14.8586450000  MEMB      120             0.0000000000
     13708       120  CHL1      H6             -4.1878428908       17.5772391023      -15.4692450000  MEMB      120             0.0000000000
     13709       120  CHL1      C7             -4.8182693139       17.6799618143      -13.4159450000  MEMB      120             0.0000000000
     13710       120  CHL1      H7A            -4.0856432287       16.8600004895      -13.2570450000  MEMB      120             0.0000000000
     13711       120  CHL1      H7B            -4.1787262437       18.5466606290      -13.1436350000  MEMB      120             0.0000000000
     13712       120  CHL1      C8             -6.0165747519       17.5819558323      -12.5146850000  MEMB      120             0.0000000000
     13713       120  CHL1      H8             -6.4891288225       16.5822718586      -12.6226650000  MEMB      120             0.0000000000
     13714       120  CHL1      C14            -5.7664375263       17.8544707500      -11.0939450000  MEMB      120             0.0000000000
     13715       120  CHL1      H14            -5.3698190820       18.8922010002      -11.1052850000  MEMB      120             0.0000000000
     13716       120  CHL1      C15            -4.6693510246       17.0207760419      -10.3986550000  MEMB      120             0.0000000000
     13717       120  CHL1      H15A           -5.0498802681       15.9858488109      -10.5344650000  MEMB      120             0.0000000000
     13718       120  CHL1      H15B           -3.6419267034       17.1315951744      -10.8066150000  MEMB      120             0.0000000000
     13719       120  CHL1      C16            -4.7749968730       17.5192959525       -8.9799050000  MEMB      120             0.0000000000
     13720       120  CHL1      H16A           -4.6091015223       16.6520132270       -8.3056550000  MEMB      120             0.0000000000
     13721       120  CHL1      H16B           -4.0761547270       18.3460375524       -8.7299950000  MEMB      120             0.0000000000
     13722       120  CHL1      C17            -6.1201913337       18.3039623418       -8.8450650000  MEMB      120             0.0000000000
     13723       120  CHL1      H17            -5.9957899571       19.3880946194       -9.0536450000  MEMB      120             0.0000000000
     13724       120  CHL1      C13            -6.9178376839       17.9857724471      -10.0989750000  MEMB      120             0.0000000000
     13725       120  CHL1      C18            -7.5984508387       16.6006674902       -9.8303550000  MEMB      120             0.0000000000
     13726       120  CHL1      H18A           -6.8959723497       15.7970401345       -9.5220950000  MEMB      120             0.0000000000
     13727       120  CHL1      H18B           -8.3004765665       16.5569954466       -8.9703750000  MEMB      120             0.0000000000
     13728       120  CHL1      H18C           -8.1638403872       16.2679147883      -10.7269850000  MEMB      120             0.0000000000
     13729       120  CHL1      C12            -7.9113708987       19.0557984925      -10.6301950000  MEMB      120             0.0000000000
     13730       120  CHL1      H12A           -8.8598801667       18.9189316466      -10.0681250000  MEMB      120             0.0000000000
     13731       120  CHL1      H12B           -7.4925030127       20.0788098147      -10.7411450000  MEMB      120             0.0000000000
     13732       120  CHL1      C11            -8.2786154862       18.7429410626      -12.1079850000  MEMB      120             0.0000000000
     13733       120  CHL1      H11A           -8.9229706214       17.8531041185      -11.9426950000  MEMB      120             0.0000000000
     13734       120  CHL1      H11B           -8.9488252541       19.5586734598      -12.4539850000  MEMB      120             0.0000000000
     13735       120  CHL1      C9             -7.1088309044       18.5602842787      -13.0175750000  MEMB      120             0.0000000000
     13736       120  CHL1      H9             -6.6132088536       19.5545262040      -13.0046650000  MEMB      120             0.0000000000
     13737       120  CHL1      C10            -7.5777299631       18.2491570196      -14.4765750000  MEMB      120             0.0000000000
     13738       120  CHL1      C19            -8.5225473924       17.0551090259      -14.4414750000  MEMB      120             0.0000000000
     13739       120  CHL1      H19A           -8.1100387655       16.1367461899      -13.9716150000  MEMB      120             0.0000000000
     13740       120  CHL1      H19B           -9.4879560096       17.1898032628      -13.9084050000  MEMB      120             0.0000000000
     13741       120  CHL1      H19C           -8.9917187232       16.7755840274      -15.4089750000  MEMB      120             0.0000000000
     13742       120  CHL1      C1             -8.3080197554       19.5210512185      -15.1378750000  MEMB      120             0.0000000000
     13743       120  CHL1      H1A            -9.2987479644       19.6183348651      -14.6446050000  MEMB      120             0.0000000000
     13744       120  CHL1      H1B            -7.5931660954       20.3469743925      -14.9350350000  MEMB      120             0.0000000000
     13745       120  CHL1      C2             -8.5002524019       19.4604621063      -16.6464150000  MEMB      120             0.0000000000
     13746       120  CHL1      H2A            -9.0393549617       20.3828310193      -16.9512450000  MEMB      120             0.0000000000
     13747       120  CHL1      H2B            -9.1321353404       18.5520914763      -16.7459350000  MEMB      120             0.0000000000
     13748       120  CHL1      C20            -6.6629076434       18.1599711051       -7.4006550000  MEMB      120             0.0000000000
     13749       120  CHL1      H20            -6.9185976546       17.1011882120       -7.1817350000  MEMB      120             0.0000000000
     13750       120  CHL1      C21            -7.8990453271       19.0556360614       -7.2005750000  MEMB      120             0.0000000000
     13751       120  CHL1      H21A           -8.1762345760       19.0835590219       -6.1250750000  MEMB      120             0.0000000000
     13752       120  CHL1      H21B           -8.7377453083       18.6191253978       -7.7839750000  MEMB      120             0.0000000000
     13753       120  CHL1      H21C           -7.7721583991       20.1426116529       -7.3921450000  MEMB      120             0.0000000000
     13754       120  CHL1      C22            -5.6711885630       18.5566123597       -6.3504650000  MEMB      120             0.0000000000
     13755       120  CHL1      H22A           -4.6724119069       18.8297234029       -6.7531750000  MEMB      120             0.0000000000
     13756       120  CHL1      H22B           -6.0416267757       19.4798086475       -5.8556850000  MEMB      120             0.0000000000
     13757       120  CHL1      C23            -5.5306883239       17.5647551568       -5.1627550000  MEMB      120             0.0000000000
     13758       120  CHL1      H23A           -6.6030826887       17.4486076494       -4.8966850000  MEMB      120             0.0000000000
     13759       120  CHL1      H23B           -5.0368185949       16.6057196375       -5.4285750000  MEMB      120             0.0000000000
     13760       120  CHL1      C24            -4.7261857870       18.2510046577       -4.0549250000  MEMB      120             0.0000000000
     13761       120  CHL1      H24A           -3.6846480839       18.4234794740       -4.4009950000  MEMB      120             0.0000000000
     13762       120  CHL1      H24B           -5.2014189802       19.2469060085       -3.9258450000  MEMB      120             0.0000000000
     13763       120  CHL1      C25            -4.6822773406       17.5482081422       -2.7340550000  MEMB      120             0.0000000000
     13764       120  CHL1      H25            -4.3596444871       16.4890946350       -2.8262950000  MEMB      120             0.0000000000
     13765       120  CHL1      C26            -3.6364571912       18.1821204940       -1.7852350000  MEMB      120             0.0000000000
     13766       120  CHL1      H26A           -3.5018599981       17.6202707987       -0.8362650000  MEMB      120             0.0000000000
     13767       120  CHL1      H26B           -2.6619346328       18.3874648400       -2.2776350000  MEMB      120             0.0000000000
     13768       120  CHL1      H26C           -4.0385926908       19.1394359965       -1.3900750000  MEMB      120             0.0000000000
     13769       120  CHL1      C27            -5.9915514866       17.6678362503       -1.9895450000  MEMB      120             0.0000000000
     13770       120  CHL1      H27A           -6.7574346570       17.1539944379       -2.6090050000  MEMB      120             0.0000000000
     13771       120  CHL1      H27B           -5.8680713795       17.1069633341       -1.0385050000  MEMB      120             0.0000000000
     13772       120  CHL1      H27C           -6.2533938825       18.7340243860       -1.8192650000  MEMB      120             0.0000000000
     13773       121  SAPC      N              18.6569281560       -1.2686756199      -19.6210057669  MEMB      121             0.0000000000
     13774       121  SAPC      C12            19.8228697450       -1.1306966244      -18.5831408986  MEMB      121             0.0000000000
     13775       121  SAPC      H12A           20.2519072030       -2.1128781466      -18.4503006781  MEMB      121             0.0000000000
     13776       121  SAPC      H12B           19.3379775111       -0.8384056171      -17.6634423855  MEMB      121             0.0000000000
     13777       121  SAPC      C13            18.1226263197        0.1144380453      -19.9651100898  MEMB      121             0.0000000000
     13778       121  SAPC      H13A           18.8624274556        0.8406812167      -20.2678725198  MEMB      121             0.0000000000
     13779       121  SAPC      H13B           17.4581474720        0.0646374905      -20.8150441720  MEMB      121             0.0000000000
     13780       121  SAPC      H13C           17.5693113203        0.4944764278      -19.1190525077  MEMB      121             0.0000000000
     13781       121  SAPC      C14            19.1496719503       -1.8680505699      -20.9620407968  MEMB      121             0.0000000000
     13782       121  SAPC      H14A           18.3412361554       -2.2019087777      -21.5955785733  MEMB      121             0.0000000000
     13783       121  SAPC      H14B           19.8980522436       -1.3088553320      -21.5039149645  MEMB      121             0.0000000000
     13784       121  SAPC      H14C           19.6860884732       -2.7965489580      -20.8334019544  MEMB      121             0.0000000000
     13785       121  SAPC      C15            17.5456340317       -2.1588058726      -19.0609068187  MEMB      121             0.0000000000
     13786       121  SAPC      H15A           16.7500370416       -2.1754916815      -19.7910757590  MEMB      121             0.0000000000
     13787       121  SAPC      H15B           17.9042880394       -3.1751634540      -18.9917370912  MEMB      121             0.0000000000
     13788       121  SAPC      H15C           17.2175678737       -1.8254182040      -18.0874464497  MEMB      121             0.0000000000
     13789       121  SAPC      C11            21.1262357083       -0.2579676972      -18.8838727217  MEMB      121             0.0000000000
     13790       121  SAPC      H11A           21.9163665613       -0.6836285570      -18.2290238577  MEMB      121             0.0000000000
     13791       121  SAPC      H11B           20.9024053128        0.7751615420      -18.5420177033  MEMB      121             0.0000000000
     13792       121  SAPC      P              22.8671998543        0.4523212203      -20.5987409682  MEMB      121             0.0000000000
     13793       121  SAPC      O13            23.9375322483        0.1834600771      -19.6269217394  MEMB      121             0.0000000000
     13794       121  SAPC      O14            23.0640613264       -0.0061989279      -21.9957825074  MEMB      121             0.0000000000
     13795       121  SAPC      O12            21.5637355846       -0.3098517343      -20.2220752091  MEMB      121             0.0000000000
     13796       121  SAPC      O11            22.4109851667        1.9718227322      -20.4804024427  MEMB      121             0.0000000000
     13797       121  SAPC      C1             23.4820547105        2.9699445445      -20.4805768047  MEMB      121             0.0000000000
     13798       121  SAPC      HA             24.4514268180        2.5178325662      -20.7809658265  MEMB      121             0.0000000000
     13799       121  SAPC      HB             23.3024444837        3.7051459830      -21.2939278987  MEMB      121             0.0000000000
     13800       121  SAPC      C2             23.5986673766        3.8980813356      -19.2134223793  MEMB      121             0.0000000000
     13801       121  SAPC      HS             24.5993085831        4.3806061427      -19.1990046068  MEMB      121             0.0000000000
     13802       121  SAPC      O21            23.2849984111        3.2792013703      -17.9636920700  MEMB      121             0.0000000000
     13803       121  SAPC      C21            24.1944515739        2.4029925562      -17.4211376683  MEMB      121             0.0000000000
     13804       121  SAPC      O22            25.2585755274        2.1385964211      -17.9555615243  MEMB      121             0.0000000000
     13805       121  SAPC      C22            23.7146199629        2.0193301815      -16.0467101810  MEMB      121             0.0000000000
     13806       121  SAPC      H2R            23.4408796571        2.9073658212      -15.4377930683  MEMB      121             0.0000000000
     13807       121  SAPC      H2S            22.8434580709        1.3366951480      -16.1437013503  MEMB      121             0.0000000000
     13808       121  SAPC      C3             22.5828187144        5.1207528288      -19.2705940253  MEMB      121             0.0000000000
     13809       121  SAPC      HX             22.4621389639        5.3402310569      -20.3529927204  MEMB      121             0.0000000000
     13810       121  SAPC      HY             23.0302556047        5.9819540537      -18.7298039382  MEMB      121             0.0000000000
     13811       121  SAPC      O31            21.2710643315        4.8005359670      -18.8180399732  MEMB      121             0.0000000000
     13812       121  SAPC      C31            21.0000970318        5.1613218630      -17.6065442532  MEMB      121             0.0000000000
     13813       121  SAPC      O32            21.7328425837        5.6044780855      -16.7354234076  MEMB      121             0.0000000000
     13814       121  SAPC      C32            19.4773336735        4.7774149069      -17.3811322432  MEMB      121             0.0000000000
     13815       121  SAPC      H2X            19.2096754152        3.9488731303      -18.0712034137  MEMB      121             0.0000000000
     13816       121  SAPC      H2Y            18.7482386869        5.6083189197      -17.4922200408  MEMB      121             0.0000000000
     13817       121  SAPC      C23            24.7911135212        1.2493390301      -15.1708327537  MEMB      121             0.0000000000
     13818       121  SAPC      H3R            25.7603004621        1.7650400099      -15.3412733766  MEMB      121             0.0000000000
     13819       121  SAPC      H3S            24.9781678024        0.2075441853      -15.5084643585  MEMB      121             0.0000000000
     13820       121  SAPC      C24            24.5048259893        1.2858412502      -13.6339594818  MEMB      121             0.0000000000
     13821       121  SAPC      H4R            25.2255532199        0.6391798433      -13.0892557181  MEMB      121             0.0000000000
     13822       121  SAPC      H4S            23.4937496021        0.8326585592      -13.5522830125  MEMB      121             0.0000000000
     13823       121  SAPC      C25            24.5529963461        2.7265928431      -13.1447458922  MEMB      121             0.0000000000
     13824       121  SAPC      H5R            23.6356278876        3.2736904616      -13.4076515103  MEMB      121             0.0000000000
     13825       121  SAPC      C26            25.5199870124        3.3562139603      -12.4643145196  MEMB      121             0.0000000000
     13826       121  SAPC      H6R            25.3927064567        4.4009573007      -12.1444525550  MEMB      121             0.0000000000
     13827       121  SAPC      C27            26.8767979275        2.6574262772      -12.0023400532  MEMB      121             0.0000000000
     13828       121  SAPC      H7R            27.6840285103        3.4111419712      -12.1232211722  MEMB      121             0.0000000000
     13829       121  SAPC      H7S            27.1830050880        1.9966635958      -12.8413579872  MEMB      121             0.0000000000
     13830       121  SAPC      C28            26.8143043592        1.8440072416      -10.7797006362  MEMB      121             0.0000000000
     13831       121  SAPC      H8R            26.8312873671        0.7572317889      -10.9489072958  MEMB      121             0.0000000000
     13832       121  SAPC      C29            26.6946234577        2.2552601663       -9.4653845352  MEMB      121             0.0000000000
     13833       121  SAPC      H9R            26.7742599868        1.5291226385       -8.6429597565  MEMB      121             0.0000000000
     13834       121  SAPC      C210           26.5498324218        3.6748275327       -9.0062078501  MEMB      121             0.0000000000
     13835       121  SAPC      H10R           26.6990967967        4.3904888293       -9.8427906494  MEMB      121             0.0000000000
     13836       121  SAPC      H10S           27.3279808169        3.8164975778       -8.2259930951  MEMB      121             0.0000000000
     13837       121  SAPC      C211           25.3121270023        4.0357669223       -8.3241883530  MEMB      121             0.0000000000
     13838       121  SAPC      H11R           24.6734345924        4.6289997803       -8.9951180935  MEMB      121             0.0000000000
     13839       121  SAPC      C212           24.9411741215        3.7967486584       -7.0575571772  MEMB      121             0.0000000000
     13840       121  SAPC      H12R           23.9549701634        4.1357972587       -6.7076318933  MEMB      121             0.0000000000
     13841       121  SAPC      C213           25.8016606105        3.0942319046       -6.0241039457  MEMB      121             0.0000000000
     13842       121  SAPC      H13R           26.8073843896        2.7520354938       -6.3492841588  MEMB      121             0.0000000000
     13843       121  SAPC      H13S           25.1990700562        2.2043416077       -5.7424996347  MEMB      121             0.0000000000
     13844       121  SAPC      C214           26.1117511121        4.0342901184       -4.9050684850  MEMB      121             0.0000000000
     13845       121  SAPC      H14R           26.5607939021        4.9729674876       -5.2617838392  MEMB      121             0.0000000000
     13846       121  SAPC      C215           25.9887077486        3.8195711681       -3.5424895888  MEMB      121             0.0000000000
     13847       121  SAPC      H15R           26.5179709687        4.5523274580       -2.9156330933  MEMB      121             0.0000000000
     13848       121  SAPC      C216           25.5766337655        2.5995455774       -2.7635534096  MEMB      121             0.0000000000
     13849       121  SAPC      H16R           26.4900666962        2.0472761830       -2.4553990615  MEMB      121             0.0000000000
     13850       121  SAPC      H16S           24.9672931555        1.9278647154       -3.4053248641  MEMB      121             0.0000000000
     13851       121  SAPC      C217           24.6959236187        2.8900474145       -1.5092433318  MEMB      121             0.0000000000
     13852       121  SAPC      H17R           23.6432935319        3.0657131188       -1.8181655915  MEMB      121             0.0000000000
     13853       121  SAPC      H17S           25.0382162086        3.8623597871       -1.0947993080  MEMB      121             0.0000000000
     13854       121  SAPC      C218           24.7314076435        1.7872991192       -0.4449883047  MEMB      121             0.0000000000
     13855       121  SAPC      H18R           25.7791377624        1.5592572163       -0.1541611620  MEMB      121             0.0000000000
     13856       121  SAPC      H18S           24.4422897008        0.8430119435       -0.9539613425  MEMB      121             0.0000000000
     13857       121  SAPC      C219           23.9221263162        2.0772638022        0.8204859067  MEMB      121             0.0000000000
     13858       121  SAPC      H19R           24.3349203760        2.9681345305        1.3403621531  MEMB      121             0.0000000000
     13859       121  SAPC      H19S           23.9543494526        1.2084509150        1.5121845135  MEMB      121             0.0000000000
     13860       121  SAPC      C220           22.4356468114        2.4881932307        0.5745044938  MEMB      121             0.0000000000
     13861       121  SAPC      H20R           21.9446907983        2.7191496813        1.5440108948  MEMB      121             0.0000000000
     13862       121  SAPC      H20S           21.8684247813        1.6401435387        0.1347432953  MEMB      121             0.0000000000
     13863       121  SAPC      H20T           22.2937290742        3.4071694483       -0.0334932199  MEMB      121             0.0000000000
     13864       121  SAPC      C33            19.3860319027        4.2746823955      -15.9498064736  MEMB      121             0.0000000000
     13865       121  SAPC      H3X            18.3116165419        4.1114618577      -15.7189136411  MEMB      121             0.0000000000
     13866       121  SAPC      H3Y            19.8550632691        4.9680455893      -15.2193423220  MEMB      121             0.0000000000
     13867       121  SAPC      C34            20.0838809533        2.9269909166      -15.7741555102  MEMB      121             0.0000000000
     13868       121  SAPC      H4X            21.1813767074        3.0637239827      -15.8796441774  MEMB      121             0.0000000000
     13869       121  SAPC      H4Y            19.6199661853        2.3017109349      -16.5667010137  MEMB      121             0.0000000000
     13870       121  SAPC      C35            19.9030980343        2.2045438196      -14.4532148945  MEMB      121             0.0000000000
     13871       121  SAPC      H5X            18.8693581224        2.1706098087      -14.0475650708  MEMB      121             0.0000000000
     13872       121  SAPC      H5Y            20.4906235321        2.8583768141      -13.7737757642  MEMB      121             0.0000000000
     13873       121  SAPC      C36            20.4713201873        0.8517218778      -14.5299008970  MEMB      121             0.0000000000
     13874       121  SAPC      H6X            21.5044644582        0.8670316063      -14.9381894997  MEMB      121             0.0000000000
     13875       121  SAPC      H6Y            19.8788854456        0.1498813536      -15.1550106785  MEMB      121             0.0000000000
     13876       121  SAPC      C37            20.5899426902        0.0794863705      -13.1489004765  MEMB      121             0.0000000000
     13877       121  SAPC      H7X            19.5365357292        0.0213986373      -12.8006466408  MEMB      121             0.0000000000
     13878       121  SAPC      H7Y            21.2763935435        0.7353294017      -12.5718599575  MEMB      121             0.0000000000
     13879       121  SAPC      C38            21.0717965782       -1.3403104989      -13.3066794216  MEMB      121             0.0000000000
     13880       121  SAPC      H8X            22.0322154159       -1.3271496044      -13.8650192928  MEMB      121             0.0000000000
     13881       121  SAPC      H8Y            20.3134625444       -1.9130823177      -13.8821640103  MEMB      121             0.0000000000
     13882       121  SAPC      C39            21.3268407699       -2.0362881784      -11.8891537814  MEMB      121             0.0000000000
     13883       121  SAPC      H9X            21.9195621048       -2.9597152534      -12.0631791116  MEMB      121             0.0000000000
     13884       121  SAPC      H9Y            20.3484012728       -2.3112113274      -11.4403839926  MEMB      121             0.0000000000
     13885       121  SAPC      C310           21.9674896298       -1.0527094722      -10.8809657266  MEMB      121             0.0000000000
     13886       121  SAPC      H10X           21.2518372094       -0.2411129558      -10.6290253115  MEMB      121             0.0000000000
     13887       121  SAPC      H10Y           22.8085335610       -0.5117013809      -11.3649864462  MEMB      121             0.0000000000
     13888       121  SAPC      C311           22.4227016145       -1.5843827122       -9.5207510173  MEMB      121             0.0000000000
     13889       121  SAPC      H11X           23.2182706033       -2.3284067043       -9.7394274765  MEMB      121             0.0000000000
     13890       121  SAPC      H11Y           21.5649383784       -2.1532235365       -9.1024408454  MEMB      121             0.0000000000
     13891       121  SAPC      C312           22.8373197711       -0.4031398274       -8.6638472861  MEMB      121             0.0000000000
     13892       121  SAPC      H12X           21.9958376581        0.3209576575       -8.6201242415  MEMB      121             0.0000000000
     13893       121  SAPC      H12Y           23.6692152370        0.2192771015       -9.0573800480  MEMB      121             0.0000000000
     13894       121  SAPC      C313           23.2727714160       -0.7477136819       -7.2033919745  MEMB      121             0.0000000000
     13895       121  SAPC      H13X           24.2471645691       -0.2670952593       -6.9712619825  MEMB      121             0.0000000000
     13896       121  SAPC      H13Y           23.4354454653       -1.8440354745       -7.2804435833  MEMB      121             0.0000000000
     13897       121  SAPC      C314           22.2992925174       -0.4727299885       -6.0339634006  MEMB      121             0.0000000000
     13898       121  SAPC      H14X           22.6485614513       -1.0129003431       -5.1281221834  MEMB      121             0.0000000000
     13899       121  SAPC      H14Y           21.2896976112       -0.8598508087       -6.2892606427  MEMB      121             0.0000000000
     13900       121  SAPC      C315           22.1821026669        1.0229783272       -5.6587514092  MEMB      121             0.0000000000
     13901       121  SAPC      H15X           21.5972362940        1.5530709172       -6.4405788479  MEMB      121             0.0000000000
     13902       121  SAPC      H15Y           23.1596983770        1.5140592459       -5.4651869321  MEMB      121             0.0000000000
     13903       121  SAPC      C316           21.3271585722        1.0608284902       -4.3319905231  MEMB      121             0.0000000000
     13904       121  SAPC      H16X           21.9813027877        0.5939249224       -3.5649061973  MEMB      121             0.0000000000
     13905       121  SAPC      H16Y           20.3540788567        0.5260408770       -4.2940584869  MEMB      121             0.0000000000
     13906       121  SAPC      C317           21.0735054827        2.4689268620       -3.7910900466  MEMB      121             0.0000000000
     13907       121  SAPC      H17X           20.5529093092        2.9167003219       -4.6644738655  MEMB      121             0.0000000000
     13908       121  SAPC      H17Y           22.0228041881        3.0422469503       -3.7243271675  MEMB      121             0.0000000000
     13909       121  SAPC      C318           20.2050924627        2.6286225987       -2.4942992364  MEMB      121             0.0000000000
     13910       121  SAPC      H18X           19.1273160817        2.4306351542       -2.6773852333  MEMB      121             0.0000000000
     13911       121  SAPC      H18Y           20.2804631030        3.6252332882       -2.0091116623  MEMB      121             0.0000000000
     13912       121  SAPC      H18Z           20.6494619569        1.9202702762       -1.7627980081  MEMB      121             0.0000000000
     13913       122  SOPE      N               7.5423387444      -20.1643316007      -22.4769223948  MEMB      122             0.0000000000
     13914       122  SOPE      HN1             8.3516512022      -20.7249388069      -22.8120836022  MEMB      122             0.0000000000
     13915       122  SOPE      HN2             6.7021458120      -20.2267512437      -23.0866596388  MEMB      122             0.0000000000
     13916       122  SOPE      HN3             7.7671565573      -19.1607519737      -22.3223756321  MEMB      122             0.0000000000
     13917       122  SOPE      C12             7.1815724924      -20.6352094674      -21.1061700683  MEMB      122             0.0000000000
     13918       122  SOPE      H12A            6.8656354202      -19.7382799305      -20.5316946575  MEMB      122             0.0000000000
     13919       122  SOPE      H12B            8.1532214759      -20.8877092134      -20.6302885620  MEMB      122             0.0000000000
     13920       122  SOPE      C11             6.0972715418      -21.7312475321      -21.1149484370  MEMB      122             0.0000000000
     13921       122  SOPE      H11A            6.1552765166      -22.2091131478      -20.1136487710  MEMB      122             0.0000000000
     13922       122  SOPE      H11B            6.4322934314      -22.4932146922      -21.8508066297  MEMB      122             0.0000000000
     13923       122  SOPE      P               3.8905638999      -20.2538013952      -20.7092604017  MEMB      122             0.0000000000
     13924       122  SOPE      O13             2.5370562719      -20.1962407187      -21.2362131254  MEMB      122             0.0000000000
     13925       122  SOPE      O14             4.6363926372      -19.0009712580      -20.5376839591  MEMB      122             0.0000000000
     13926       122  SOPE      O12             4.7963128323      -21.2314653970      -21.5429540961  MEMB      122             0.0000000000
     13927       122  SOPE      O11             3.8071341184      -20.9536110372      -19.2758475441  MEMB      122             0.0000000000
     13928       122  SOPE      C1              3.2343857425      -22.2290722026      -19.1381224518  MEMB      122             0.0000000000
     13929       122  SOPE      HA              3.8219133699      -22.9962986632      -19.6862976312  MEMB      122             0.0000000000
     13930       122  SOPE      HB              2.1758975120      -22.2220777632      -19.4755756782  MEMB      122             0.0000000000
     13931       122  SOPE      C2              3.2571298459      -22.6383643584      -17.6807582347  MEMB      122             0.0000000000
     13932       122  SOPE      HS              2.4741321513      -23.4059192037      -17.5016064059  MEMB      122             0.0000000000
     13933       122  SOPE      O21             2.9976740885      -21.6013759322      -16.7354487192  MEMB      122             0.0000000000
     13934       122  SOPE      C21             1.8047721029      -21.0291353866      -16.6259959605  MEMB      122             0.0000000000
     13935       122  SOPE      O22             0.8482379196      -21.2793747375      -17.4335641298  MEMB      122             0.0000000000
     13936       122  SOPE      C22             1.8116786139      -19.8761650523      -15.5395269843  MEMB      122             0.0000000000
     13937       122  SOPE      H2R             1.5559297263      -18.9503044799      -16.0978241674  MEMB      122             0.0000000000
     13938       122  SOPE      H2S             2.8709780892      -19.6624222066      -15.2816132720  MEMB      122             0.0000000000
     13939       122  SOPE      C3              4.6010923928      -23.1939855667      -17.2499779291  MEMB      122             0.0000000000
     13940       122  SOPE      HX              4.9050681436      -24.1360850029      -17.7543270158  MEMB      122             0.0000000000
     13941       122  SOPE      HY              4.5062231732      -23.5113808157      -16.1895149750  MEMB      122             0.0000000000
     13942       122  SOPE      O31             5.6271210217      -22.2430822437      -17.3979342984  MEMB      122             0.0000000000
     13943       122  SOPE      C31             6.8634793067      -22.7272149814      -17.3404562589  MEMB      122             0.0000000000
     13944       122  SOPE      O32             7.2122617610      -23.8276033068      -17.0478947806  MEMB      122             0.0000000000
     13945       122  SOPE      C32             7.8397183997      -21.6597249552      -17.6989355483  MEMB      122             0.0000000000
     13946       122  SOPE      H2X             7.3276849017      -20.8449430383      -18.2541588600  MEMB      122             0.0000000000
     13947       122  SOPE      H2Y             8.4936611384      -22.2208935507      -18.4001986125  MEMB      122             0.0000000000
     13948       122  SOPE      C23             0.8281552750      -20.3331529795      -14.5572248331  MEMB      122             0.0000000000
     13949       122  SOPE      H3R            -0.1524608843      -20.5150189624      -15.0467526703  MEMB      122             0.0000000000
     13950       122  SOPE      H3S             0.8938876139      -19.4909347816      -13.8356507376  MEMB      122             0.0000000000
     13951       122  SOPE      C24             1.0362211077      -21.6511958617      -13.7221159843  MEMB      122             0.0000000000
     13952       122  SOPE      H4R             0.1273635257      -22.1339688786      -13.3035119439  MEMB      122             0.0000000000
     13953       122  SOPE      H4S             1.3940137340      -22.3762443165      -14.4840938581  MEMB      122             0.0000000000
     13954       122  SOPE      C25             2.1512212774      -21.4949602815      -12.7214465177  MEMB      122             0.0000000000
     13955       122  SOPE      H5R             3.0167714341      -20.9517533448      -13.1574173089  MEMB      122             0.0000000000
     13956       122  SOPE      H5S             1.8982374682      -20.7939865004      -11.8974584119  MEMB      122             0.0000000000
     13957       122  SOPE      C26             2.5530913329      -22.8189525594      -12.1153592588  MEMB      122             0.0000000000
     13958       122  SOPE      H6R             1.7152741908      -23.4346932657      -11.7238923473  MEMB      122             0.0000000000
     13959       122  SOPE      H6S             2.9768607090      -23.4616147872      -12.9164365184  MEMB      122             0.0000000000
     13960       122  SOPE      C27             3.7083260053      -22.7514796706      -11.1377357509  MEMB      122             0.0000000000
     13961       122  SOPE      H7R             4.5039895085      -22.1816090135      -11.6635563219  MEMB      122             0.0000000000
     13962       122  SOPE      H7S             3.3440155756      -22.0627593541      -10.3457359718  MEMB      122             0.0000000000
     13963       122  SOPE      C28             4.1186940031      -23.9749067753      -10.2500468743  MEMB      122             0.0000000000
     13964       122  SOPE      H8R             4.6055520769      -24.6036567825      -11.0259097894  MEMB      122             0.0000000000
     13965       122  SOPE      H8S             4.8712280629      -23.5603555441       -9.5456598515  MEMB      122             0.0000000000
     13966       122  SOPE      C29             2.9555964871      -24.6033938110       -9.5519367730  MEMB      122             0.0000000000
     13967       122  SOPE      H91             2.1657393883      -24.9770694489      -10.2201381521  MEMB      122             0.0000000000
     13968       122  SOPE      C210            2.6842494084      -24.5444118817       -8.2845769442  MEMB      122             0.0000000000
     13969       122  SOPE      H101            1.8069417868      -25.1455038595       -8.0034731453  MEMB      122             0.0000000000
     13970       122  SOPE      C211            3.4811108953      -23.8847263695       -7.1362512934  MEMB      122             0.0000000000
     13971       122  SOPE      H11R            4.4437605705      -23.4482372425       -7.4784561636  MEMB      122             0.0000000000
     13972       122  SOPE      H11S            3.7478906643      -24.7030805236       -6.4337938231  MEMB      122             0.0000000000
     13973       122  SOPE      C212            2.6395260781      -22.8886672023       -6.3092323728  MEMB      122             0.0000000000
     13974       122  SOPE      H12R            1.7294134360      -23.4244380356       -5.9643178739  MEMB      122             0.0000000000
     13975       122  SOPE      H12S            2.1405446290      -22.0856580155       -6.8927681991  MEMB      122             0.0000000000
     13976       122  SOPE      C213            3.3249489751      -22.2242308389       -5.1013942527  MEMB      122             0.0000000000
     13977       122  SOPE      H13R            3.8325157749      -23.0485673130       -4.5562649155  MEMB      122             0.0000000000
     13978       122  SOPE      H13S            2.4906155957      -21.7172160471       -4.5711637164  MEMB      122             0.0000000000
     13979       122  SOPE      C214            4.3841323707      -21.1348005495       -5.4170343681  MEMB      122             0.0000000000
     13980       122  SOPE      H14R            3.8649750600      -20.5360430365       -6.1956776310  MEMB      122             0.0000000000
     13981       122  SOPE      H14S            5.2766391221      -21.6060486269       -5.8814452850  MEMB      122             0.0000000000
     13982       122  SOPE      C215            4.7960904905      -20.4124630843       -4.2178995280  MEMB      122             0.0000000000
     13983       122  SOPE      H15R            5.3078144598      -21.1029602958       -3.5138590006  MEMB      122             0.0000000000
     13984       122  SOPE      H15S            3.8616919111      -20.0607000595       -3.7305777214  MEMB      122             0.0000000000
     13985       122  SOPE      C216            5.6708040051      -19.2474647573       -4.4989845958  MEMB      122             0.0000000000
     13986       122  SOPE      H16R            5.2958600097      -18.4408244515       -5.1646195698  MEMB      122             0.0000000000
     13987       122  SOPE      H16S            6.5541729618      -19.6094952613       -5.0672392286  MEMB      122             0.0000000000
     13988       122  SOPE      C217            6.1394016357      -18.4148558907       -3.2446747151  MEMB      122             0.0000000000
     13989       122  SOPE      H17R            6.7047383520      -17.5222627309       -3.5881743579  MEMB      122             0.0000000000
     13990       122  SOPE      H17S            6.8409048656      -19.1182398008       -2.7472161455  MEMB      122             0.0000000000
     13991       122  SOPE      C218            5.2075347080      -17.9531964930       -2.0621946729  MEMB      122             0.0000000000
     13992       122  SOPE      H18R            4.9663808362      -18.8425750659       -1.4415732495  MEMB      122             0.0000000000
     13993       122  SOPE      H18S            4.2847686871      -17.5896200280       -2.5628291770  MEMB      122             0.0000000000
     13994       122  SOPE      H18T            5.7116496465      -17.1522537788       -1.4802328443  MEMB      122             0.0000000000
     13995       122  SOPE      C33             8.5772665173      -21.2523979237      -16.3870021551  MEMB      122             0.0000000000
     13996       122  SOPE      H3X             9.5745525953      -20.8549041985      -16.6729050928  MEMB      122             0.0000000000
     13997       122  SOPE      H3Y             8.7895980693      -22.0310856263      -15.6235352494  MEMB      122             0.0000000000
     13998       122  SOPE      C34             7.7716175025      -20.3017840359      -15.4967889532  MEMB      122             0.0000000000
     13999       122  SOPE      H4X             8.4329127229      -19.9591648340      -14.6723973414  MEMB      122             0.0000000000
     14000       122  SOPE      H4Y             6.8992594088      -20.8230734588      -15.0478242427  MEMB      122             0.0000000000
     14001       122  SOPE      C35             7.2807639212      -19.0213552490      -16.1370916588  MEMB      122             0.0000000000
     14002       122  SOPE      H5X             6.4006671425      -19.1372816929      -16.8051569106  MEMB      122             0.0000000000
     14003       122  SOPE      H5Y             8.1321006500      -18.5476444177      -16.6710811820  MEMB      122             0.0000000000
     14004       122  SOPE      C36             6.7134081028      -17.9604529348      -15.0603051663  MEMB      122             0.0000000000
     14005       122  SOPE      H6X             6.2310692295      -17.1255834831      -15.6122683014  MEMB      122             0.0000000000
     14006       122  SOPE      H6Y             7.5969520453      -17.4425924199      -14.6296173235  MEMB      122             0.0000000000
     14007       122  SOPE      C37             5.6319961126      -18.6210299254      -14.1563452538  MEMB      122             0.0000000000
     14008       122  SOPE      H7X             6.1233575221      -19.4390891844      -13.5874305976  MEMB      122             0.0000000000
     14009       122  SOPE      H7Y             4.8894295830      -19.1075311399      -14.8243519625  MEMB      122             0.0000000000
     14010       122  SOPE      C38             5.0481774492      -17.5935992029      -13.1911654157  MEMB      122             0.0000000000
     14011       122  SOPE      H8X             4.6452147362      -16.7051356312      -13.7227429433  MEMB      122             0.0000000000
     14012       122  SOPE      H8Y             5.8245470498      -17.0989395275      -12.5691660334  MEMB      122             0.0000000000
     14013       122  SOPE      C39             3.9382153813      -18.1466936691      -12.3380952562  MEMB      122             0.0000000000
     14014       122  SOPE      H9X             4.1958415604      -19.0422069979      -11.7331107219  MEMB      122             0.0000000000
     14015       122  SOPE      H9Y             3.1248323476      -18.5424641857      -12.9831491745  MEMB      122             0.0000000000
     14016       122  SOPE      C310            3.5470100369      -17.0837319248      -11.2999871454  MEMB      122             0.0000000000
     14017       122  SOPE      H10X            2.9756223443      -16.2601370938      -11.7790789032  MEMB      122             0.0000000000
     14018       122  SOPE      H10Y            4.4843280621      -16.5708358403      -10.9955302314  MEMB      122             0.0000000000
     14019       122  SOPE      C311            2.6297691512      -17.5679228310      -10.1171416803  MEMB      122             0.0000000000
     14020       122  SOPE      H11X            1.9761771945      -18.3760620072      -10.5096323343  MEMB      122             0.0000000000
     14021       122  SOPE      H11Y            1.9209533378      -16.7912880586       -9.7583392010  MEMB      122             0.0000000000
     14022       122  SOPE      C312            3.4392879934      -18.0241184625       -8.8419070869  MEMB      122             0.0000000000
     14023       122  SOPE      H12X            4.0833288991      -17.1451725735       -8.6251431972  MEMB      122             0.0000000000
     14024       122  SOPE      H12Y            4.0727608152      -18.9006377641       -9.0963616807  MEMB      122             0.0000000000
     14025       122  SOPE      C313            2.6312516450      -18.2902239764       -7.5986848560  MEMB      122             0.0000000000
     14026       122  SOPE      H13X            3.2030135040      -17.9737057317       -6.7002268458  MEMB      122             0.0000000000
     14027       122  SOPE      H13Y            2.5129095008      -19.3895113296       -7.4896735577  MEMB      122             0.0000000000
     14028       122  SOPE      C314            1.1970358735      -17.7378061285       -7.4000593695  MEMB      122             0.0000000000
     14029       122  SOPE      H14X            0.4834421128      -18.2809237696       -8.0559003914  MEMB      122             0.0000000000
     14030       122  SOPE      H14Y            1.1018384303      -16.7057242536       -7.8001407444  MEMB      122             0.0000000000
     14031       122  SOPE      C315            0.6985605372      -17.8147925591       -5.9608088191  MEMB      122             0.0000000000
     14032       122  SOPE      H15X           -0.1811449333      -17.1402009860       -6.0340597646  MEMB      122             0.0000000000
     14033       122  SOPE      H15Y            1.4653191224      -17.4794196062       -5.2301053706  MEMB      122             0.0000000000
     14034       122  SOPE      C316            0.2077355103      -19.1900243493       -5.4981641495  MEMB      122             0.0000000000
     14035       122  SOPE      H16X            0.9343482501      -20.0289906356       -5.4482637258  MEMB      122             0.0000000000
     14036       122  SOPE      H16Y           -0.6590565613      -19.5238502689       -6.1077154385  MEMB      122             0.0000000000
     14037       122  SOPE      C317           -0.3947508796      -19.2155935345       -4.0315897905  MEMB      122             0.0000000000
     14038       122  SOPE      H17X           -1.2524080905      -19.9133996067       -4.1402712024  MEMB      122             0.0000000000
     14039       122  SOPE      H17Y           -0.7960031685      -18.2254949617       -3.7265936656  MEMB      122             0.0000000000
     14040       122  SOPE      C318            0.6093099443      -19.7141237279       -3.0121713472  MEMB      122             0.0000000000
     14041       122  SOPE      H18X            0.2819210948      -19.6049916157       -1.9561270826  MEMB      122             0.0000000000
     14042       122  SOPE      H18Y            1.5406326703      -19.1088912908       -3.0377192592  MEMB      122             0.0000000000
     14043       122  SOPE      H18Z            0.8180991454      -20.7889327689       -3.2006200357  MEMB      122             0.0000000000
     14044       123  SOPE      N              14.4374246731       16.6195306638      -23.5347163439  MEMB      123             0.0000000000
     14045       123  SOPE      HN1            15.2438470312       17.2753777860      -23.5685918896  MEMB      123             0.0000000000
     14046       123  SOPE      HN2            14.5479843757       16.0375144776      -24.3894875404  MEMB      123             0.0000000000
     14047       123  SOPE      HN3            13.6169110498       17.2584573388      -23.5461262596  MEMB      123             0.0000000000
     14048       123  SOPE      C12            14.5277900511       15.8083898046      -22.3253828404  MEMB      123             0.0000000000
     14049       123  SOPE      H12A           15.4310142796       15.1739006436      -22.4515992056  MEMB      123             0.0000000000
     14050       123  SOPE      H12B           13.7140000569       15.0520501156      -22.3212232905  MEMB      123             0.0000000000
     14051       123  SOPE      C11            14.7104526463       16.7129564693      -21.0542593071  MEMB      123             0.0000000000
     14052       123  SOPE      H11A           14.5417843548       16.0466510635      -20.1813852402  MEMB      123             0.0000000000
     14053       123  SOPE      H11B           13.9929183318       17.5532910603      -20.9389198896  MEMB      123             0.0000000000
     14054       123  SOPE      P              17.2003745165       16.6621350539      -20.2745637987  MEMB      123             0.0000000000
     14055       123  SOPE      O13            18.5153449678       17.3084389324      -20.5515101777  MEMB      123             0.0000000000
     14056       123  SOPE      O14            17.1917921663       15.2067162833      -20.5922989349  MEMB      123             0.0000000000
     14057       123  SOPE      O12            15.9717842130       17.3543793545      -20.9767780903  MEMB      123             0.0000000000
     14058       123  SOPE      O11            16.8883545793       16.8543695026      -18.6904905446  MEMB      123             0.0000000000
     14059       123  SOPE      C1             16.8718865867       18.2194620530      -18.3612813541  MEMB      123             0.0000000000
     14060       123  SOPE      HA             16.0169639476       18.6875943690      -18.8944609515  MEMB      123             0.0000000000
     14061       123  SOPE      HB             17.7256383691       18.8626218136      -18.6642239574  MEMB      123             0.0000000000
     14062       123  SOPE      C2             16.7242016987       18.4360609277      -16.7607669533  MEMB      123             0.0000000000
     14063       123  SOPE      HS             17.2309765699       19.3797534948      -16.4659029122  MEMB      123             0.0000000000
     14064       123  SOPE      O21            17.3722197212       17.3030466255      -16.1218792414  MEMB      123             0.0000000000
     14065       123  SOPE      C21            17.5842466558       17.2538492438      -14.8184074684  MEMB      123             0.0000000000
     14066       123  SOPE      O22            17.3006050554       18.0714556882      -13.9341604964  MEMB      123             0.0000000000
     14067       123  SOPE      C22            18.2226618362       15.9176409881      -14.3768028046  MEMB      123             0.0000000000
     14068       123  SOPE      H2R            19.1596273353       15.6995959605      -14.9325667763  MEMB      123             0.0000000000
     14069       123  SOPE      H2S            17.5053033562       15.0798060763      -14.5100330204  MEMB      123             0.0000000000
     14070       123  SOPE      C3             15.2475032085       18.5689609517      -16.3136587988  MEMB      123             0.0000000000
     14071       123  SOPE      HX             14.8624504079       19.4879224358      -16.8051515727  MEMB      123             0.0000000000
     14072       123  SOPE      HY             15.3056757830       18.7258281780      -15.2153284461  MEMB      123             0.0000000000
     14073       123  SOPE      O31            14.6245460644       17.3346841484      -16.6819568876  MEMB      123             0.0000000000
     14074       123  SOPE      C31            13.3114314660       17.3595876397      -17.0164345565  MEMB      123             0.0000000000
     14075       123  SOPE      O32            12.6123420432       18.3209585020      -17.1460779823  MEMB      123             0.0000000000
     14076       123  SOPE      C32            12.8108360602       15.9082846631      -17.3418389725  MEMB      123             0.0000000000
     14077       123  SOPE      H2X            13.2367873323       15.6876419680      -18.3439384384  MEMB      123             0.0000000000
     14078       123  SOPE      H2Y            11.7024483946       15.8352257990      -17.3203896661  MEMB      123             0.0000000000
     14079       123  SOPE      C23            18.5843239442       15.8557022898      -12.8536647492  MEMB      123             0.0000000000
     14080       123  SOPE      H3R            17.7080150335       15.7830136598      -12.1746067266  MEMB      123             0.0000000000
     14081       123  SOPE      H3S            19.1333450449       16.8066368195      -12.6844885597  MEMB      123             0.0000000000
     14082       123  SOPE      C24            19.7147942392       14.8328434682      -12.4983382636  MEMB      123             0.0000000000
     14083       123  SOPE      H4R            19.4503998137       13.7790956602      -12.7307864844  MEMB      123             0.0000000000
     14084       123  SOPE      H4S            20.6149754508       15.1082342344      -13.0883851384  MEMB      123             0.0000000000
     14085       123  SOPE      C25            20.0129676800       14.8264652913      -11.0263205030  MEMB      123             0.0000000000
     14086       123  SOPE      H5R            20.2692478228       15.7653263105      -10.4904273184  MEMB      123             0.0000000000
     14087       123  SOPE      H5S            18.9683424137       14.5756451864      -10.7431791578  MEMB      123             0.0000000000
     14088       123  SOPE      C26            20.9748650842       13.7634440025      -10.5635197687  MEMB      123             0.0000000000
     14089       123  SOPE      H6R            20.5657022589       12.8041167898      -10.9464012835  MEMB      123             0.0000000000
     14090       123  SOPE      H6S            22.0106053628       13.9334393454      -10.9277518683  MEMB      123             0.0000000000
     14091       123  SOPE      C27            21.0939692158       13.6081254063       -9.0263622725  MEMB      123             0.0000000000
     14092       123  SOPE      H7R            21.6499012880       12.6462397305       -9.0323832535  MEMB      123             0.0000000000
     14093       123  SOPE      H7S            21.8268215358       14.2360339633       -8.4759271429  MEMB      123             0.0000000000
     14094       123  SOPE      C28            19.8191751644       13.4474701589       -8.0971239624  MEMB      123             0.0000000000
     14095       123  SOPE      H8R            20.1625256917       13.7163677420       -7.0752999869  MEMB      123             0.0000000000
     14096       123  SOPE      H8S            19.0827999890       14.1928143385       -8.4666299966  MEMB      123             0.0000000000
     14097       123  SOPE      C29            19.3395838424       12.0550981853       -7.9696503647  MEMB      123             0.0000000000
     14098       123  SOPE      H91            20.0143344127       11.1950261341       -8.0920737727  MEMB      123             0.0000000000
     14099       123  SOPE      C210           18.0623983773       11.7215488532       -7.7477753908  MEMB      123             0.0000000000
     14100       123  SOPE      H101           17.8136047756       10.6503536471       -7.7224334652  MEMB      123             0.0000000000
     14101       123  SOPE      C211           16.9387178987       12.7392811089       -7.6020567803  MEMB      123             0.0000000000
     14102       123  SOPE      H11R           16.1056925050       12.3376336476       -8.2177429588  MEMB      123             0.0000000000
     14103       123  SOPE      H11S           17.3297395483       13.7212171729       -7.9444384570  MEMB      123             0.0000000000
     14104       123  SOPE      C212           16.4441284807       12.8841141275       -6.1390839717  MEMB      123             0.0000000000
     14105       123  SOPE      H12R           15.8285572042       13.8087841098       -6.1196303584  MEMB      123             0.0000000000
     14106       123  SOPE      H12S           17.2657033798       12.9848226590       -5.3980078285  MEMB      123             0.0000000000
     14107       123  SOPE      C213           15.5556501150       11.6547791373       -5.7198740490  MEMB      123             0.0000000000
     14108       123  SOPE      H13R           16.2400916001       10.8380075719       -5.4056368620  MEMB      123             0.0000000000
     14109       123  SOPE      H13S           15.0068228942       11.3311095190       -6.6300099955  MEMB      123             0.0000000000
     14110       123  SOPE      C214           14.4605686049       11.9964841039       -4.7718815807  MEMB      123             0.0000000000
     14111       123  SOPE      H14R           14.6929452951       12.6397663174       -3.8963753547  MEMB      123             0.0000000000
     14112       123  SOPE      H14S           14.1674254915       11.0746392669       -4.2254480037  MEMB      123             0.0000000000
     14113       123  SOPE      C215           13.1179313059       12.5564732502       -5.4847665248  MEMB      123             0.0000000000
     14114       123  SOPE      H15R           13.0308349114       11.8332233787       -6.3236023925  MEMB      123             0.0000000000
     14115       123  SOPE      H15S           13.4923963879       13.5482586306       -5.8171210075  MEMB      123             0.0000000000
     14116       123  SOPE      C216           11.8757168325       12.6197765569       -4.6243708628  MEMB      123             0.0000000000
     14117       123  SOPE      H16R           11.7616076927       11.6633399442       -4.0707221637  MEMB      123             0.0000000000
     14118       123  SOPE      H16S           11.0591623778       12.5604801083       -5.3753995455  MEMB      123             0.0000000000
     14119       123  SOPE      C217           11.6404834221       13.8254120859       -3.7291158399  MEMB      123             0.0000000000
     14120       123  SOPE      H17R           11.4562578586       14.7200610011       -4.3615600901  MEMB      123             0.0000000000
     14121       123  SOPE      H17S           12.5758126770       14.1424975522       -3.2202564560  MEMB      123             0.0000000000
     14122       123  SOPE      C218           10.5734895858       13.6283007801       -2.6556992673  MEMB      123             0.0000000000
     14123       123  SOPE      H18R           10.6046254577       12.6275772704       -2.1741330667  MEMB      123             0.0000000000
     14124       123  SOPE      H18S            9.5351410358       13.8420271659       -2.9880750033  MEMB      123             0.0000000000
     14125       123  SOPE      H18T           10.7472614845       14.2929604672       -1.7825711468  MEMB      123             0.0000000000
     14126       123  SOPE      C33            13.3656781605       14.8678816401      -16.2430289557  MEMB      123             0.0000000000
     14127       123  SOPE      H3X            14.4761459533       14.8441770633      -16.2679365981  MEMB      123             0.0000000000
     14128       123  SOPE      H3Y            13.0655437284       13.8220530691      -16.4677134063  MEMB      123             0.0000000000
     14129       123  SOPE      C34            12.8485209319       15.2479030384      -14.8485011758  MEMB      123             0.0000000000
     14130       123  SOPE      H4X            11.8591008994       14.7426068232      -14.8418233288  MEMB      123             0.0000000000
     14131       123  SOPE      H4Y            12.6331070510       16.3336836660      -14.7536413657  MEMB      123             0.0000000000
     14132       123  SOPE      C35            13.5672245531       14.6256389927      -13.6919649495  MEMB      123             0.0000000000
     14133       123  SOPE      H5X            14.0382078919       13.7410685122      -14.1715803490  MEMB      123             0.0000000000
     14134       123  SOPE      H5Y            12.9397670745       14.0738680153      -12.9597304992  MEMB      123             0.0000000000
     14135       123  SOPE      C36            14.5224897325       15.5826181945      -13.0922567647  MEMB      123             0.0000000000
     14136       123  SOPE      H6X            15.0551986044       16.0584661355      -13.9432038483  MEMB      123             0.0000000000
     14137       123  SOPE      H6Y            15.3277608660       15.0156594529      -12.5780417810  MEMB      123             0.0000000000
     14138       123  SOPE      C37            13.9662173402       16.6807178396      -12.2854734007  MEMB      123             0.0000000000
     14139       123  SOPE      H7X            13.0710870887       16.4153495860      -11.6832749542  MEMB      123             0.0000000000
     14140       123  SOPE      H7Y            13.6625393432       17.4790596946      -12.9959310317  MEMB      123             0.0000000000
     14141       123  SOPE      C38            15.0234161137       17.2010272615      -11.3288083232  MEMB      123             0.0000000000
     14142       123  SOPE      H8X            16.0060376944       17.2432321528      -11.8455231771  MEMB      123             0.0000000000
     14143       123  SOPE      H8Y            15.2779859379       16.4032016960      -10.5987470598  MEMB      123             0.0000000000
     14144       123  SOPE      C39            14.6437950294       18.4473801726      -10.6038447838  MEMB      123             0.0000000000
     14145       123  SOPE      H9X            13.6074472240       18.3210803425      -10.2239067378  MEMB      123             0.0000000000
     14146       123  SOPE      H9Y            14.6515435405       19.3147599450      -11.2980440366  MEMB      123             0.0000000000
     14147       123  SOPE      C310           15.5004271333       18.7931057934       -9.3537146996  MEMB      123             0.0000000000
     14148       123  SOPE      H10X           15.2131828812       19.6782397881       -8.7467967725  MEMB      123             0.0000000000
     14149       123  SOPE      H10Y           16.5131975749       19.1401491621       -9.6506617413  MEMB      123             0.0000000000
     14150       123  SOPE      C311           15.7753367282       17.7138842294       -8.2593273600  MEMB      123             0.0000000000
     14151       123  SOPE      H11X           16.5706129786       18.1922791443       -7.6485943836  MEMB      123             0.0000000000
     14152       123  SOPE      H11Y           16.2067014010       16.8278476528       -8.7723423775  MEMB      123             0.0000000000
     14153       123  SOPE      C312           14.5389743424       17.3653567755       -7.4034756931  MEMB      123             0.0000000000
     14154       123  SOPE      H12X           13.9849257508       16.5894757074       -7.9738784537  MEMB      123             0.0000000000
     14155       123  SOPE      H12Y           13.8341409629       18.2112320500       -7.2550634376  MEMB      123             0.0000000000
     14156       123  SOPE      C313           14.8835674785       16.6280256449       -6.0496777078  MEMB      123             0.0000000000
     14157       123  SOPE      H13X           15.7177867265       15.9126782013       -6.2130090034  MEMB      123             0.0000000000
     14158       123  SOPE      H13Y           13.9105955861       16.3646879520       -5.5824515460  MEMB      123             0.0000000000
     14159       123  SOPE      C314           15.6299181199       17.5262686256       -4.9584178120  MEMB      123             0.0000000000
     14160       123  SOPE      H14X           15.0616305356       18.3955312415       -4.5637627492  MEMB      123             0.0000000000
     14161       123  SOPE      H14Y           16.5037496207       18.0549868587       -5.3956787603  MEMB      123             0.0000000000
     14162       123  SOPE      C315           16.0331686151       16.6973087181       -3.7614156801  MEMB      123             0.0000000000
     14163       123  SOPE      H15X           16.6697962977       17.2879071675       -3.0684366471  MEMB      123             0.0000000000
     14164       123  SOPE      H15Y           16.7250326285       15.8833982153       -4.0666936250  MEMB      123             0.0000000000
     14165       123  SOPE      C316           14.8436539274       16.0561398273       -2.9799680955  MEMB      123             0.0000000000
     14166       123  SOPE      H16X           15.3163832727       15.3168915470       -2.2985279628  MEMB      123             0.0000000000
     14167       123  SOPE      H16Y           14.1260816477       15.4318549841       -3.5541446157  MEMB      123             0.0000000000
     14168       123  SOPE      C317           14.1882255256       17.0592509933       -2.0470392835  MEMB      123             0.0000000000
     14169       123  SOPE      H17X           13.6181925874       17.7167101677       -2.7377851266  MEMB      123             0.0000000000
     14170       123  SOPE      H17Y           14.9116190586       17.5555947074       -1.3653752937  MEMB      123             0.0000000000
     14171       123  SOPE      C318           13.1318317247       16.3650972663       -1.0923708308  MEMB      123             0.0000000000
     14172       123  SOPE      H18X           12.2547845529       16.0621570943       -1.7033826511  MEMB      123             0.0000000000
     14173       123  SOPE      H18Y           12.6592492493       17.2083201964       -0.5446828009  MEMB      123             0.0000000000
     14174       123  SOPE      H18Z           13.5293337066       15.6230233499       -0.3673613727  MEMB      123             0.0000000000
     14175       124  SAPS      N             -19.6144134055       -6.0084138045      -21.5635423962  MEMB      124             0.0000000000
     14176       124  SAPS      HN1           -18.8050332010       -5.3556776486      -21.5845012193  MEMB      124             0.0000000000
     14177       124  SAPS      HN2           -19.2413405097       -6.8404189269      -22.0637264028  MEMB      124             0.0000000000
     14178       124  SAPS      HN3           -20.3326645119       -5.4049384537      -22.0124664418  MEMB      124             0.0000000000
     14179       124  SAPS      C12           -19.9092137090       -6.3193332703      -20.1194582571  MEMB      124             0.0000000000
     14180       124  SAPS      H12A          -19.2714949999       -7.1147088640      -19.7629578255  MEMB      124             0.0000000000
     14181       124  SAPS      C13           -19.6608586615       -5.0780497981      -19.1729637067  MEMB      124             0.0000000000
     14182       124  SAPS      O13A          -19.3298562582       -3.9837399753      -19.6970605631  MEMB      124             0.0000000000
     14183       124  SAPS      O13B          -19.5897160018       -5.2847085272      -17.9306200332  MEMB      124             0.0000000000
     14184       124  SAPS      C11           -21.3709828551       -6.7270142385      -19.9530002738  MEMB      124             0.0000000000
     14185       124  SAPS      H11A          -22.1081293173       -5.9682007928      -20.2923202738  MEMB      124             0.0000000000
     14186       124  SAPS      H11B          -21.5267207099       -6.8756094493      -18.8630525202  MEMB      124             0.0000000000
     14187       124  SAPS      P             -21.3663384728       -9.3772449368      -20.3563649786  MEMB      124             0.0000000000
     14188       124  SAPS      O13           -22.6808346758      -10.0312275934      -20.1403653480  MEMB      124             0.0000000000
     14189       124  SAPS      O14           -20.4915967435      -10.0061792090      -21.3684726673  MEMB      124             0.0000000000
     14190       124  SAPS      O12           -21.5739522284       -7.9061094205      -20.7473118452  MEMB      124             0.0000000000
     14191       124  SAPS      O11           -20.5444476907       -9.3312340446      -18.9508398973  MEMB      124             0.0000000000
     14192       124  SAPS      C1            -20.4751386123      -10.3527248264      -18.0418498476  MEMB      124             0.0000000000
     14193       124  SAPS      HA            -21.4828217411      -10.8205796749      -18.0445477722  MEMB      124             0.0000000000
     14194       124  SAPS      HB            -19.7082160472      -11.1265038538      -18.2596033585  MEMB      124             0.0000000000
     14195       124  SAPS      C2            -20.2182595663       -9.8543218429      -16.6035146134  MEMB      124             0.0000000000
     14196       124  SAPS      HS            -20.6734869138      -10.5242697652      -15.8430813821  MEMB      124             0.0000000000
     14197       124  SAPS      O21           -20.9443048294       -8.6811680046      -16.3783078046  MEMB      124             0.0000000000
     14198       124  SAPS      C21           -22.2426769973       -8.7143934132      -16.3122109150  MEMB      124             0.0000000000
     14199       124  SAPS      O22           -22.9590986236       -9.6791251549      -16.5315302892  MEMB      124             0.0000000000
     14200       124  SAPS      C22           -22.8450039528       -7.3439747926      -16.1222311338  MEMB      124             0.0000000000
     14201       124  SAPS      H2R           -22.0516973163       -6.6043679685      -15.8814670504  MEMB      124             0.0000000000
     14202       124  SAPS      H2S           -23.3573106631       -7.0191589915      -17.0530144449  MEMB      124             0.0000000000
     14203       124  SAPS      C3            -18.7281402535       -9.5423732267      -16.4736049163  MEMB      124             0.0000000000
     14204       124  SAPS      HX            -18.3876211719       -9.0672105608      -17.4183737550  MEMB      124             0.0000000000
     14205       124  SAPS      HY            -18.1006723986      -10.4302012846      -16.2447666413  MEMB      124             0.0000000000
     14206       124  SAPS      O31           -18.4180944607       -8.4783398666      -15.5009307334  MEMB      124             0.0000000000
     14207       124  SAPS      C31           -18.6474597186       -8.6999721571      -14.1599563877  MEMB      124             0.0000000000
     14208       124  SAPS      O32           -18.9791001202       -9.7930202606      -13.7325466946  MEMB      124             0.0000000000
     14209       124  SAPS      C32           -18.6338304407       -7.3690458616      -13.3432412247  MEMB      124             0.0000000000
     14210       124  SAPS      H2X           -19.3463838203       -6.6369147974      -13.7797875305  MEMB      124             0.0000000000
     14211       124  SAPS      H2Y           -17.6250607920       -6.9256427227      -13.4850099101  MEMB      124             0.0000000000
     14212       124  SAPS      C23           -23.9663460814       -7.1576947981      -14.9871007510  MEMB      124             0.0000000000
     14213       124  SAPS      H3R           -24.8701049381       -7.7966874797      -15.0831718599  MEMB      124             0.0000000000
     14214       124  SAPS      H3S           -24.3137980928       -6.1292697766      -15.2236168505  MEMB      124             0.0000000000
     14215       124  SAPS      C24           -23.4635835561       -7.1843395235      -13.5621638470  MEMB      124             0.0000000000
     14216       124  SAPS      H4R           -22.4112131943       -6.8290280965      -13.5864850453  MEMB      124             0.0000000000
     14217       124  SAPS      H4S           -23.4091020341       -8.2250373629      -13.1770654895  MEMB      124             0.0000000000
     14218       124  SAPS      C25           -24.3677425628       -6.3875226937      -12.6258070358  MEMB      124             0.0000000000
     14219       124  SAPS      H5R           -25.3531176686       -6.8408620845      -12.4427249321  MEMB      124             0.0000000000
     14220       124  SAPS      C26           -24.2254733967       -5.2421947505      -11.9680181601  MEMB      124             0.0000000000
     14221       124  SAPS      H6R           -25.0157348852       -4.8683096016      -11.3004126140  MEMB      124             0.0000000000
     14222       124  SAPS      C27           -22.9770816808       -4.4330284573      -12.0841319429  MEMB      124             0.0000000000
     14223       124  SAPS      H7R           -22.4425416109       -4.5843442398      -13.0462605969  MEMB      124             0.0000000000
     14224       124  SAPS      H7S           -22.2187718733       -4.9444695940      -11.4534859545  MEMB      124             0.0000000000
     14225       124  SAPS      C28           -23.2204679971       -2.9629542021      -11.7526038791  MEMB      124             0.0000000000
     14226       124  SAPS      H8R           -23.9465304437       -2.4219147407      -12.3771922468  MEMB      124             0.0000000000
     14227       124  SAPS      C29           -22.5780715438       -2.2848400376      -10.8228084585  MEMB      124             0.0000000000
     14228       124  SAPS      H9R           -22.8132123630       -1.2103940762      -10.8062357798  MEMB      124             0.0000000000
     14229       124  SAPS      C210          -21.5794514805       -2.7664948743       -9.9045466519  MEMB      124             0.0000000000
     14230       124  SAPS      H10R          -20.6203514341       -2.4631964386      -10.3762008419  MEMB      124             0.0000000000
     14231       124  SAPS      H10S          -21.4450132529       -3.8689757961       -9.8765651747  MEMB      124             0.0000000000
     14232       124  SAPS      C211          -21.7321275848       -2.2062502201       -8.4948397753  MEMB      124             0.0000000000
     14233       124  SAPS      H11R          -21.8506026463       -1.1143665225       -8.4335685440  MEMB      124             0.0000000000
     14234       124  SAPS      C212          -21.6841770406       -2.9647803462       -7.3237090474  MEMB      124             0.0000000000
     14235       124  SAPS      H12R          -21.7431726788       -2.5774713113       -6.2958424541  MEMB      124             0.0000000000
     14236       124  SAPS      C213          -21.4309427111       -4.4860644666       -7.2142659637  MEMB      124             0.0000000000
     14237       124  SAPS      H13R          -21.2678322849       -4.6787638530       -6.1323314908  MEMB      124             0.0000000000
     14238       124  SAPS      H13S          -20.5408858945       -4.8178116091       -7.7905155405  MEMB      124             0.0000000000
     14239       124  SAPS      C214          -22.6468034237       -5.2425295418       -7.6321201961  MEMB      124             0.0000000000
     14240       124  SAPS      H14R          -23.1166539806       -4.8053801553       -8.5255069313  MEMB      124             0.0000000000
     14241       124  SAPS      C215          -23.2850164754       -6.3820356022       -7.1824894455  MEMB      124             0.0000000000
     14242       124  SAPS      H15R          -24.1115449305       -6.7541054222       -7.8057188897  MEMB      124             0.0000000000
     14243       124  SAPS      C216          -22.7710730667       -7.2152668284       -6.0300828203  MEMB      124             0.0000000000
     14244       124  SAPS      H16R          -21.9172622514       -6.6879308687       -5.5533815964  MEMB      124             0.0000000000
     14245       124  SAPS      H16S          -22.3816460478       -8.1741854619       -6.4339916381  MEMB      124             0.0000000000
     14246       124  SAPS      C217          -23.8551330967       -7.6958247241       -4.9751501679  MEMB      124             0.0000000000
     14247       124  SAPS      H17R          -24.7143454116       -8.2222616273       -5.4430594085  MEMB      124             0.0000000000
     14248       124  SAPS      H17S          -24.3347484151       -6.7853453433       -4.5564400794  MEMB      124             0.0000000000
     14249       124  SAPS      C218          -23.3059909781       -8.5640745958       -3.8212819343  MEMB      124             0.0000000000
     14250       124  SAPS      H18R          -23.1215810241       -9.5773692617       -4.2378727567  MEMB      124             0.0000000000
     14251       124  SAPS      H18S          -24.0281176588       -8.6888500263       -2.9862453366  MEMB      124             0.0000000000
     14252       124  SAPS      C219          -21.9650910320       -8.0642185742       -3.2576056166  MEMB      124             0.0000000000
     14253       124  SAPS      H19R          -21.2227084279       -7.8452493918       -4.0546264525  MEMB      124             0.0000000000
     14254       124  SAPS      H19S          -21.6346759822       -8.9520404094       -2.6771579050  MEMB      124             0.0000000000
     14255       124  SAPS      C220          -22.0502856559       -6.9091219292       -2.2678251344  MEMB      124             0.0000000000
     14256       124  SAPS      H20R          -21.1528100116       -6.2940209685       -2.4925683345  MEMB      124             0.0000000000
     14257       124  SAPS      H20S          -22.1145180366       -7.3338998049       -1.2432484885  MEMB      124             0.0000000000
     14258       124  SAPS      H20T          -22.9002034271       -6.2831373394       -2.6143849276  MEMB      124             0.0000000000
     14259       124  SAPS      C33           -18.9132152951       -7.7114870206      -11.8027169180  MEMB      124             0.0000000000
     14260       124  SAPS      H3X           -18.3847869328       -8.6213236545      -11.4459511584  MEMB      124             0.0000000000
     14261       124  SAPS      H3Y           -20.0028850245       -7.9163550680      -11.7322186593  MEMB      124             0.0000000000
     14262       124  SAPS      C34           -18.7089797903       -6.5039565222      -10.9088515156  MEMB      124             0.0000000000
     14263       124  SAPS      H4X           -19.3203084681       -5.6430645796      -11.2544859730  MEMB      124             0.0000000000
     14264       124  SAPS      H4Y           -17.7152567230       -6.0336956294      -11.0691322035  MEMB      124             0.0000000000
     14265       124  SAPS      C35           -18.8608941750       -6.6869687597       -9.3706000981  MEMB      124             0.0000000000
     14266       124  SAPS      H5X           -19.8897991222       -7.0580869792       -9.1758004493  MEMB      124             0.0000000000
     14267       124  SAPS      H5Y           -18.7914504375       -5.6920010743       -8.8811744043  MEMB      124             0.0000000000
     14268       124  SAPS      C36           -17.8053138622       -7.6394624879       -8.7156256745  MEMB      124             0.0000000000
     14269       124  SAPS      H6X           -16.8156331529       -7.4977674685       -9.2001624623  MEMB      124             0.0000000000
     14270       124  SAPS      H6Y           -18.2689956527       -8.5554965613       -9.1401281306  MEMB      124             0.0000000000
     14271       124  SAPS      C37           -18.0592301088       -7.6759831949       -7.2720343753  MEMB      124             0.0000000000
     14272       124  SAPS      H7X           -17.9188053229       -8.7221092037       -6.9253030570  MEMB      124             0.0000000000
     14273       124  SAPS      H7Y           -19.0995749115       -7.4663180175       -6.9433335266  MEMB      124             0.0000000000
     14274       124  SAPS      C38           -17.1747066365       -6.6462038565       -6.5600661533  MEMB      124             0.0000000000
     14275       124  SAPS      H8X           -17.5775641125       -5.6108517960       -6.5685864834  MEMB      124             0.0000000000
     14276       124  SAPS      H8Y           -16.2436465804       -6.6305013183       -7.1660383184  MEMB      124             0.0000000000
     14277       124  SAPS      C39           -16.6436372232       -6.8086577178       -5.0903304227  MEMB      124             0.0000000000
     14278       124  SAPS      H9X           -16.2342333599       -5.8938112012       -4.6109924759  MEMB      124             0.0000000000
     14279       124  SAPS      H9Y           -15.8092613216       -7.5389764540       -5.1594118782  MEMB      124             0.0000000000
     14280       124  SAPS      C310          -17.7822531355       -7.3362482570       -4.1672769230  MEMB      124             0.0000000000
     14281       124  SAPS      H10X          -17.6324137816       -8.4288778104       -4.0330018415  MEMB      124             0.0000000000
     14282       124  SAPS      H10Y          -18.7769918441       -7.2058743012       -4.6445797349  MEMB      124             0.0000000000
     14283       124  SAPS      C311          -17.7817887337       -6.7065220658       -2.7418441451  MEMB      124             0.0000000000
     14284       124  SAPS      H11X          -18.0031632378       -5.6193844175       -2.6831398212  MEMB      124             0.0000000000
     14285       124  SAPS      H11Y          -16.7002084149       -6.7112235628       -2.4879079755  MEMB      124             0.0000000000
     14286       124  SAPS      C312          -18.5589907304       -7.4739271714       -1.6734847394  MEMB      124             0.0000000000
     14287       124  SAPS      H12X          -19.0353829032       -8.3841862483       -2.0963328159  MEMB      124             0.0000000000
     14288       124  SAPS      H12Y          -19.2451366285       -6.7199677286       -1.2318174602  MEMB      124             0.0000000000
     14289       124  SAPS      C313          -17.6724088574       -7.9791443429       -0.4664629559  MEMB      124             0.0000000000
     14290       124  SAPS      H13X          -16.7023159667       -8.2462778296       -0.9375053393  MEMB      124             0.0000000000
     14291       124  SAPS      H13Y          -18.0845349992       -8.9066509783       -0.0145725073  MEMB      124             0.0000000000
     14292       124  SAPS      C314          -17.4127189823       -6.8437899466        0.4859908419  MEMB      124             0.0000000000
     14293       124  SAPS      H14X          -17.6812282953       -5.8309635751        0.1166582812  MEMB      124             0.0000000000
     14294       124  SAPS      H14Y          -16.3082428609       -6.8276223511        0.6051218477  MEMB      124             0.0000000000
     14295       124  SAPS      C315          -18.0750814922       -6.9232617226        1.8606157721  MEMB      124             0.0000000000
     14296       124  SAPS      H15X          -17.6636038624       -6.0421396523        2.3978591664  MEMB      124             0.0000000000
     14297       124  SAPS      H15Y          -17.6512710537       -7.8253665887        2.3514447321  MEMB      124             0.0000000000
     14298       124  SAPS      C316          -19.6111699645       -6.9053896878        1.9488026248  MEMB      124             0.0000000000
     14299       124  SAPS      H16X          -19.7478855282       -7.2749423476        2.9875804087  MEMB      124             0.0000000000
     14300       124  SAPS      H16Y          -20.0588173463       -7.6361193633        1.2417197598  MEMB      124             0.0000000000
     14301       124  SAPS      C317          -20.2773871399       -5.5401302937        1.6433510771  MEMB      124             0.0000000000
     14302       124  SAPS      H17X          -19.8721959203       -5.3391319745        0.6285885123  MEMB      124             0.0000000000
     14303       124  SAPS      H17Y          -19.9695001364       -4.7518206827        2.3631382792  MEMB      124             0.0000000000
     14304       124  SAPS      C318          -21.7874809329       -5.5350052982        1.5648435202  MEMB      124             0.0000000000
     14305       124  SAPS      H18X          -22.2561444782       -5.5376301666        2.5721512460  MEMB      124             0.0000000000
     14306       124  SAPS      H18Y          -22.1987300803       -6.4062382316        1.0115375467  MEMB      124             0.0000000000
     14307       124  SAPS      H18Z          -21.9959765961       -4.5848360660        1.0281613069  MEMB      124             0.0000000000
     14308       125  OSM       N             -22.8404090359        2.4413261592      -21.8949336014  MEMB      125             0.0000000000
     14309       125  OSM       C15           -21.3597167464        2.3030201539      -21.9156268578  MEMB      125             0.0000000000
     14310       125  OSM       H15A          -20.9929839035        2.3165456525      -22.9313651199  MEMB      125             0.0000000000
     14311       125  OSM       H15B          -21.1688360056        1.3680005697      -21.4099559958  MEMB      125             0.0000000000
     14312       125  OSM       H15C          -20.9452922430        3.0017840865      -21.2040224102  MEMB      125             0.0000000000
     14313       125  OSM       C14           -23.1723912831        3.9094826673      -21.9692412053  MEMB      125             0.0000000000
     14314       125  OSM       H14A          -22.7984468533        4.3313694200      -22.8904235147  MEMB      125             0.0000000000
     14315       125  OSM       H14B          -22.9294406551        4.4054821705      -21.0411466834  MEMB      125             0.0000000000
     14316       125  OSM       H14C          -24.2467131319        3.9667948613      -22.0638340418  MEMB      125             0.0000000000
     14317       125  OSM       C13           -23.3173770533        1.7070287045      -23.1739063692  MEMB      125             0.0000000000
     14318       125  OSM       H13A          -24.3886632944        1.6685318091      -23.0425147679  MEMB      125             0.0000000000
     14319       125  OSM       H13B          -22.8789384100        0.7210551497      -23.2189354156  MEMB      125             0.0000000000
     14320       125  OSM       H13C          -22.9707929593        2.0765845915      -24.1276926267  MEMB      125             0.0000000000
     14321       125  OSM       C12           -23.4757218073        1.9559290460      -20.6153315404  MEMB      125             0.0000000000
     14322       125  OSM       H12A          -24.4414712493        2.4277213108      -20.5097861768  MEMB      125             0.0000000000
     14323       125  OSM       H12B          -22.8559297559        2.2414551559      -19.7782337923  MEMB      125             0.0000000000
     14324       125  OSM       C11           -23.6414090855        0.3796691036      -20.5384065265  MEMB      125             0.0000000000
     14325       125  OSM       H11A          -24.3803199519        0.0288414589      -21.2902387324  MEMB      125             0.0000000000
     14326       125  OSM       H11B          -24.1166276237        0.1981506243      -19.5507125931  MEMB      125             0.0000000000
     14327       125  OSM       P             -22.4520557382       -1.8539885164      -20.1998743618  MEMB      125             0.0000000000
     14328       125  OSM       O13           -23.8124845822       -2.3589780897      -20.5492728937  MEMB      125             0.0000000000
     14329       125  OSM       O14           -21.3119496385       -2.5119679438      -20.8611781421  MEMB      125             0.0000000000
     14330       125  OSM       O11           -22.2058818485       -1.7194788929      -18.5933562604  MEMB      125             0.0000000000
     14331       125  OSM       O12           -22.4551946819       -0.3334025387      -20.6888722466  MEMB      125             0.0000000000
     14332       125  OSM       C1S           -23.2797787304       -2.0791660543      -17.7466911494  MEMB      125             0.0000000000
     14333       125  OSM       H1S           -23.3230151533       -3.1853216692      -17.8408794735  MEMB      125             0.0000000000
     14334       125  OSM       H1T           -24.2431984023       -1.6563830511      -18.1036196804  MEMB      125             0.0000000000
     14335       125  OSM       NF            -23.6030623168       -2.3623388834      -15.3326094749  MEMB      125             0.0000000000
     14336       125  OSM       HNF           -24.2561488884       -1.8563694045      -14.7745041445  MEMB      125             0.0000000000
     14337       125  OSM       C2S           -22.9365961104       -1.5973435131      -16.3212566383  MEMB      125             0.0000000000
     14338       125  OSM       H2S           -21.8510749332       -1.7630346598      -16.1524037303  MEMB      125             0.0000000000
     14339       125  OSM       C3S           -23.2429984332       -0.0770902842      -16.1468884674  MEMB      125             0.0000000000
     14340       125  OSM       H3S           -24.3477189489        0.0408303792      -16.1440224767  MEMB      125             0.0000000000
     14341       125  OSM       O3            -22.7544804485        0.8237452256      -17.1213974490  MEMB      125             0.0000000000
     14342       125  OSM       HO3           -22.2888755809        0.2525966823      -17.7367032751  MEMB      125             0.0000000000
     14343       125  OSM       C4S           -22.6881503945        0.3366629811      -14.7718052693  MEMB      125             0.0000000000
     14344       125  OSM       H4S           -21.5950086712        0.4536563263      -14.7350134613  MEMB      125             0.0000000000
     14345       125  OSM       C5S           -23.3230900419        0.8459066098      -13.7221852683  MEMB      125             0.0000000000
     14346       125  OSM       H5S           -24.4228812772        0.8519315798      -13.7427589460  MEMB      125             0.0000000000
     14347       125  OSM       C6S           -22.7222092942        1.2878134236      -12.3160608197  MEMB      125             0.0000000000
     14348       125  OSM       H6S           -23.2158102851        0.5869572660      -11.6093222348  MEMB      125             0.0000000000
     14349       125  OSM       H6T           -23.0656859900        2.2957546744      -11.9992026295  MEMB      125             0.0000000000
     14350       125  OSM       C7S           -21.1858630787        1.2115481425      -12.2883676082  MEMB      125             0.0000000000
     14351       125  OSM       H7S           -20.6478027521        1.9738608143      -12.8914354709  MEMB      125             0.0000000000
     14352       125  OSM       H7T           -20.7684586083        0.2656750896      -12.6950840387  MEMB      125             0.0000000000
     14353       125  OSM       C8S           -20.5664274536        1.2624615536      -10.8208356311  MEMB      125             0.0000000000
     14354       125  OSM       H8S           -20.7763757806        2.2537866088      -10.3652950945  MEMB      125             0.0000000000
     14355       125  OSM       H8T           -19.4680970105        1.2457985163      -10.9873092599  MEMB      125             0.0000000000
     14356       125  OSM       C9S           -20.9547624011        0.2785696971       -9.7282172768  MEMB      125             0.0000000000
     14357       125  OSM       H9S           -20.7622266947       -0.7341606395      -10.1424973961  MEMB      125             0.0000000000
     14358       125  OSM       H9T           -21.9992125828        0.3593272238       -9.3581860568  MEMB      125             0.0000000000
     14359       125  OSM       C10S          -20.1228200676        0.4442660317       -8.4250376910  MEMB      125             0.0000000000
     14360       125  OSM       H10S          -20.3211880385        1.4824569523       -8.0827939190  MEMB      125             0.0000000000
     14361       125  OSM       H10T          -19.0305192519        0.3395781865       -8.5989358420  MEMB      125             0.0000000000
     14362       125  OSM       C11S          -20.5851294453       -0.3804896594       -7.2608180154  MEMB      125             0.0000000000
     14363       125  OSM       H11S          -20.2215437754       -1.3877891263       -7.5565782485  MEMB      125             0.0000000000
     14364       125  OSM       H11T          -21.6834933245       -0.4068053019       -7.0958170485  MEMB      125             0.0000000000
     14365       125  OSM       C12S          -19.9149462423        0.0589531589       -6.0061518774  MEMB      125             0.0000000000
     14366       125  OSM       H12S          -20.4538677403        0.9160400025       -5.5486730928  MEMB      125             0.0000000000
     14367       125  OSM       H12T          -18.8629592171        0.3717172086       -6.1788442236  MEMB      125             0.0000000000
     14368       125  OSM       C13S          -19.8668407034       -1.0663486919       -4.8443337976  MEMB      125             0.0000000000
     14369       125  OSM       H13S          -19.6035618472       -2.0373986258       -5.3155749773  MEMB      125             0.0000000000
     14370       125  OSM       H13T          -20.9328638074       -1.0677991096       -4.5314225212  MEMB      125             0.0000000000
     14371       125  OSM       C14S          -18.8925638833       -0.6862049269       -3.7274924591  MEMB      125             0.0000000000
     14372       125  OSM       H14S          -18.7270363196        0.4021956530       -3.8768445214  MEMB      125             0.0000000000
     14373       125  OSM       H14T          -17.9574401048       -1.2391973870       -3.9600085977  MEMB      125             0.0000000000
     14374       125  OSM       C15S          -19.3835185549       -1.0171596989       -2.3599410894  MEMB      125             0.0000000000
     14375       125  OSM       H15S          -19.2955109718       -2.0916726106       -2.0916171305  MEMB      125             0.0000000000
     14376       125  OSM       H15T          -20.3657504499       -0.5520663418       -2.1292244377  MEMB      125             0.0000000000
     14377       125  OSM       C16S          -18.4513362693       -0.2950168976       -1.1817276460  MEMB      125             0.0000000000
     14378       125  OSM       H16S          -18.6548161327        0.7920803177       -1.0761993818  MEMB      125             0.0000000000
     14379       125  OSM       H16T          -17.3959635193       -0.4666551225       -1.4834731344  MEMB      125             0.0000000000
     14380       125  OSM       C17S          -18.6343519688       -0.7785553754        0.2689539599  MEMB      125             0.0000000000
     14381       125  OSM       H17S          -18.5304507195       -1.8769176791        0.3998198414  MEMB      125             0.0000000000
     14382       125  OSM       H17T          -19.7066385566       -0.4905959046        0.3089814208  MEMB      125             0.0000000000
     14383       125  OSM       C18S          -17.8981162493       -0.0044199448        1.3031181587  MEMB      125             0.0000000000
     14384       125  OSM       H18S          -16.8040024083        0.1550736454        1.1944992493  MEMB      125             0.0000000000
     14385       125  OSM       H18T          -17.9889383459       -0.6005168585        2.2362521795  MEMB      125             0.0000000000
     14386       125  OSM       H18U          -18.5206426705        0.8914215861        1.5134738637  MEMB      125             0.0000000000
     14387       125  OSM       C1F           -23.3866641473       -3.6334202806      -15.0096079254  MEMB      125             0.0000000000
     14388       125  OSM       OF            -22.7565129762       -4.4471580694      -15.6713068444  MEMB      125             0.0000000000
     14389       125  OSM       C2F           -24.1867260814       -4.2593013250      -13.9462761847  MEMB      125             0.0000000000
     14390       125  OSM       H2F           -24.8406053647       -5.1080822523      -14.2401012303  MEMB      125             0.0000000000
     14391       125  OSM       H2G           -24.6781460278       -3.3509166182      -13.5368070226  MEMB      125             0.0000000000
     14392       125  OSM       C3F           -23.1574357595       -4.8996279454      -12.9262729361  MEMB      125             0.0000000000
     14393       125  OSM       H3F           -22.5929575146       -5.7308548636      -13.4003482760  MEMB      125             0.0000000000
     14394       125  OSM       H3G           -23.7188974053       -5.3283653822      -12.0687970478  MEMB      125             0.0000000000
     14395       125  OSM       C4F           -22.1658052206       -3.8766180684      -12.3842478357  MEMB      125             0.0000000000
     14396       125  OSM       H4F           -21.5452434891       -3.4264985485      -13.1883722385  MEMB      125             0.0000000000
     14397       125  OSM       H4G           -21.4916726413       -4.4026032652      -11.6748778538  MEMB      125             0.0000000000
     14398       125  OSM       C5F           -22.7448503006       -2.7087250577      -11.4814899740  MEMB      125             0.0000000000
     14399       125  OSM       H5F           -23.6575667628       -2.3121699418      -11.9754676312  MEMB      125             0.0000000000
     14400       125  OSM       H5G           -21.9362426754       -1.9502576278      -11.5536148610  MEMB      125             0.0000000000
     14401       125  OSM       C6F           -23.1232699552       -3.1114443970      -10.0260204530  MEMB      125             0.0000000000
     14402       125  OSM       H6F           -22.1231933424       -3.2275587890       -9.5562488737  MEMB      125             0.0000000000
     14403       125  OSM       H6G           -23.5357994651       -4.1422954677      -10.0645674857  MEMB      125             0.0000000000
     14404       125  OSM       C7F           -23.8795044546       -2.1041910404       -9.1774745877  MEMB      125             0.0000000000
     14405       125  OSM       H7F           -23.3274499249       -1.1679941907       -8.9470576470  MEMB      125             0.0000000000
     14406       125  OSM       H7G           -23.7161402189       -2.4327692332       -8.1288230288  MEMB      125             0.0000000000
     14407       125  OSM       C8F           -25.3154866733       -1.8268588100       -9.5043488107  MEMB      125             0.0000000000
     14408       125  OSM       H8F           -25.8042446474       -1.5379430778       -8.5493806232  MEMB      125             0.0000000000
     14409       125  OSM       H8G           -25.7972551455       -2.7812435160       -9.8066231819  MEMB      125             0.0000000000
     14410       125  OSM       C9F           -25.5508567243       -0.8747472784      -10.7190449665  MEMB      125             0.0000000000
     14411       125  OSM       H9F           -25.6347795394       -1.4025696529      -11.6804821703  MEMB      125             0.0000000000
     14412       125  OSM       C10F          -25.7673209486        0.5009297429      -10.6674944481  MEMB      125             0.0000000000
     14413       125  OSM       H10F          -25.9108195048        1.0249631054      -11.6239455321  MEMB      125             0.0000000000
     14414       125  OSM       C11F          -25.8102233027        1.2894739110       -9.3797464974  MEMB      125             0.0000000000
     14415       125  OSM       H11F          -25.7631493108        2.3912832517       -9.5143630123  MEMB      125             0.0000000000
     14416       125  OSM       H11G          -24.9799786925        0.8940052653       -8.7563529645  MEMB      125             0.0000000000
     14417       125  OSM       C12F          -27.2126619346        1.1196101764       -8.6793285323  MEMB      125             0.0000000000
     14418       125  OSM       H12F          -27.4787529014        0.0416779798       -8.6395928578  MEMB      125             0.0000000000
     14419       125  OSM       H12G          -27.9849857203        1.7058095129       -9.2217365278  MEMB      125             0.0000000000
     14420       125  OSM       C13F          -27.1469640331        1.5909941874       -7.1811335412  MEMB      125             0.0000000000
     14421       125  OSM       H13F          -28.1010139585        1.9756698445       -6.7614498442  MEMB      125             0.0000000000
     14422       125  OSM       H13G          -26.4456137779        2.4517378265       -7.1417744266  MEMB      125             0.0000000000
     14423       125  OSM       C14F          -26.6053736939        0.5016068832       -6.2192907116  MEMB      125             0.0000000000
     14424       125  OSM       H14F          -25.5798765479        0.1944739202       -6.5165217155  MEMB      125             0.0000000000
     14425       125  OSM       H14G          -27.3022199503       -0.3636721185       -6.2150008847  MEMB      125             0.0000000000
     14426       125  OSM       C15F          -26.6300458917        0.8714419265       -4.7397342381  MEMB      125             0.0000000000
     14427       125  OSM       H15F          -26.4797467736       -0.0699200597       -4.1691470117  MEMB      125             0.0000000000
     14428       125  OSM       H15G          -27.4799432025        1.5220875658       -4.4419832557  MEMB      125             0.0000000000
     14429       125  OSM       C16F          -25.4118034961        1.7558790116       -4.3262839424  MEMB      125             0.0000000000
     14430       125  OSM       H16F          -25.6723176276        2.6112850582       -3.6669413313  MEMB      125             0.0000000000
     14431       125  OSM       H16G          -24.9885925828        2.1738731920       -5.2646315157  MEMB      125             0.0000000000
     14432       125  OSM       C17F          -24.2790544845        1.0455856690       -3.5490597192  MEMB      125             0.0000000000
     14433       125  OSM       H17F          -23.3107029938        1.4656480940       -3.8957072828  MEMB      125             0.0000000000
     14434       125  OSM       H17G          -24.2565684409       -0.0269514800       -3.8379882536  MEMB      125             0.0000000000
     14435       125  OSM       C18F          -24.4441881305        1.2146186913       -2.0097381244  MEMB      125             0.0000000000
     14436       125  OSM       H18F          -25.4365246509        0.9183569842       -1.6074718683  MEMB      125             0.0000000000
     14437       125  OSM       H18G          -24.3896625788        2.3105091299       -1.8354625002  MEMB      125             0.0000000000
     14438       125  OSM       H18H          -23.6064916194        0.6600603523       -1.5353434189  MEMB      125             0.0000000000
     14439       126  SAPC      N             -18.1706480830      -15.8423912255      -22.0141967824  MEMB      126             0.0000000000
     14440       126  SAPC      C12           -18.8660890048      -16.2662604711      -20.7349364290  MEMB      126             0.0000000000
     14441       126  SAPC      H12A          -18.3119068726      -16.8944629477      -20.0532884554  MEMB      126             0.0000000000
     14442       126  SAPC      H12B          -19.6873228780      -16.8697074738      -21.0924648063  MEMB      126             0.0000000000
     14443       126  SAPC      C13           -18.1270848470      -17.1241079659      -22.7879743031  MEMB      126             0.0000000000
     14444       126  SAPC      H13A          -17.6177871393      -16.8466355901      -23.6990314715  MEMB      126             0.0000000000
     14445       126  SAPC      H13B          -17.6139821166      -17.8199732273      -22.1407518042  MEMB      126             0.0000000000
     14446       126  SAPC      H13C          -19.1065367554      -17.5713254709      -22.8720593383  MEMB      126             0.0000000000
     14447       126  SAPC      C14           -19.0360653846      -14.8885017770      -22.7944592115  MEMB      126             0.0000000000
     14448       126  SAPC      H14A          -18.3260372022      -14.4976859674      -23.5082679544  MEMB      126             0.0000000000
     14449       126  SAPC      H14B          -19.7778893490      -15.5648017843      -23.1928503927  MEMB      126             0.0000000000
     14450       126  SAPC      H14C          -19.3296288668      -14.0897336457      -22.1294855458  MEMB      126             0.0000000000
     14451       126  SAPC      C15           -16.7826459187      -15.2891928644      -21.7772642203  MEMB      126             0.0000000000
     14452       126  SAPC      H15A          -16.2238629268      -15.3163332800      -22.7010743510  MEMB      126             0.0000000000
     14453       126  SAPC      H15B          -16.8337421269      -14.2990776444      -21.3489407854  MEMB      126             0.0000000000
     14454       126  SAPC      H15C          -16.2786987992      -15.9877481476      -21.1257600793  MEMB      126             0.0000000000
     14455       126  SAPC      C11           -19.5061830254      -15.2431647771      -19.8197992062  MEMB      126             0.0000000000
     14456       126  SAPC      H11A          -19.9622069443      -15.7612362433      -18.9491873215  MEMB      126             0.0000000000
     14457       126  SAPC      H11B          -20.3578185787      -14.8951301122      -20.4426232281  MEMB      126             0.0000000000
     14458       126  SAPC      P             -18.0265228159      -13.9862531689      -17.9895327370  MEMB      126             0.0000000000
     14459       126  SAPC      O13           -17.8281594847      -15.3344991132      -17.4429772683  MEMB      126             0.0000000000
     14460       126  SAPC      O14           -16.8931332612      -13.0206781510      -17.9597853575  MEMB      126             0.0000000000
     14461       126  SAPC      O12           -18.6253407496      -14.1688658157      -19.4621437664  MEMB      126             0.0000000000
     14462       126  SAPC      O11           -19.3039196808      -13.3830375994      -17.2169307205  MEMB      126             0.0000000000
     14463       126  SAPC      C1            -19.9319804686      -12.2580173783      -17.7351302606  MEMB      126             0.0000000000
     14464       126  SAPC      HA            -19.3408938406      -11.3191156678      -17.6768102635  MEMB      126             0.0000000000
     14465       126  SAPC      HB            -20.3355472377      -12.5012280210      -18.7412632919  MEMB      126             0.0000000000
     14466       126  SAPC      C2            -21.1335773593      -11.8640435017      -16.7928343436  MEMB      126             0.0000000000
     14467       126  SAPC      HS            -21.6280766832      -11.0470425453      -17.3605497222  MEMB      126             0.0000000000
     14468       126  SAPC      O21           -20.7624363747      -11.6148904577      -15.4269723770  MEMB      126             0.0000000000
     14469       126  SAPC      C21           -21.5810192871      -10.9142254990      -14.6468867396  MEMB      126             0.0000000000
     14470       126  SAPC      O22           -22.5958203376      -10.2558965974      -15.0123161751  MEMB      126             0.0000000000
     14471       126  SAPC      C22           -21.0775781367      -11.0301923780      -13.1822621622  MEMB      126             0.0000000000
     14472       126  SAPC      H2R           -21.1794318920      -12.0895318162      -12.8632845250  MEMB      126             0.0000000000
     14473       126  SAPC      H2S           -19.9989316165      -10.7866734183      -13.2896921683  MEMB      126             0.0000000000
     14474       126  SAPC      C3            -22.1930187595      -12.9781363118      -16.8261903866  MEMB      126             0.0000000000
     14475       126  SAPC      HX            -22.3798731810      -13.3276279498      -17.8641027376  MEMB      126             0.0000000000
     14476       126  SAPC      HY            -23.1931950367      -12.7374306701      -16.4066326627  MEMB      126             0.0000000000
     14477       126  SAPC      O31           -21.7613452467      -14.0604387013      -16.0774049995  MEMB      126             0.0000000000
     14478       126  SAPC      C31           -22.3378605211      -15.2380546238      -16.3589243311  MEMB      126             0.0000000000
     14479       126  SAPC      O32           -23.3385966056      -15.3545872449      -17.0244162294  MEMB      126             0.0000000000
     14480       126  SAPC      C32           -21.4916070886      -16.4377999702      -15.8903205428  MEMB      126             0.0000000000
     14481       126  SAPC      H2X           -20.8103608353      -16.6789124248      -16.7341741514  MEMB      126             0.0000000000
     14482       126  SAPC      H2Y           -22.1520689461      -17.2895727245      -15.6208866220  MEMB      126             0.0000000000
     14483       126  SAPC      C23           -21.7469627149      -10.1012047688      -12.1391128079  MEMB      126             0.0000000000
     14484       126  SAPC      H3R           -22.7460495851      -10.5736455606      -12.0253314485  MEMB      126             0.0000000000
     14485       126  SAPC      H3S           -21.8404336862       -9.0317080778      -12.4250530386  MEMB      126             0.0000000000
     14486       126  SAPC      C24           -21.0982169677      -10.0755263073      -10.7568867386  MEMB      126             0.0000000000
     14487       126  SAPC      H4R           -21.5418671378       -9.2945380253      -10.1030118858  MEMB      126             0.0000000000
     14488       126  SAPC      H4S           -20.0820048805       -9.6773791967      -10.9645242927  MEMB      126             0.0000000000
     14489       126  SAPC      C25           -20.9807110426      -11.3365905937       -9.9582380624  MEMB      126             0.0000000000
     14490       126  SAPC      H5R           -20.3048551219      -12.1077462997      -10.3564051281  MEMB      126             0.0000000000
     14491       126  SAPC      C26           -21.6296996251      -11.6249731080       -8.7678161175  MEMB      126             0.0000000000
     14492       126  SAPC      H6R           -21.4240587859      -12.5532354005       -8.2146061693  MEMB      126             0.0000000000
     14493       126  SAPC      C27           -22.6117767321      -10.7843152845       -7.9174858678  MEMB      126             0.0000000000
     14494       126  SAPC      H7R           -22.3277827823       -9.7274675626       -8.1091653099  MEMB      126             0.0000000000
     14495       126  SAPC      H7S           -22.4869593051      -10.9926710685       -6.8333594452  MEMB      126             0.0000000000
     14496       126  SAPC      C28           -23.9690523902      -10.8780276587       -8.4826134135  MEMB      126             0.0000000000
     14497       126  SAPC      H8R           -24.3294861694      -10.0623344030       -9.1266098336  MEMB      126             0.0000000000
     14498       126  SAPC      C29           -24.7045823879      -12.0122858782       -8.5791714923  MEMB      126             0.0000000000
     14499       126  SAPC      H9R           -25.7613371081      -12.0066454588       -8.8845204832  MEMB      126             0.0000000000
     14500       126  SAPC      C210          -24.2644166127      -13.3571764865       -8.0734921656  MEMB      126             0.0000000000
     14501       126  SAPC      H10R          -23.2573813583      -13.6296411270       -8.4555444092  MEMB      126             0.0000000000
     14502       126  SAPC      H10S          -24.9620287189      -14.1027101447       -8.5114849135  MEMB      126             0.0000000000
     14503       126  SAPC      C211          -24.3602373265      -13.5531870593       -6.5897463721  MEMB      126             0.0000000000
     14504       126  SAPC      H11R          -24.7435261189      -12.7224622098       -5.9790212498  MEMB      126             0.0000000000
     14505       126  SAPC      C212          -23.9577456253      -14.6492063242       -6.0148002020  MEMB      126             0.0000000000
     14506       126  SAPC      H12R          -23.9135850734      -14.8451224679       -4.9332888022  MEMB      126             0.0000000000
     14507       126  SAPC      C213          -23.3602470043      -15.8208075093       -6.7243607550  MEMB      126             0.0000000000
     14508       126  SAPC      H13R          -23.6790996188      -15.8412554973       -7.7884270425  MEMB      126             0.0000000000
     14509       126  SAPC      H13S          -23.7811254920      -16.7329966468       -6.2499203949  MEMB      126             0.0000000000
     14510       126  SAPC      C214          -21.8695247012      -15.7932176409       -6.7324385974  MEMB      126             0.0000000000
     14511       126  SAPC      H14R          -21.4474342171      -15.2100794887       -7.5641768541  MEMB      126             0.0000000000
     14512       126  SAPC      C215          -21.1291051581      -16.3674080284       -5.8070524854  MEMB      126             0.0000000000
     14513       126  SAPC      H15R          -20.0525119666      -16.1725012236       -5.9208895167  MEMB      126             0.0000000000
     14514       126  SAPC      C216          -21.5754165282      -17.1403955052       -4.5363132376  MEMB      126             0.0000000000
     14515       126  SAPC      H16R          -21.2819055240      -18.1965912238       -4.7169294564  MEMB      126             0.0000000000
     14516       126  SAPC      H16S          -22.6694723834      -17.0086229858       -4.3948952501  MEMB      126             0.0000000000
     14517       126  SAPC      C217          -20.8528955834      -16.7040879705       -3.1986277481  MEMB      126             0.0000000000
     14518       126  SAPC      H17R          -19.9038860624      -16.1549676667       -3.3779818271  MEMB      126             0.0000000000
     14519       126  SAPC      H17S          -20.6521004091      -17.6604799727       -2.6701224320  MEMB      126             0.0000000000
     14520       126  SAPC      C218          -21.5751402676      -15.8594728022       -2.2117259792  MEMB      126             0.0000000000
     14521       126  SAPC      H18R          -21.8610608418      -14.8719968313       -2.6329879565  MEMB      126             0.0000000000
     14522       126  SAPC      H18S          -20.8786013188      -15.6339738415       -1.3760804390  MEMB      126             0.0000000000
     14523       126  SAPC      C219          -22.7809146032      -16.5461000603       -1.5202225669  MEMB      126             0.0000000000
     14524       126  SAPC      H19R          -22.4034435947      -17.4109465357       -0.9338112927  MEMB      126             0.0000000000
     14525       126  SAPC      H19S          -23.4305585204      -16.9630635513       -2.3192366996  MEMB      126             0.0000000000
     14526       126  SAPC      C220          -23.6983893650      -15.5717139809       -0.6891727592  MEMB      126             0.0000000000
     14527       126  SAPC      H20R          -24.5287656473      -16.1076622062       -0.1816732057  MEMB      126             0.0000000000
     14528       126  SAPC      H20S          -24.2008716051      -14.8894426665       -1.4077396087  MEMB      126             0.0000000000
     14529       126  SAPC      H20T          -23.0811579304      -14.9744115343        0.0155076863  MEMB      126             0.0000000000
     14530       126  SAPC      C33           -20.6704852853      -16.0888813772      -14.5562743928  MEMB      126             0.0000000000
     14531       126  SAPC      H3X           -21.4145932640      -15.5126719581      -13.9658453371  MEMB      126             0.0000000000
     14532       126  SAPC      H3Y           -19.7338494199      -15.5092017257      -14.7012087792  MEMB      126             0.0000000000
     14533       126  SAPC      C34           -20.4435596929      -17.3517120750      -13.6702146977  MEMB      126             0.0000000000
     14534       126  SAPC      H4X           -19.6775436414      -17.9291326658      -14.2306843179  MEMB      126             0.0000000000
     14535       126  SAPC      H4Y           -21.4141909094      -17.8898336120      -13.7214143299  MEMB      126             0.0000000000
     14536       126  SAPC      C35           -20.0950551685      -17.1323380031      -12.1573444083  MEMB      126             0.0000000000
     14537       126  SAPC      H5X           -19.9882897827      -18.0974930391      -11.6175316057  MEMB      126             0.0000000000
     14538       126  SAPC      H5Y           -20.8794539672      -16.4889045913      -11.7045383605  MEMB      126             0.0000000000
     14539       126  SAPC      C36           -18.8224699433      -16.3918074972      -12.0113665683  MEMB      126             0.0000000000
     14540       126  SAPC      H6X           -18.9079960293      -15.5318459170      -12.7095586093  MEMB      126             0.0000000000
     14541       126  SAPC      H6Y           -18.0379075156      -17.0448614109      -12.4498912921  MEMB      126             0.0000000000
     14542       126  SAPC      C37           -18.4539050909      -15.8813295325      -10.6508200661  MEMB      126             0.0000000000
     14543       126  SAPC      H7X           -18.4238729795      -16.7806047476       -9.9991121293  MEMB      126             0.0000000000
     14544       126  SAPC      H7Y           -19.2092251679      -15.1612520100      -10.2696371225  MEMB      126             0.0000000000
     14545       126  SAPC      C38           -17.0195166143      -15.1216727563      -10.7093667341  MEMB      126             0.0000000000
     14546       126  SAPC      H8X           -17.2557462682      -14.1279816896      -11.1465104930  MEMB      126             0.0000000000
     14547       126  SAPC      H8Y           -16.2990245130      -15.7630640033      -11.2605736154  MEMB      126             0.0000000000
     14548       126  SAPC      C39           -16.4366440476      -14.8660622965       -9.2524819037  MEMB      126             0.0000000000
     14549       126  SAPC      H9X           -15.5967947767      -14.1417055724       -9.3179160484  MEMB      126             0.0000000000
     14550       126  SAPC      H9Y           -16.0487985302      -15.8553260498       -8.9280529221  MEMB      126             0.0000000000
     14551       126  SAPC      C310          -17.4973041312      -14.4133332475       -8.2338723422  MEMB      126             0.0000000000
     14552       126  SAPC      H10X          -18.1997102681      -15.2400797438       -7.9942116700  MEMB      126             0.0000000000
     14553       126  SAPC      H10Y          -18.0690115783      -13.5341953818       -8.6007347856  MEMB      126             0.0000000000
     14554       126  SAPC      C311          -16.8316241933      -13.9623390716       -6.9169592401  MEMB      126             0.0000000000
     14555       126  SAPC      H11X          -16.2826858782      -13.0097979766       -7.0771255909  MEMB      126             0.0000000000
     14556       126  SAPC      H11Y          -16.2147394323      -14.7806426893       -6.4878279894  MEMB      126             0.0000000000
     14557       126  SAPC      C312          -17.8446820385      -13.7259767686       -5.7651951825  MEMB      126             0.0000000000
     14558       126  SAPC      H12X          -17.3053065055      -13.3699274049       -4.8615225595  MEMB      126             0.0000000000
     14559       126  SAPC      H12Y          -18.3023546152      -14.7115152189       -5.5337411030  MEMB      126             0.0000000000
     14560       126  SAPC      C313          -18.6807163773      -12.5361571180       -6.0802747042  MEMB      126             0.0000000000
     14561       126  SAPC      H13X          -19.1883016392      -12.7069750196       -7.0536705522  MEMB      126             0.0000000000
     14562       126  SAPC      H13Y          -18.0462494686      -11.6242100248       -6.0690842337  MEMB      126             0.0000000000
     14563       126  SAPC      C314          -19.8784071383      -12.2642250076       -5.1387804213  MEMB      126             0.0000000000
     14564       126  SAPC      H14X          -20.6792485649      -13.0311000782       -5.2086127197  MEMB      126             0.0000000000
     14565       126  SAPC      H14Y          -20.4482240792      -11.3445072205       -5.3912656640  MEMB      126             0.0000000000
     14566       126  SAPC      C315          -19.6096181146      -12.0116221377       -3.6513977034  MEMB      126             0.0000000000
     14567       126  SAPC      H15X          -18.7779180307      -11.2938339733       -3.4859408395  MEMB      126             0.0000000000
     14568       126  SAPC      H15Y          -19.3541433911      -12.9644273128       -3.1403046566  MEMB      126             0.0000000000
     14569       126  SAPC      C316          -20.8567212099      -11.4383973471       -2.8954556239  MEMB      126             0.0000000000
     14570       126  SAPC      H16X          -21.7306282634      -12.1238491128       -2.8678291785  MEMB      126             0.0000000000
     14571       126  SAPC      H16Y          -21.2563137885      -10.5540471376       -3.4363545086  MEMB      126             0.0000000000
     14572       126  SAPC      C317          -20.3637251561      -10.9936217960       -1.4929956414  MEMB      126             0.0000000000
     14573       126  SAPC      H17X          -19.8682894266       -9.9993441258       -1.5096181198  MEMB      126             0.0000000000
     14574       126  SAPC      H17Y          -19.5975426047      -11.7017294311       -1.1110675549  MEMB      126             0.0000000000
     14575       126  SAPC      C318          -21.5475827287      -10.8460724556       -0.4755652376  MEMB      126             0.0000000000
     14576       126  SAPC      H18X          -22.3725248081      -10.1883116737       -0.8236203198  MEMB      126             0.0000000000
     14577       126  SAPC      H18Y          -21.2100843888      -10.5080630879        0.5275129093  MEMB      126             0.0000000000
     14578       126  SAPC      H18Z          -21.9246705100      -11.8904845000       -0.4391062022  MEMB      126             0.0000000000
     14579       127  CHL1      C3              5.8164314891       23.6721202231      -17.3520900000  MEMB      127             0.0000000000
     14580       127  CHL1      H3              6.2636179364       24.6888501381      -17.3768100000  MEMB      127             0.0000000000
     14581       127  CHL1      O3              5.7409558709       23.1045597769      -18.6479100000  MEMB      127             0.0000000000
     14582       127  CHL1      H3'             5.1252718324       23.6191716004      -19.1748900000  MEMB      127             0.0000000000
     14583       127  CHL1      C4              6.8261148321       22.9110023866      -16.6145100000  MEMB      127             0.0000000000
     14584       127  CHL1      H4A             6.6382438796       21.8293095652      -16.7846800000  MEMB      127             0.0000000000
     14585       127  CHL1      H4B             7.7804174161       23.1333673178      -17.1381500000  MEMB      127             0.0000000000
     14586       127  CHL1      C5              6.9385756393       23.4459856782      -15.1694900000  MEMB      127             0.0000000000
     14587       127  CHL1      C6              7.9933756722       24.0548833403      -14.5985800000  MEMB      127             0.0000000000
     14588       127  CHL1      H6              8.9287749992       24.2472094071      -15.1445100000  MEMB      127             0.0000000000
     14589       127  CHL1      C7              7.9742781649       24.4574390468      -13.1784000000  MEMB      127             0.0000000000
     14590       127  CHL1      H7A             8.9244840921       24.0726508650      -12.7501700000  MEMB      127             0.0000000000
     14591       127  CHL1      H7B             7.8509804242       25.5612570877      -13.1516300000  MEMB      127             0.0000000000
     14592       127  CHL1      C8              6.8801460400       23.8700592967      -12.2441900000  MEMB      127             0.0000000000
     14593       127  CHL1      H8              6.9968091730       22.7722491157      -12.1195900000  MEMB      127             0.0000000000
     14594       127  CHL1      C14             6.6923117991       24.5158987317      -10.8881300000  MEMB      127             0.0000000000
     14595       127  CHL1      H14             6.3996674175       25.5847687694      -10.9668000000  MEMB      127             0.0000000000
     14596       127  CHL1      C15             7.8522879925       24.5090729187       -9.9014200000  MEMB      127             0.0000000000
     14597       127  CHL1      H15A            8.3548281696       23.5183983182       -9.8829000000  MEMB      127             0.0000000000
     14598       127  CHL1      H15B            8.6286317545       25.1918727202      -10.3081100000  MEMB      127             0.0000000000
     14599       127  CHL1      C16             7.3285903648       24.9173270611       -8.5704000000  MEMB      127             0.0000000000
     14600       127  CHL1      H16A            7.6243031467       24.1668784292       -7.8064000000  MEMB      127             0.0000000000
     14601       127  CHL1      H16B            7.9237612646       25.8098825073       -8.2815400000  MEMB      127             0.0000000000
     14602       127  CHL1      C17             5.8435611204       24.8468539286       -8.6893100000  MEMB      127             0.0000000000
     14603       127  CHL1      H17             5.5044099952       25.8521446230       -9.0189900000  MEMB      127             0.0000000000
     14604       127  CHL1      C13             5.5486065612       23.9843996524       -9.9934200000  MEMB      127             0.0000000000
     14605       127  CHL1      C18             5.6938750549       22.5611031832       -9.5516400000  MEMB      127             0.0000000000
     14606       127  CHL1      H18A            5.7596240764       21.9650752409      -10.4869200000  MEMB      127             0.0000000000
     14607       127  CHL1      H18B            6.6517305798       22.3700536165       -9.0221900000  MEMB      127             0.0000000000
     14608       127  CHL1      H18C            4.8837636319       22.1639076094       -8.9033500000  MEMB      127             0.0000000000
     14609       127  CHL1      C12             4.2365701999       24.3324073918      -10.8015200000  MEMB      127             0.0000000000
     14610       127  CHL1      H12A            3.3703899593       24.0277581815      -10.1760200000  MEMB      127             0.0000000000
     14611       127  CHL1      H12B            4.2091809781       25.4264123194      -10.9931700000  MEMB      127             0.0000000000
     14612       127  CHL1      C11             4.2957153656       23.6727127212      -12.1291200000  MEMB      127             0.0000000000
     14613       127  CHL1      H11A            4.2617380383       22.5731744801      -11.9736700000  MEMB      127             0.0000000000
     14614       127  CHL1      H11B            3.3980397861       23.8136805489      -12.7683600000  MEMB      127             0.0000000000
     14615       127  CHL1      C9              5.5542043158       24.0241613820      -12.9505100000  MEMB      127             0.0000000000
     14616       127  CHL1      H9              5.4929996418       25.1203096924      -13.1209300000  MEMB      127             0.0000000000
     14617       127  CHL1      C10             5.6069950096       23.3443581490      -14.3731600000  MEMB      127             0.0000000000
     14618       127  CHL1      C19             5.2401246393       21.8004220512      -14.3427900000  MEMB      127             0.0000000000
     14619       127  CHL1      H19A            5.2867865168       21.2919885416      -15.3295200000  MEMB      127             0.0000000000
     14620       127  CHL1      H19B            5.9402834303       21.3588786804      -13.6017600000  MEMB      127             0.0000000000
     14621       127  CHL1      H19C            4.2469188338       21.5249462938      -13.9281200000  MEMB      127             0.0000000000
     14622       127  CHL1      C1              4.5485115056       24.1489050401      -15.2529000000  MEMB      127             0.0000000000
     14623       127  CHL1      H1A             3.5544792420       24.0463267490      -14.7674200000  MEMB      127             0.0000000000
     14624       127  CHL1      H1B             4.8788596167       25.1971766499      -15.0906500000  MEMB      127             0.0000000000
     14625       127  CHL1      C2              4.4832411868       23.6655527073      -16.6908300000  MEMB      127             0.0000000000
     14626       127  CHL1      H2A             3.8263754055       24.2853214576      -17.3379200000  MEMB      127             0.0000000000
     14627       127  CHL1      H2B             4.1394829890       22.6094137932      -16.7180400000  MEMB      127             0.0000000000
     14628       127  CHL1      C20             5.0817538822       24.5299591126       -7.3916200000  MEMB      127             0.0000000000
     14629       127  CHL1      H20             5.4184549754       23.5276786413       -7.0504500000  MEMB      127             0.0000000000
     14630       127  CHL1      C21             3.5616693790       24.4438876329       -7.4946600000  MEMB      127             0.0000000000
     14631       127  CHL1      H21A            3.3015420460       25.4147744719       -7.9679700000  MEMB      127             0.0000000000
     14632       127  CHL1      H21B            3.1335441798       24.2236020906       -6.4934100000  MEMB      127             0.0000000000
     14633       127  CHL1      H21C            3.3693611230       23.5721620594       -8.1560400000  MEMB      127             0.0000000000
     14634       127  CHL1      C22             5.5163023105       25.4291475245       -6.2219200000  MEMB      127             0.0000000000
     14635       127  CHL1      H22A            6.5248053514       25.8842225321       -6.3227500000  MEMB      127             0.0000000000
     14636       127  CHL1      H22B            4.8221715715       26.2956060487       -6.1800500000  MEMB      127             0.0000000000
     14637       127  CHL1      C23             5.5102957480       24.7042160890       -4.8960500000  MEMB      127             0.0000000000
     14638       127  CHL1      H23A            4.5840348186       24.1094860861       -4.7455000000  MEMB      127             0.0000000000
     14639       127  CHL1      H23B            6.3286936783       23.9576135619       -4.9805600000  MEMB      127             0.0000000000
     14640       127  CHL1      C24             5.7940262539       25.7020730890       -3.7411200000  MEMB      127             0.0000000000
     14641       127  CHL1      H24A            6.7197158052       26.2627087107       -3.9923300000  MEMB      127             0.0000000000
     14642       127  CHL1      H24B            5.0439126177       26.5059376189       -3.5815700000  MEMB      127             0.0000000000
     14643       127  CHL1      C25             5.9718358787       25.0609160545       -2.3551900000  MEMB      127             0.0000000000
     14644       127  CHL1      H25             6.7728470542       24.2941712645       -2.2857100000  MEMB      127             0.0000000000
     14645       127  CHL1      C26             6.3407653415       26.1669144303       -1.3687400000  MEMB      127             0.0000000000
     14646       127  CHL1      H26A            6.5005072868       25.7513672855       -0.3508400000  MEMB      127             0.0000000000
     14647       127  CHL1      H26B            7.3424361977       26.5447083655       -1.6658000000  MEMB      127             0.0000000000
     14648       127  CHL1      H26C            5.6178193524       27.0098002551       -1.3339000000  MEMB      127             0.0000000000
     14649       127  CHL1      C27             4.5776984398       24.5186891979       -1.8367100000  MEMB      127             0.0000000000
     14650       127  CHL1      H27A            3.7563140380       25.2552621194       -1.9674700000  MEMB      127             0.0000000000
     14651       127  CHL1      H27B            4.2902367618       23.5781711066       -2.3535300000  MEMB      127             0.0000000000
     14652       127  CHL1      H27C            4.6326279331       24.2292298626       -0.7654900000  MEMB      127             0.0000000000
     14653       128  SAPS      N              16.5045527328      -17.5286978399      -22.0317203128  MEMB      128             0.0000000000
     14654       128  SAPS      HN1            15.5242961294      -17.3957491404      -21.7107507150  MEMB      128             0.0000000000
     14655       128  SAPS      HN2            16.8220768223      -16.8800932980      -22.7801124610  MEMB      128             0.0000000000
     14656       128  SAPS      HN3            16.5637970970      -18.4937922013      -22.4147126243  MEMB      128             0.0000000000
     14657       128  SAPS      C12            17.4823443327      -17.4683438988      -20.8555925836  MEMB      128             0.0000000000
     14658       128  SAPS      H12A           17.1304706944      -18.1341055297      -20.0814178594  MEMB      128             0.0000000000
     14659       128  SAPS      C13            18.9563719681      -17.6752464231      -21.3844419463  MEMB      128             0.0000000000
     14660       128  SAPS      O13A           19.0555431448      -17.9125090030      -22.6005713263  MEMB      128             0.0000000000
     14661       128  SAPS      O13B           19.9644103417      -17.5412487742      -20.6496604068  MEMB      128             0.0000000000
     14662       128  SAPS      C11            17.2549942780      -16.0157134560      -20.4090998378  MEMB      128             0.0000000000
     14663       128  SAPS      H11A           16.1827377408      -15.7728861144      -20.2490317375  MEMB      128             0.0000000000
     14664       128  SAPS      H11B           17.4927610436      -15.3672332708      -21.2793074549  MEMB      128             0.0000000000
     14665       128  SAPS      P              18.1512740649      -14.3762296652      -18.4118129499  MEMB      128             0.0000000000
     14666       128  SAPS      O13            19.1784220377      -14.4333490249      -17.3487312279  MEMB      128             0.0000000000
     14667       128  SAPS      O14            18.2603896650      -13.1807782297      -19.1950584515  MEMB      128             0.0000000000
     14668       128  SAPS      O12            18.1165648080      -15.7516025160      -19.2866867135  MEMB      128             0.0000000000
     14669       128  SAPS      O11            16.7366639304      -14.3736536727      -17.8266242256  MEMB      128             0.0000000000
     14670       128  SAPS      C1             16.4397607634      -15.0913501195      -16.6522676037  MEMB      128             0.0000000000
     14671       128  SAPS      HA             15.4560367471      -15.5558172276      -16.8778297378  MEMB      128             0.0000000000
     14672       128  SAPS      HB             17.0865176908      -15.9792073457      -16.4857260277  MEMB      128             0.0000000000
     14673       128  SAPS      C2             16.1347958658      -14.2767365712      -15.3630917309  MEMB      128             0.0000000000
     14674       128  SAPS      HS             15.3896358546      -13.5320795819      -15.7159997831  MEMB      128             0.0000000000
     14675       128  SAPS      O21            17.4330541043      -13.6207443632      -15.0477954863  MEMB      128             0.0000000000
     14676       128  SAPS      C21            17.4042240458      -12.6727709487      -14.0754052165  MEMB      128             0.0000000000
     14677       128  SAPS      O22            16.3983425822      -12.2776034431      -13.4551919206  MEMB      128             0.0000000000
     14678       128  SAPS      C22            18.8800683128      -12.0986394846      -13.8195669736  MEMB      128             0.0000000000
     14679       128  SAPS      H2R            19.6191153532      -12.5952577838      -14.4840221760  MEMB      128             0.0000000000
     14680       128  SAPS      H2S            18.8379198064      -11.0411442324      -14.1575736245  MEMB      128             0.0000000000
     14681       128  SAPS      C3             15.5845951361      -15.0402145550      -14.1804309785  MEMB      128             0.0000000000
     14682       128  SAPS      HX             14.5436612467      -15.3638939732      -14.3949287701  MEMB      128             0.0000000000
     14683       128  SAPS      HY             15.3386354065      -14.3809611456      -13.3206583819  MEMB      128             0.0000000000
     14684       128  SAPS      O31            16.3847614415      -16.1904715852      -13.8500010787  MEMB      128             0.0000000000
     14685       128  SAPS      C31            17.5059807976      -16.1080283551      -13.0389326451  MEMB      128             0.0000000000
     14686       128  SAPS      O32            17.8675132936      -15.0930953781      -12.4773401489  MEMB      128             0.0000000000
     14687       128  SAPS      C32            18.1724345981      -17.5355958227      -12.8407572756  MEMB      128             0.0000000000
     14688       128  SAPS      H2X            18.0579927963      -18.0336109582      -13.8272685680  MEMB      128             0.0000000000
     14689       128  SAPS      H2Y            17.6254466944      -18.0405501393      -12.0160473743  MEMB      128             0.0000000000
     14690       128  SAPS      C23            19.2163595297      -12.1180434519      -12.3551886703  MEMB      128             0.0000000000
     14691       128  SAPS      H3R            19.2523373626      -13.1737180369      -12.0108369251  MEMB      128             0.0000000000
     14692       128  SAPS      H3S            18.4209082804      -11.6391075700      -11.7451082346  MEMB      128             0.0000000000
     14693       128  SAPS      C24            20.4312856900      -11.2522586294      -12.0674209306  MEMB      128             0.0000000000
     14694       128  SAPS      H4R            20.2754078981      -11.0771491022      -10.9814371096  MEMB      128             0.0000000000
     14695       128  SAPS      H4S            20.3057999970      -10.2686421528      -12.5684925067  MEMB      128             0.0000000000
     14696       128  SAPS      C25            21.7009480860      -11.8849095834      -12.5102174119  MEMB      128             0.0000000000
     14697       128  SAPS      H5R            21.8651873571      -11.6443109475      -13.5709423321  MEMB      128             0.0000000000
     14698       128  SAPS      C26            22.5589903557      -12.6655234521      -11.7817079187  MEMB      128             0.0000000000
     14699       128  SAPS      H6R            23.4053960558      -13.0451067042      -12.3729052183  MEMB      128             0.0000000000
     14700       128  SAPS      C27            22.4259597858      -13.0972178282      -10.3671030084  MEMB      128             0.0000000000
     14701       128  SAPS      H7R            22.3641424685      -12.1945923627       -9.7223026887  MEMB      128             0.0000000000
     14702       128  SAPS      H7S            23.3587950399      -13.6418233348      -10.1072088615  MEMB      128             0.0000000000
     14703       128  SAPS      C28            21.2326720136      -14.0705804571      -10.1764114823  MEMB      128             0.0000000000
     14704       128  SAPS      H8R            21.2441825975      -14.9022807797      -10.8962329883  MEMB      128             0.0000000000
     14705       128  SAPS      C29            20.0367005358      -13.7789273712       -9.4557980522  MEMB      128             0.0000000000
     14706       128  SAPS      H9R            19.2591216354      -14.5470776920       -9.3320403388  MEMB      128             0.0000000000
     14707       128  SAPS      C210           19.5814644731      -12.5132317555       -8.7032275029  MEMB      128             0.0000000000
     14708       128  SAPS      H10R           18.5892749884      -12.3324141028       -9.1692592989  MEMB      128             0.0000000000
     14709       128  SAPS      H10S           20.2801086710      -11.6649418565       -8.8663883486  MEMB      128             0.0000000000
     14710       128  SAPS      C211           19.4749184987      -12.7956642280       -7.2152175389  MEMB      128             0.0000000000
     14711       128  SAPS      H11R           20.3812795804      -12.6782959307       -6.6030615588  MEMB      128             0.0000000000
     14712       128  SAPS      C212           18.3263482881      -13.1767098568       -6.7132510084  MEMB      128             0.0000000000
     14713       128  SAPS      H12R           18.1986357076      -13.4513014039       -5.6557591237  MEMB      128             0.0000000000
     14714       128  SAPS      C213           17.0213353019      -13.4714659860       -7.3625491890  MEMB      128             0.0000000000
     14715       128  SAPS      H13R           16.7361903469      -14.5352291145       -7.2161886928  MEMB      128             0.0000000000
     14716       128  SAPS      H13S           17.0674257947      -13.3563031279       -8.4666026707  MEMB      128             0.0000000000
     14717       128  SAPS      C214           16.0016815669      -12.5180676947       -6.8706949980  MEMB      128             0.0000000000
     14718       128  SAPS      H14R           16.1840731800      -11.4853331552       -7.2026479910  MEMB      128             0.0000000000
     14719       128  SAPS      C215           14.9411021072      -12.7518357914       -6.0643588411  MEMB      128             0.0000000000
     14720       128  SAPS      H15R           14.4508841450      -11.8763311195       -5.6136069000  MEMB      128             0.0000000000
     14721       128  SAPS      C216           14.5422358443      -14.0009843800       -5.3666499718  MEMB      128             0.0000000000
     14722       128  SAPS      H16R           15.1165936697      -14.8580512665       -5.7788026601  MEMB      128             0.0000000000
     14723       128  SAPS      H16S           13.4423201979      -14.1091055226       -5.4798592766  MEMB      128             0.0000000000
     14724       128  SAPS      C217           14.8565018627      -13.9972616401       -3.8371803852  MEMB      128             0.0000000000
     14725       128  SAPS      H17R           15.9524104645      -13.8869328022       -3.9825531529  MEMB      128             0.0000000000
     14726       128  SAPS      H17S           14.7065528416      -14.8959390313       -3.2014012327  MEMB      128             0.0000000000
     14727       128  SAPS      C218           14.2638356310      -12.8491472945       -3.0325938249  MEMB      128             0.0000000000
     14728       128  SAPS      H18R           13.1826147899      -13.0636151072       -3.1714674129  MEMB      128             0.0000000000
     14729       128  SAPS      H18S           14.5806677863      -11.8331783487       -3.3515696765  MEMB      128             0.0000000000
     14730       128  SAPS      C219           14.7429420711      -12.8843729922       -1.5746699063  MEMB      128             0.0000000000
     14731       128  SAPS      H19R           14.9861999460      -13.9589599683       -1.4318089728  MEMB      128             0.0000000000
     14732       128  SAPS      H19S           13.9807927140      -12.5361191991       -0.8451713565  MEMB      128             0.0000000000
     14733       128  SAPS      C220           15.9800732602      -12.0136690755       -1.2148940962  MEMB      128             0.0000000000
     14734       128  SAPS      H20R           16.5989861545      -11.9656632750       -2.1362851295  MEMB      128             0.0000000000
     14735       128  SAPS      H20S           16.5347286059      -12.4144157559       -0.3396327427  MEMB      128             0.0000000000
     14736       128  SAPS      H20T           15.6646107173      -10.9737364286       -0.9839293987  MEMB      128             0.0000000000
     14737       128  SAPS      C33            19.6108480141      -17.3616812683      -12.4081330370  MEMB      128             0.0000000000
     14738       128  SAPS      H3X            19.8033241789      -16.5767324869      -11.6458143328  MEMB      128             0.0000000000
     14739       128  SAPS      H3Y            20.1567042215      -17.1604408887      -13.3546342311  MEMB      128             0.0000000000
     14740       128  SAPS      C34            20.2849064340      -18.7389124351      -11.8567882162  MEMB      128             0.0000000000
     14741       128  SAPS      H4X            21.3669389099      -18.4915954048      -11.9053750171  MEMB      128             0.0000000000
     14742       128  SAPS      H4Y            20.1330413778      -19.5504315795      -12.6002223694  MEMB      128             0.0000000000
     14743       128  SAPS      C35            20.0087253350      -19.0576568061      -10.4124615011  MEMB      128             0.0000000000
     14744       128  SAPS      H5X            20.5700945358      -19.9436826319      -10.0462051034  MEMB      128             0.0000000000
     14745       128  SAPS      H5Y            18.9325818805      -19.3049576773      -10.2896666418  MEMB      128             0.0000000000
     14746       128  SAPS      C36            20.4572638684      -18.0187492139       -9.4253212777  MEMB      128             0.0000000000
     14747       128  SAPS      H6X            19.6281380425      -17.2805434722       -9.3814666349  MEMB      128             0.0000000000
     14748       128  SAPS      H6Y            21.4116214923      -17.4928972992       -9.6421210915  MEMB      128             0.0000000000
     14749       128  SAPS      C37            20.5740087282      -18.5014124607       -8.0005228230  MEMB      128             0.0000000000
     14750       128  SAPS      H7X            21.3993911760      -19.2427323164       -7.9412749109  MEMB      128             0.0000000000
     14751       128  SAPS      H7Y            19.6785942790      -19.1086477268       -7.7478983922  MEMB      128             0.0000000000
     14752       128  SAPS      C38            20.8082669323      -17.3637080915       -7.0761702103  MEMB      128             0.0000000000
     14753       128  SAPS      H8X            19.9747790281      -16.6384178473       -7.1926731839  MEMB      128             0.0000000000
     14754       128  SAPS      H8Y            21.7871028290      -16.8579120025       -7.2188992221  MEMB      128             0.0000000000
     14755       128  SAPS      C39            20.8197092947      -17.8714570322       -5.6165373060  MEMB      128             0.0000000000
     14756       128  SAPS      H9X            21.4800676633      -18.7600654745       -5.5236770110  MEMB      128             0.0000000000
     14757       128  SAPS      H9Y            19.7784755398      -18.0211605845       -5.2591270542  MEMB      128             0.0000000000
     14758       128  SAPS      C310           21.4315894740      -16.7872730620       -4.6989481965  MEMB      128             0.0000000000
     14759       128  SAPS      H10X           22.4461318047      -16.4985901014       -5.0477849878  MEMB      128             0.0000000000
     14760       128  SAPS      H10Y           21.6453217141      -17.2436566772       -3.7088200263  MEMB      128             0.0000000000
     14761       128  SAPS      C311           20.6076826007      -15.5653834157       -4.3544189168  MEMB      128             0.0000000000
     14762       128  SAPS      H11X           19.6110046957      -15.9684677281       -4.0742804733  MEMB      128             0.0000000000
     14763       128  SAPS      H11Y           20.3559477086      -15.0050632990       -5.2801575033  MEMB      128             0.0000000000
     14764       128  SAPS      C312           21.2069919103      -14.7404800969       -3.1701367698  MEMB      128             0.0000000000
     14765       128  SAPS      H12X           22.2479518468      -14.4797217709       -3.4577614286  MEMB      128             0.0000000000
     14766       128  SAPS      H12Y           21.2541357456      -15.3720826547       -2.2573512677  MEMB      128             0.0000000000
     14767       128  SAPS      C313           20.3902196436      -13.4390059581       -2.9007622016  MEMB      128             0.0000000000
     14768       128  SAPS      H13X           20.4250672091      -12.7580576002       -3.7779259343  MEMB      128             0.0000000000
     14769       128  SAPS      H13Y           20.9600610939      -12.8216127089       -2.1738324473  MEMB      128             0.0000000000
     14770       128  SAPS      C314           18.9651543709      -13.5557345419       -2.4962009789  MEMB      128             0.0000000000
     14771       128  SAPS      H14X           18.4301532436      -13.9814375006       -3.3719125981  MEMB      128             0.0000000000
     14772       128  SAPS      H14Y           18.4605562092      -12.5871623843       -2.2923128633  MEMB      128             0.0000000000
     14773       128  SAPS      C315           18.7656664566      -14.4617647344       -1.2597145995  MEMB      128             0.0000000000
     14774       128  SAPS      H15X           19.1139787831      -15.4726505536       -1.5615582452  MEMB      128             0.0000000000
     14775       128  SAPS      H15Y           17.6902455618      -14.5029117379       -0.9838552629  MEMB      128             0.0000000000
     14776       128  SAPS      C316           19.4851093627      -13.9225563098       -0.0510295532  MEMB      128             0.0000000000
     14777       128  SAPS      H16X           18.9651126495      -12.9657061998        0.1688863229  MEMB      128             0.0000000000
     14778       128  SAPS      H16Y           20.5737309961      -13.7276799776       -0.1570814426  MEMB      128             0.0000000000
     14779       128  SAPS      C317           19.3597274431      -14.7756903460        1.2537960470  MEMB      128             0.0000000000
     14780       128  SAPS      H17X           19.9183395897      -15.6944235044        0.9741486117  MEMB      128             0.0000000000
     14781       128  SAPS      H17Y           18.2945843089      -15.0196204452        1.4545184934  MEMB      128             0.0000000000
     14782       128  SAPS      C318           20.1280526688      -14.2460669857        2.4876372387  MEMB      128             0.0000000000
     14783       128  SAPS      H18X           19.5543835952      -13.3784206741        2.8780406711  MEMB      128             0.0000000000
     14784       128  SAPS      H18Y           21.1137251733      -13.8179246257        2.2057416293  MEMB      128             0.0000000000
     14785       128  SAPS      H18Z           20.3055882802      -15.0705868243        3.2108031327  MEMB      128             0.0000000000
     14786       129  CHL1      C3             23.0867397688       -7.1911451570      -17.3116850000  MEMB      129             0.0000000000
     14787       129  CHL1      H3             23.3606032211       -6.1601276611      -17.0013450000  MEMB      129             0.0000000000
     14788       129  CHL1      O3             23.5237876312       -7.4114692830      -18.6883150000  MEMB      129             0.0000000000
     14789       129  CHL1      H3'            23.0070899272       -6.7966641646      -19.2142650000  MEMB      129             0.0000000000
     14790       129  CHL1      C4             23.7959802880       -8.2379824664      -16.4137850000  MEMB      129             0.0000000000
     14791       129  CHL1      H4A            23.5474414117       -9.2890446836      -16.6742050000  MEMB      129             0.0000000000
     14792       129  CHL1      H4B            24.8579498483       -8.0031299192      -16.6404750000  MEMB      129             0.0000000000
     14793       129  CHL1      C5             23.3260006891       -8.1140284640      -14.9334250000  MEMB      129             0.0000000000
     14794       129  CHL1      C6             24.3006115429       -8.0110691054      -13.9608950000  MEMB      129             0.0000000000
     14795       129  CHL1      H6             25.3754044590       -7.9755983007      -14.1923250000  MEMB      129             0.0000000000
     14796       129  CHL1      C7             23.8895108162       -7.8753975556      -12.5090050000  MEMB      129             0.0000000000
     14797       129  CHL1      H7A            24.7362129431       -8.3487951405      -11.9674150000  MEMB      129             0.0000000000
     14798       129  CHL1      H7B            23.8285094495       -6.7816990713      -12.3234950000  MEMB      129             0.0000000000
     14799       129  CHL1      C8             22.5416510096       -8.4947465581      -12.3377750000  MEMB      129             0.0000000000
     14800       129  CHL1      H8             22.6412845687       -9.6002721516      -12.3847650000  MEMB      129             0.0000000000
     14801       129  CHL1      C14            22.1261693288       -8.1743472363      -10.9505850000  MEMB      129             0.0000000000
     14802       129  CHL1      H14            22.1474789123       -7.0637088850      -10.9321050000  MEMB      129             0.0000000000
     14803       129  CHL1      C15            23.0875739608       -8.5820407494       -9.8085550000  MEMB      129             0.0000000000
     14804       129  CHL1      H15A           23.3656377925       -9.6566812288       -9.7620950000  MEMB      129             0.0000000000
     14805       129  CHL1      H15B           24.0218367487       -7.9814752025       -9.8365850000  MEMB      129             0.0000000000
     14806       129  CHL1      C16            22.2810560851       -8.2139114467       -8.5600650000  MEMB      129             0.0000000000
     14807       129  CHL1      H16A           22.5217132493       -8.9715187319       -7.7839050000  MEMB      129             0.0000000000
     14808       129  CHL1      H16B           22.6384146475       -7.2639945666       -8.1081050000  MEMB      129             0.0000000000
     14809       129  CHL1      C17            20.7674527884       -8.0068152383       -8.9648450000  MEMB      129             0.0000000000
     14810       129  CHL1      H17            20.6900426058       -6.8985223284       -8.9694350000  MEMB      129             0.0000000000
     14811       129  CHL1      C13            20.6993565806       -8.4743248619      -10.4595450000  MEMB      129             0.0000000000
     14812       129  CHL1      C18            20.4236210356       -9.9760332361      -10.4183150000  MEMB      129             0.0000000000
     14813       129  CHL1      H18A           20.7213417198      -10.5209124722      -11.3396050000  MEMB      129             0.0000000000
     14814       129  CHL1      H18B           21.0434054913      -10.4100546843       -9.6047950000  MEMB      129             0.0000000000
     14815       129  CHL1      H18C           19.3574157392      -10.2274274562      -10.2330150000  MEMB      129             0.0000000000
     14816       129  CHL1      C12            19.6910305802       -7.6917451809      -11.3240550000  MEMB      129             0.0000000000
     14817       129  CHL1      H12A           18.6486056279       -7.9506760669      -11.0401050000  MEMB      129             0.0000000000
     14818       129  CHL1      H12B           19.8337320614       -6.6502971985      -10.9644150000  MEMB      129             0.0000000000
     14819       129  CHL1      C11            19.9745981636       -8.1867231881      -12.7516750000  MEMB      129             0.0000000000
     14820       129  CHL1      H11A           19.6648963505       -9.2502602827      -12.8370050000  MEMB      129             0.0000000000
     14821       129  CHL1      H11B           19.3416595193       -7.6182063177      -13.4661750000  MEMB      129             0.0000000000
     14822       129  CHL1      C9             21.4671751680       -7.8606677788      -13.1972250000  MEMB      129             0.0000000000
     14823       129  CHL1      H9             21.5126531701       -6.7588031861      -13.0624950000  MEMB      129             0.0000000000
     14824       129  CHL1      C10            21.7784428077       -8.0709802071      -14.7115950000  MEMB      129             0.0000000000
     14825       129  CHL1      C19            21.1823722230       -9.4666107311      -15.1314050000  MEMB      129             0.0000000000
     14826       129  CHL1      H19A           21.3832046404      -10.1450906915      -14.2748750000  MEMB      129             0.0000000000
     14827       129  CHL1      H19B           20.1169069207       -9.5230427720      -15.4410950000  MEMB      129             0.0000000000
     14828       129  CHL1      H19C           21.6777689200       -9.9008991946      -16.0260050000  MEMB      129             0.0000000000
     14829       129  CHL1      C1             21.1699322735       -7.0067321212      -15.6328250000  MEMB      129             0.0000000000
     14830       129  CHL1      H1A            20.0656178876       -7.0676802673      -15.5274450000  MEMB      129             0.0000000000
     14831       129  CHL1      H1B            21.4934894096       -5.9612980381      -15.4412950000  MEMB      129             0.0000000000
     14832       129  CHL1      C2             21.5732748851       -7.2128705267      -17.1456350000  MEMB      129             0.0000000000
     14833       129  CHL1      H2A            21.1129768278       -6.3489851354      -17.6711250000  MEMB      129             0.0000000000
     14834       129  CHL1      H2B            21.0957199865       -8.1541738547      -17.4923650000  MEMB      129             0.0000000000
     14835       129  CHL1      C20            19.7476524943       -8.5845560015       -7.9399050000  MEMB      129             0.0000000000
     14836       129  CHL1      H20            19.9232001247       -9.6803802045       -7.8881050000  MEMB      129             0.0000000000
     14837       129  CHL1      C21            18.2675755643       -8.3003653799       -8.2202950000  MEMB      129             0.0000000000
     14838       129  CHL1      H21A           18.0058557681       -9.0699228697       -8.9776550000  MEMB      129             0.0000000000
     14839       129  CHL1      H21B           18.2043159955       -7.2753348753       -8.6441150000  MEMB      129             0.0000000000
     14840       129  CHL1      H21C           17.5450061822       -8.3615839033       -7.3785850000  MEMB      129             0.0000000000
     14841       129  CHL1      C22            20.0516361706       -8.0807941838       -6.5134650000  MEMB      129             0.0000000000
     14842       129  CHL1      H22A           21.1141629170       -8.2816125491       -6.2584150000  MEMB      129             0.0000000000
     14843       129  CHL1      H22B           19.8578033217       -6.9880680737       -6.5654450000  MEMB      129             0.0000000000
     14844       129  CHL1      C23            19.1658654190       -8.6830566732       -5.4318450000  MEMB      129             0.0000000000
     14845       129  CHL1      H23A           18.1724170985       -8.1872045546       -5.4707550000  MEMB      129             0.0000000000
     14846       129  CHL1      H23B           19.1331538499       -9.7914657818       -5.5002950000  MEMB      129             0.0000000000
     14847       129  CHL1      C24            19.7385808706       -8.1440830528       -4.0375650000  MEMB      129             0.0000000000
     14848       129  CHL1      H24A           20.8295343243       -8.3524205144       -4.0105850000  MEMB      129             0.0000000000
     14849       129  CHL1      H24B           19.5223529731       -7.0576558634       -3.9524250000  MEMB      129             0.0000000000
     14850       129  CHL1      C25            19.1958090858       -8.8736666741       -2.7827650000  MEMB      129             0.0000000000
     14851       129  CHL1      H25            19.5274563251       -8.2273216561       -1.9421850000  MEMB      129             0.0000000000
     14852       129  CHL1      C26            17.6260516161       -8.9250225816       -2.7931750000  MEMB      129             0.0000000000
     14853       129  CHL1      H26A           17.2165447356       -7.9174665710       -3.0200050000  MEMB      129             0.0000000000
     14854       129  CHL1      H26B           17.2509440740       -9.6369606165       -3.5591850000  MEMB      129             0.0000000000
     14855       129  CHL1      H26C           17.2722192535       -9.3245306096       -1.8187450000  MEMB      129             0.0000000000
     14856       129  CHL1      C27            19.6209961978      -10.3144440886       -2.5679750000  MEMB      129             0.0000000000
     14857       129  CHL1      H27A           19.0642822848      -10.7669482013       -1.7196750000  MEMB      129             0.0000000000
     14858       129  CHL1      H27B           19.3782720620      -10.9013023781       -3.4795650000  MEMB      129             0.0000000000
     14859       129  CHL1      H27C           20.7030712340      -10.4310465334       -2.3447450000  MEMB      129             0.0000000000
     14860       130  SOPE      N             -21.9982022370       12.1635150923      -22.5398951976  MEMB      130             0.0000000000
     14861       130  SOPE      HN1           -21.1392963785       11.6324347509      -22.2912301641  MEMB      130             0.0000000000
     14862       130  SOPE      HN2           -22.6898996860       11.4852001892      -22.9181060005  MEMB      130             0.0000000000
     14863       130  SOPE      HN3           -21.7373732867       12.8674441334      -23.2596537406  MEMB      130             0.0000000000
     14864       130  SOPE      C12           -22.6173102901       12.9738611800      -21.3861469673  MEMB      130             0.0000000000
     14865       130  SOPE      H12A          -23.3559556461       12.3037855747      -20.8965319482  MEMB      130             0.0000000000
     14866       130  SOPE      H12B          -23.2435227314       13.7609268700      -21.8580650147  MEMB      130             0.0000000000
     14867       130  SOPE      C11           -21.5214922322       13.5433337655      -20.4942884498  MEMB      130             0.0000000000
     14868       130  SOPE      H11A          -21.4452735538       12.9932345904      -19.5320501416  MEMB      130             0.0000000000
     14869       130  SOPE      H11B          -21.9042493777       14.5764469906      -20.3511278940  MEMB      130             0.0000000000
     14870       130  SOPE      P             -19.0528978675       14.5420601680      -20.7565681289  MEMB      130             0.0000000000
     14871       130  SOPE      O13           -19.5392284729       15.8744099743      -20.4257602103  MEMB      130             0.0000000000
     14872       130  SOPE      O14           -18.0543171235       14.3607186115      -21.8038903819  MEMB      130             0.0000000000
     14873       130  SOPE      O12           -20.2474027155       13.6621905667      -21.1455248072  MEMB      130             0.0000000000
     14874       130  SOPE      O11           -18.5403295655       13.7297168203      -19.4479258610  MEMB      130             0.0000000000
     14875       130  SOPE      C1            -17.9609084706       14.2387416725      -18.2540272883  MEMB      130             0.0000000000
     14876       130  SOPE      HA            -17.6605622360       15.3081524780      -18.2322617608  MEMB      130             0.0000000000
     14877       130  SOPE      HB            -17.0341730546       13.6585939341      -18.0567690610  MEMB      130             0.0000000000
     14878       130  SOPE      C2            -18.9482160150       14.2074097793      -16.9948871913  MEMB      130             0.0000000000
     14879       130  SOPE      HS            -18.2799504235       14.3603810912      -16.1206207395  MEMB      130             0.0000000000
     14880       130  SOPE      O21           -19.7110033081       13.0044239295      -16.9138055978  MEMB      130             0.0000000000
     14881       130  SOPE      C21           -18.9232959488       11.9487275953      -16.7142012228  MEMB      130             0.0000000000
     14882       130  SOPE      O22           -17.7291537666       11.9047780337      -16.5462526926  MEMB      130             0.0000000000
     14883       130  SOPE      C22           -19.7135407138       10.6092693413      -16.9164670072  MEMB      130             0.0000000000
     14884       130  SOPE      H2R           -18.9470061905        9.8376431115      -16.6898860658  MEMB      130             0.0000000000
     14885       130  SOPE      H2S           -20.0209863135       10.5540527511      -17.9826516777  MEMB      130             0.0000000000
     14886       130  SOPE      C3            -19.9969995283       15.3227469561      -16.9541269124  MEMB      130             0.0000000000
     14887       130  SOPE      HX            -20.8076222903       15.1172221642      -17.6855442989  MEMB      130             0.0000000000
     14888       130  SOPE      HY            -19.6410634821       16.2616965685      -17.4295255368  MEMB      130             0.0000000000
     14889       130  SOPE      O31           -20.5577029445       15.3754322419      -15.6726641052  MEMB      130             0.0000000000
     14890       130  SOPE      C31           -19.9656318348       15.9591354411      -14.6855512724  MEMB      130             0.0000000000
     14891       130  SOPE      O32           -19.0085885343       16.7325373107      -14.7170076712  MEMB      130             0.0000000000
     14892       130  SOPE      C32           -20.6381558451       15.5399528807      -13.3307194512  MEMB      130             0.0000000000
     14893       130  SOPE      H2X           -20.6819491676       16.3503987553      -12.5720492910  MEMB      130             0.0000000000
     14894       130  SOPE      H2Y           -19.9207285911       14.8537724605      -12.8319455063  MEMB      130             0.0000000000
     14895       130  SOPE      C23           -20.9188699569       10.4917296017      -15.9243748990  MEMB      130             0.0000000000
     14896       130  SOPE      H3R           -21.7737507898        9.9714592727      -16.4068881368  MEMB      130             0.0000000000
     14897       130  SOPE      H3S           -21.3347825106       11.4793790752      -15.6313115235  MEMB      130             0.0000000000
     14898       130  SOPE      C24           -20.5073244896        9.7282534240      -14.5912459215  MEMB      130             0.0000000000
     14899       130  SOPE      H4R           -21.3486828646        9.7755754591      -13.8672308700  MEMB      130             0.0000000000
     14900       130  SOPE      H4S           -20.5098332771        8.6507924791      -14.8621558849  MEMB      130             0.0000000000
     14901       130  SOPE      C25           -19.2071303170       10.3535511852      -13.9669983598  MEMB      130             0.0000000000
     14902       130  SOPE      H5R           -18.3549536403       10.3147847387      -14.6787660317  MEMB      130             0.0000000000
     14903       130  SOPE      H5S           -19.2944833370       11.4369219309      -13.7367846545  MEMB      130             0.0000000000
     14904       130  SOPE      C26           -18.6908877106        9.6694162222      -12.7040853717  MEMB      130             0.0000000000
     14905       130  SOPE      H6R           -18.3894968223        8.6703622954      -13.0853670931  MEMB      130             0.0000000000
     14906       130  SOPE      H6S           -17.7694371005       10.0550857791      -12.2177633700  MEMB      130             0.0000000000
     14907       130  SOPE      C27           -19.7859788590        9.4795584786      -11.6464363714  MEMB      130             0.0000000000
     14908       130  SOPE      H7R           -20.5207918076        8.6929843986      -11.9215220673  MEMB      130             0.0000000000
     14909       130  SOPE      H7S           -19.2278119394        8.9414030637      -10.8507227390  MEMB      130             0.0000000000
     14910       130  SOPE      C28           -20.5261669731       10.6643519536      -11.0987222348  MEMB      130             0.0000000000
     14911       130  SOPE      H8R           -21.0318495803       11.3278156236      -11.8324952958  MEMB      130             0.0000000000
     14912       130  SOPE      H8S           -21.3348847610       10.3188795283      -10.4197924040  MEMB      130             0.0000000000
     14913       130  SOPE      C29           -19.4549191504       11.4321321283      -10.3354050256  MEMB      130             0.0000000000
     14914       130  SOPE      H91           -18.4651301574       11.5191006816      -10.8073723412  MEMB      130             0.0000000000
     14915       130  SOPE      C210          -19.5366697651       11.9367270829       -9.0597184070  MEMB      130             0.0000000000
     14916       130  SOPE      H101          -18.6576920778       12.4356660757       -8.6256009450  MEMB      130             0.0000000000
     14917       130  SOPE      C211          -20.7733658561       11.8481308429       -8.1964422404  MEMB      130             0.0000000000
     14918       130  SOPE      H11R          -21.6432877374       11.5680340843       -8.8281877238  MEMB      130             0.0000000000
     14919       130  SOPE      H11S          -20.9916623569       12.8487054610       -7.7657238309  MEMB      130             0.0000000000
     14920       130  SOPE      C212          -20.5950344579       10.7790104775       -7.1317008490  MEMB      130             0.0000000000
     14921       130  SOPE      H12R          -20.4403599528        9.7981628238       -7.6300327729  MEMB      130             0.0000000000
     14922       130  SOPE      H12S          -21.5198939808       10.8320766035       -6.5183982512  MEMB      130             0.0000000000
     14923       130  SOPE      C213          -19.5652378600       11.0957321009       -6.0369953918  MEMB      130             0.0000000000
     14924       130  SOPE      H13R          -18.5391395322       11.1098506903       -6.4627222100  MEMB      130             0.0000000000
     14925       130  SOPE      H13S          -19.7944745891       10.2326053840       -5.3760984934  MEMB      130             0.0000000000
     14926       130  SOPE      C214          -19.8572947252       12.3974380662       -5.2520931436  MEMB      130             0.0000000000
     14927       130  SOPE      H14R          -20.9073269641       12.3955574698       -4.8891197586  MEMB      130             0.0000000000
     14928       130  SOPE      H14S          -19.6706803791       13.2823254740       -5.8974383884  MEMB      130             0.0000000000
     14929       130  SOPE      C215          -18.9199750109       12.6208172729       -3.9660417405  MEMB      130             0.0000000000
     14930       130  SOPE      H15R          -18.6877839446       13.6989656977       -3.8318626138  MEMB      130             0.0000000000
     14931       130  SOPE      H15S          -17.9862572402       12.0386209438       -4.1194650422  MEMB      130             0.0000000000
     14932       130  SOPE      C216          -19.6094060695       12.0877017649       -2.6809659427  MEMB      130             0.0000000000
     14933       130  SOPE      H16R          -20.5412479866       12.6860787995       -2.5918771756  MEMB      130             0.0000000000
     14934       130  SOPE      H16S          -19.0295905540       12.3490158680       -1.7700048855  MEMB      130             0.0000000000
     14935       130  SOPE      C217          -19.8670106465       10.5587788515       -2.6773502052  MEMB      130             0.0000000000
     14936       130  SOPE      H17R          -20.5339556636       10.2969542952       -3.5264400067  MEMB      130             0.0000000000
     14937       130  SOPE      H17S          -20.2292672769       10.2680313844       -1.6681132699  MEMB      130             0.0000000000
     14938       130  SOPE      C218          -18.5619691935        9.7745776871       -2.7770818745  MEMB      130             0.0000000000
     14939       130  SOPE      H18R          -18.8180335940        8.6970229934       -2.6897476888  MEMB      130             0.0000000000
     14940       130  SOPE      H18S          -17.8764929435       10.0991126356       -1.9652201981  MEMB      130             0.0000000000
     14941       130  SOPE      H18T          -18.0999745760       10.0037285760       -3.7611406700  MEMB      130             0.0000000000
     14942       130  SOPE      C33           -22.0101280364       15.0161297109      -13.4714420362  MEMB      130             0.0000000000
     14943       130  SOPE      H3X           -21.9811364970       14.0668740657      -14.0479787099  MEMB      130             0.0000000000
     14944       130  SOPE      H3Y           -22.6458556107       15.7625447795      -13.9939703791  MEMB      130             0.0000000000
     14945       130  SOPE      C34           -22.8870712344       14.9506293987      -12.2461272200  MEMB      130             0.0000000000
     14946       130  SOPE      H4X           -23.9635263991       14.7486581634      -12.4326019166  MEMB      130             0.0000000000
     14947       130  SOPE      H4Y           -22.9374511180       15.9282520371      -11.7207350748  MEMB      130             0.0000000000
     14948       130  SOPE      C35           -22.4747981836       13.9480478712      -11.0906984986  MEMB      130             0.0000000000
     14949       130  SOPE      H5X           -21.4390524249       14.2019042880      -10.7790758720  MEMB      130             0.0000000000
     14950       130  SOPE      H5Y           -22.4685217442       12.8774031772      -11.3873489255  MEMB      130             0.0000000000
     14951       130  SOPE      C36           -23.2685966180       14.1079982498       -9.7446452452  MEMB      130             0.0000000000
     14952       130  SOPE      H6X           -23.7047152525       15.1155260930       -9.5743237015  MEMB      130             0.0000000000
     14953       130  SOPE      H6Y           -22.6348588738       13.8458522951       -8.8705873269  MEMB      130             0.0000000000
     14954       130  SOPE      C37           -24.3601378527       12.9863622855       -9.6564832470  MEMB      130             0.0000000000
     14955       130  SOPE      H7X           -23.9438426108       11.9662301670       -9.7991357719  MEMB      130             0.0000000000
     14956       130  SOPE      H7Y           -25.0009418834       13.0869883314      -10.5584619218  MEMB      130             0.0000000000
     14957       130  SOPE      C38           -25.2390273847       13.0717942184       -8.4300989353  MEMB      130             0.0000000000
     14958       130  SOPE      H8X           -26.1533033237       12.4508415709       -8.5434050803  MEMB      130             0.0000000000
     14959       130  SOPE      H8Y           -25.5748026918       14.1133527111       -8.2384430400  MEMB      130             0.0000000000
     14960       130  SOPE      C39           -24.6426787312       12.7344210672       -7.1247326057  MEMB      130             0.0000000000
     14961       130  SOPE      H9X           -23.8306336304       13.4152577888       -6.7910182308  MEMB      130             0.0000000000
     14962       130  SOPE      H9Y           -24.2616879740       11.6939734355       -7.2061938138  MEMB      130             0.0000000000
     14963       130  SOPE      C310          -25.6763821376       12.7728702986       -5.9349145499  MEMB      130             0.0000000000
     14964       130  SOPE      H10X          -26.6552143119       12.2961022147       -6.1560505833  MEMB      130             0.0000000000
     14965       130  SOPE      H10Y          -25.9184798994       13.8515817461       -5.8249545535  MEMB      130             0.0000000000
     14966       130  SOPE      C311          -25.0185609498       12.1191737234       -4.7393584493  MEMB      130             0.0000000000
     14967       130  SOPE      H11X          -23.9792632430       12.4603169217       -4.5449299660  MEMB      130             0.0000000000
     14968       130  SOPE      H11Y          -24.8684406930       11.0298373850       -4.8978868889  MEMB      130             0.0000000000
     14969       130  SOPE      C312          -25.8857956290       12.2618898203       -3.5112139428  MEMB      130             0.0000000000
     14970       130  SOPE      H12X          -26.7972337287       11.6267614038       -3.5258346849  MEMB      130             0.0000000000
     14971       130  SOPE      H12Y          -26.2674566626       13.3035595000       -3.4513813317  MEMB      130             0.0000000000
     14972       130  SOPE      C313          -25.1504771529       11.9649444280       -2.1750306398  MEMB      130             0.0000000000
     14973       130  SOPE      H13X          -24.2772974924       12.6477502445       -2.0998316567  MEMB      130             0.0000000000
     14974       130  SOPE      H13Y          -24.7442383181       10.9337412750       -2.2519142459  MEMB      130             0.0000000000
     14975       130  SOPE      C314          -25.9896803056       11.8339806136       -0.8856133623  MEMB      130             0.0000000000
     14976       130  SOPE      H14X          -25.5237377111       11.1931148974       -0.1068260653  MEMB      130             0.0000000000
     14977       130  SOPE      H14Y          -26.9525807200       11.3263461270       -1.1079895157  MEMB      130             0.0000000000
     14978       130  SOPE      C315          -26.3917993948       13.1671125560       -0.2483768813  MEMB      130             0.0000000000
     14979       130  SOPE      H15X          -27.0447532055       12.9455287357        0.6227556023  MEMB      130             0.0000000000
     14980       130  SOPE      H15Y          -27.0924803270       13.5716624185       -1.0097621553  MEMB      130             0.0000000000
     14981       130  SOPE      C316          -25.3328080324       14.1338013122        0.1005941255  MEMB      130             0.0000000000
     14982       130  SOPE      H16X          -25.8491343663       15.0760872172        0.3831281134  MEMB      130             0.0000000000
     14983       130  SOPE      H16Y          -24.6293486254       14.4017250194       -0.7165232111  MEMB      130             0.0000000000
     14984       130  SOPE      C317          -24.4728497424       13.6636780870        1.3139747553  MEMB      130             0.0000000000
     14985       130  SOPE      H17X          -25.0194578937       13.1110044266        2.1077599174  MEMB      130             0.0000000000
     14986       130  SOPE      H17Y          -24.2024802732       14.6229820035        1.8048485640  MEMB      130             0.0000000000
     14987       130  SOPE      C318          -23.2434169866       12.8801331496        1.0339446247  MEMB      130             0.0000000000
     14988       130  SOPE      H18X          -22.5698578864       12.8467227453        1.9168501487  MEMB      130             0.0000000000
     14989       130  SOPE      H18Y          -22.5735211642       13.2980742016        0.2523536661  MEMB      130             0.0000000000
     14990       130  SOPE      H18Z          -23.4958761003       11.8161725849        0.8375439919  MEMB      130             0.0000000000
     14991       131  OSM       N              -3.3314397762       24.3144328161      -22.7161916662  MEMB      131             0.0000000000
     14992       131  OSM       C15            -3.0202745255       25.1965709810      -23.9973481704  MEMB      131             0.0000000000
     14993       131  OSM       H15A           -2.7227834945       26.1822949052      -23.6713920491  MEMB      131             0.0000000000
     14994       131  OSM       H15B           -3.9710075528       25.2321587992      -24.5084650025  MEMB      131             0.0000000000
     14995       131  OSM       H15C           -2.2560947941       24.6950006717      -24.5725495492  MEMB      131             0.0000000000
     14996       131  OSM       C14            -4.2442958340       25.1149983831      -21.9115877818  MEMB      131             0.0000000000
     14997       131  OSM       H14A           -5.0681756887       25.4131124578      -22.5430542728  MEMB      131             0.0000000000
     14998       131  OSM       H14B           -3.7461352484       25.9952080487      -21.5328175881  MEMB      131             0.0000000000
     14999       131  OSM       H14C           -4.6887478268       24.5166705888      -21.1300083639  MEMB      131             0.0000000000
     15000       131  OSM       C13            -3.9927825002       22.9694401970      -23.1980290361  MEMB      131             0.0000000000
     15001       131  OSM       H13A           -3.4483147077       22.6656026903      -24.0798666250  MEMB      131             0.0000000000
     15002       131  OSM       H13B           -5.0477304058       23.1007005237      -23.3884385389  MEMB      131             0.0000000000
     15003       131  OSM       H13C           -3.8444933062       22.2540657540      -22.4026363835  MEMB      131             0.0000000000
     15004       131  OSM       C12            -2.1338696175       23.9473552613      -21.8950393505  MEMB      131             0.0000000000
     15005       131  OSM       H12A           -1.5103805669       23.2885053268      -22.4811949531  MEMB      131             0.0000000000
     15006       131  OSM       H12B           -2.4120946780       23.2648266038      -21.1056436534  MEMB      131             0.0000000000
     15007       131  OSM       C11            -1.1646858597       25.0239743740      -21.3451395482  MEMB      131             0.0000000000
     15008       131  OSM       H11A           -0.7933246238       25.7509333180      -22.0987591250  MEMB      131             0.0000000000
     15009       131  OSM       H11B           -0.3634760376       24.3606668524      -20.9547463638  MEMB      131             0.0000000000
     15010       131  OSM       P              -0.8303410013       26.3950036490      -19.1674698285  MEMB      131             0.0000000000
     15011       131  OSM       O13             0.5725163684       25.9271032964      -19.2697518472  MEMB      131             0.0000000000
     15012       131  OSM       O14            -1.0971820064       27.8539009245      -19.3734620056  MEMB      131             0.0000000000
     15013       131  OSM       O11            -1.4425358323       25.7959277775      -17.8373447704  MEMB      131             0.0000000000
     15014       131  OSM       O12            -1.7536559845       25.6701727379      -20.2886359940  MEMB      131             0.0000000000
     15015       131  OSM       C1S            -2.5257957551       24.9846228809      -17.7989557540  MEMB      131             0.0000000000
     15016       131  OSM       H1S            -2.4648103811       24.2165593851      -18.5993806995  MEMB      131             0.0000000000
     15017       131  OSM       H1T            -3.5118482222       25.4964862592      -17.7947756317  MEMB      131             0.0000000000
     15018       131  OSM       NF             -2.4953391059       25.1788188567      -15.2798631647  MEMB      131             0.0000000000
     15019       131  OSM       HNF            -1.5639648077       25.3620229231      -14.9749250846  MEMB      131             0.0000000000
     15020       131  OSM       C2S            -2.4313871871       24.2712793973      -16.3968520865  MEMB      131             0.0000000000
     15021       131  OSM       H2S            -3.3347359725       23.6392762639      -16.2595418805  MEMB      131             0.0000000000
     15022       131  OSM       C3S            -1.1278376640       23.4451575692      -16.2260993430  MEMB      131             0.0000000000
     15023       131  OSM       H3S            -0.2238806986       24.0702244296      -16.0633900196  MEMB      131             0.0000000000
     15024       131  OSM       O3             -0.8204013350       22.7994638554      -17.4298051484  MEMB      131             0.0000000000
     15025       131  OSM       HO3            -1.2767479298       23.2846869228      -18.1211128215  MEMB      131             0.0000000000
     15026       131  OSM       C4S            -1.2309760899       22.4278987604      -15.1115827624  MEMB      131             0.0000000000
     15027       131  OSM       H4S            -2.1408705199       21.8100246988      -15.1295739839  MEMB      131             0.0000000000
     15028       131  OSM       C5S            -0.3798011188       22.2814919365      -14.1248176361  MEMB      131             0.0000000000
     15029       131  OSM       H5S             0.4071791393       23.0318666977      -13.9586860365  MEMB      131             0.0000000000
     15030       131  OSM       C6S            -0.5939998726       21.2515723236      -13.0435896015  MEMB      131             0.0000000000
     15031       131  OSM       H6S             0.0231533935       20.3422178618      -13.2064309515  MEMB      131             0.0000000000
     15032       131  OSM       H6T            -1.6611805088       20.9500957875      -12.9760731908  MEMB      131             0.0000000000
     15033       131  OSM       C7S            -0.3290160648       21.8561473459      -11.5921619562  MEMB      131             0.0000000000
     15034       131  OSM       H7S            -0.8094670794       21.0782773391      -10.9609671926  MEMB      131             0.0000000000
     15035       131  OSM       H7T            -0.9623822517       22.7561128552      -11.4397463252  MEMB      131             0.0000000000
     15036       131  OSM       C8S             1.1285145871       22.1218718779      -11.1747391049  MEMB      131             0.0000000000
     15037       131  OSM       H8S             1.2457416219       23.1970014157      -11.4290532794  MEMB      131             0.0000000000
     15038       131  OSM       H8T             1.8423570614       21.5309294572      -11.7875494937  MEMB      131             0.0000000000
     15039       131  OSM       C9S             1.3474313035       21.8480085317       -9.6814211099  MEMB      131             0.0000000000
     15040       131  OSM       H9S             2.2924307160       22.3577642647       -9.3960340931  MEMB      131             0.0000000000
     15041       131  OSM       H9T             1.4587856819       20.7451872573       -9.6058768663  MEMB      131             0.0000000000
     15042       131  OSM       C10S            0.2930003454       22.2676424397       -8.7352930043  MEMB      131             0.0000000000
     15043       131  OSM       H10S           -0.5938649864       21.6133136027       -8.8754527733  MEMB      131             0.0000000000
     15044       131  OSM       H10T            0.0117544412       23.3227360901       -8.9402297643  MEMB      131             0.0000000000
     15045       131  OSM       C11S            0.7385190533       22.0607916470       -7.2717551118  MEMB      131             0.0000000000
     15046       131  OSM       H11S            1.6976223567       22.6114923209       -7.1660653982  MEMB      131             0.0000000000
     15047       131  OSM       H11T            0.7824273823       20.9580896461       -7.1435300344  MEMB      131             0.0000000000
     15048       131  OSM       C12S           -0.2097325641       22.5765806170       -6.2595184599  MEMB      131             0.0000000000
     15049       131  OSM       H12S           -0.5357110417       23.5905715652       -6.5755586071  MEMB      131             0.0000000000
     15050       131  OSM       H12T            0.3966236635       22.7870597630       -5.3526821884  MEMB      131             0.0000000000
     15051       131  OSM       C13S           -1.2590660170       21.5984053090       -5.8090372698  MEMB      131             0.0000000000
     15052       131  OSM       H13S           -0.7486589060       20.6156804373       -5.7192766020  MEMB      131             0.0000000000
     15053       131  OSM       H13T           -1.9391876929       21.4858030240       -6.6802871924  MEMB      131             0.0000000000
     15054       131  OSM       C14S           -2.1718584607       21.9894270847       -4.5978405869  MEMB      131             0.0000000000
     15055       131  OSM       H14S           -1.5153467547       21.8520508745       -3.7121540233  MEMB      131             0.0000000000
     15056       131  OSM       H14T           -3.0144938151       21.2732882120       -4.4909200883  MEMB      131             0.0000000000
     15057       131  OSM       C15S           -2.9020378296       23.3696897054       -4.6580849123  MEMB      131             0.0000000000
     15058       131  OSM       H15S           -3.7350180036       23.2578468426       -5.3846909802  MEMB      131             0.0000000000
     15059       131  OSM       H15T           -2.2624025218       24.2503327193       -4.8809199518  MEMB      131             0.0000000000
     15060       131  OSM       C16S           -3.7791814458       23.6415966360       -3.3193334473  MEMB      131             0.0000000000
     15061       131  OSM       H16S           -4.4978468465       22.8108201022       -3.1530462347  MEMB      131             0.0000000000
     15062       131  OSM       H16T           -4.3729859125       24.5803469594       -3.3408945609  MEMB      131             0.0000000000
     15063       131  OSM       C17S           -3.0012858470       23.6449022772       -1.9765314873  MEMB      131             0.0000000000
     15064       131  OSM       H17S           -2.3025047596       24.5078024282       -2.0143375649  MEMB      131             0.0000000000
     15065       131  OSM       H17T           -2.4278623576       22.6998596866       -1.8651715297  MEMB      131             0.0000000000
     15066       131  OSM       C18S           -3.9821888348       23.8537938912       -0.8254737911  MEMB      131             0.0000000000
     15067       131  OSM       H18S           -4.6771360197       22.9994181605       -0.6791471081  MEMB      131             0.0000000000
     15068       131  OSM       H18T           -4.5178747627       24.8109029809       -1.0024019547  MEMB      131             0.0000000000
     15069       131  OSM       H18U           -3.5456936573       23.8416005198        0.1961149594  MEMB      131             0.0000000000
     15070       131  OSM       C1F            -3.5870467810       25.8820106578      -14.8872007731  MEMB      131             0.0000000000
     15071       131  OSM       OF             -4.7213667191       25.8143342960      -15.4531365954  MEMB      131             0.0000000000
     15072       131  OSM       C2F            -3.4544510935       26.7451072471      -13.6774348078  MEMB      131             0.0000000000
     15073       131  OSM       H2F            -3.5700122244       27.8113137881      -13.9675556149  MEMB      131             0.0000000000
     15074       131  OSM       H2G            -2.4968536693       26.4814837202      -13.1796082970  MEMB      131             0.0000000000
     15075       131  OSM       C3F            -4.5476292661       26.2984683740      -12.7162063505  MEMB      131             0.0000000000
     15076       131  OSM       H3F            -5.5001762651       26.7478455721      -13.0698091170  MEMB      131             0.0000000000
     15077       131  OSM       H3G            -4.4711934468       26.8777537764      -11.7712683234  MEMB      131             0.0000000000
     15078       131  OSM       C4F            -4.5273348267       24.8122850951      -12.3088994513  MEMB      131             0.0000000000
     15079       131  OSM       H4F            -4.6031500300       24.1851614407      -13.2228406301  MEMB      131             0.0000000000
     15080       131  OSM       H4G            -5.4121797837       24.5935825740      -11.6736514818  MEMB      131             0.0000000000
     15081       131  OSM       C5F            -3.3396634012       24.2809294394      -11.5314490838  MEMB      131             0.0000000000
     15082       131  OSM       H5F            -2.4188442456       24.7136715265      -11.9777083962  MEMB      131             0.0000000000
     15083       131  OSM       H5G            -3.2315356926       23.2382277991      -11.8994201498  MEMB      131             0.0000000000
     15084       131  OSM       C6F            -3.5570828625       24.1435001639       -9.9609367399  MEMB      131             0.0000000000
     15085       131  OSM       H6F            -3.0566654211       23.2190382032       -9.6013904790  MEMB      131             0.0000000000
     15086       131  OSM       H6G            -4.6459629284       24.1068766049       -9.7434051089  MEMB      131             0.0000000000
     15087       131  OSM       C7F            -2.9057766418       25.2297984651       -9.2031006048  MEMB      131             0.0000000000
     15088       131  OSM       H7F            -3.1563732094       26.2221541077       -9.6352498634  MEMB      131             0.0000000000
     15089       131  OSM       H7G            -1.8222794890       25.0565347786       -9.3772682557  MEMB      131             0.0000000000
     15090       131  OSM       C8F            -3.1353789560       25.1174504146       -7.6599099557  MEMB      131             0.0000000000
     15091       131  OSM       H8F            -2.2951139313       25.7527878445       -7.3068918263  MEMB      131             0.0000000000
     15092       131  OSM       H8G            -2.8005493696       24.0671426662       -7.5218377295  MEMB      131             0.0000000000
     15093       131  OSM       C9F            -4.4564699790       25.3380992455       -6.9649208985  MEMB      131             0.0000000000
     15094       131  OSM       H9F            -5.1460909155       24.5047193010       -6.7651684903  MEMB      131             0.0000000000
     15095       131  OSM       C10F           -4.8410386894       26.4635074630       -6.2652006484  MEMB      131             0.0000000000
     15096       131  OSM       H10F           -5.8604811700       26.5299973403       -5.8573822377  MEMB      131             0.0000000000
     15097       131  OSM       C11F           -3.9681724539       27.6686876340       -6.0217811740  MEMB      131             0.0000000000
     15098       131  OSM       H11F           -4.7405178702       28.4285041014       -5.7758492349  MEMB      131             0.0000000000
     15099       131  OSM       H11G           -3.5455971857       27.9702730299       -7.0040221389  MEMB      131             0.0000000000
     15100       131  OSM       C12F           -2.9393875895       27.4250745486       -4.9434564178  MEMB      131             0.0000000000
     15101       131  OSM       H12F           -2.3508368848       28.3628381758       -4.8511061300  MEMB      131             0.0000000000
     15102       131  OSM       H12G           -2.2039367593       26.6143194171       -5.1334805669  MEMB      131             0.0000000000
     15103       131  OSM       C13F           -3.7407362153       27.3238757854       -3.5801991655  MEMB      131             0.0000000000
     15104       131  OSM       H13F           -3.0582946424       26.8976155258       -2.8141073683  MEMB      131             0.0000000000
     15105       131  OSM       H13G           -4.5350705416       26.5507231271       -3.6549570986  MEMB      131             0.0000000000
     15106       131  OSM       C14F           -4.3253459042       28.6542410580       -2.9824712643  MEMB      131             0.0000000000
     15107       131  OSM       H14F           -5.3648529372       28.9775337759       -3.2043448714  MEMB      131             0.0000000000
     15108       131  OSM       H14G           -3.6642935507       29.5122801770       -3.2296553348  MEMB      131             0.0000000000
     15109       131  OSM       C15F           -4.2042245844       28.5898317015       -1.4283374392  MEMB      131             0.0000000000
     15110       131  OSM       H15F           -3.7386024812       27.6396462790       -1.0897161820  MEMB      131             0.0000000000
     15111       131  OSM       H15G           -5.2196626197       28.6734677200       -0.9853789334  MEMB      131             0.0000000000
     15112       131  OSM       C16F           -3.2883960087       29.6721553771       -0.7937007533  MEMB      131             0.0000000000
     15113       131  OSM       H16F           -3.3734847919       29.5871033537        0.3107664806  MEMB      131             0.0000000000
     15114       131  OSM       H16G           -3.5700661540       30.6871473310       -1.1469335731  MEMB      131             0.0000000000
     15115       131  OSM       C17F           -1.7857975916       29.4823403960       -1.0765666124  MEMB      131             0.0000000000
     15116       131  OSM       H17F           -1.3708586614       30.3126282707       -0.4660183394  MEMB      131             0.0000000000
     15117       131  OSM       H17G           -1.6453630169       29.6169643347       -2.1704006007  MEMB      131             0.0000000000
     15118       131  OSM       C18F           -1.2211554352       28.1839271961       -0.5626120651  MEMB      131             0.0000000000
     15119       131  OSM       H18F           -1.2936599757       28.2321820808        0.5449698694  MEMB      131             0.0000000000
     15120       131  OSM       H18G           -0.1599916212       28.1842972414       -0.8916289077  MEMB      131             0.0000000000
     15121       131  OSM       H18H           -1.7328702292       27.3205245391       -1.0390622479  MEMB      131             0.0000000000
     15122       132  CHL1      C3             13.1782424186       21.9213395738      -17.3628550000  MEMB      132             0.0000000000
     15123       132  CHL1      H3             12.6396205961       22.8534058468      -17.6375550000  MEMB      132             0.0000000000
     15124       132  CHL1      O3             13.7457051814       21.3949806262      -18.6371450000  MEMB      132             0.0000000000
     15125       132  CHL1      H3'            12.9425688863       21.2192307714      -19.1328050000  MEMB      132             0.0000000000
     15126       132  CHL1      C4             14.3768835404       22.3645158910      -16.4821050000  MEMB      132             0.0000000000
     15127       132  CHL1      H4A            15.2116681949       21.6369699004      -16.5723050000  MEMB      132             0.0000000000
     15128       132  CHL1      H4B            14.8949051965       23.2319512156      -16.9441950000  MEMB      132             0.0000000000
     15129       132  CHL1      C5             14.1361770482       22.5808677262      -15.0082150000  MEMB      132             0.0000000000
     15130       132  CHL1      C6             14.5627646692       23.6970036542      -14.3561450000  MEMB      132             0.0000000000
     15131       132  CHL1      H6             15.1406066668       24.4556824155      -14.9043250000  MEMB      132             0.0000000000
     15132       132  CHL1      C7             14.2990815879       23.9889450974      -12.9003450000  MEMB      132             0.0000000000
     15133       132  CHL1      H7A            15.2172076363       24.4022293523      -12.4307050000  MEMB      132             0.0000000000
     15134       132  CHL1      H7B            13.4219615257       24.6611086066      -12.7854750000  MEMB      132             0.0000000000
     15135       132  CHL1      C8             13.8698650537       22.6814095641      -12.1082150000  MEMB      132             0.0000000000
     15136       132  CHL1      H8             14.7909742804       22.0609645102      -12.0778250000  MEMB      132             0.0000000000
     15137       132  CHL1      C14            13.4377209302       22.9119872583      -10.6973450000  MEMB      132             0.0000000000
     15138       132  CHL1      H14            12.5904849690       23.6306716768      -10.7007150000  MEMB      132             0.0000000000
     15139       132  CHL1      C15            14.4000600938       23.6187190099       -9.7603550000  MEMB      132             0.0000000000
     15140       132  CHL1      H15A           15.4293525132       23.2143470483       -9.8670050000  MEMB      132             0.0000000000
     15141       132  CHL1      H15B           14.5790089177       24.6945858115       -9.9720350000  MEMB      132             0.0000000000
     15142       132  CHL1      C16            13.9624959998       23.1411000052       -8.3557550000  MEMB      132             0.0000000000
     15143       132  CHL1      H16A           14.8532901872       22.7367597057       -7.8291450000  MEMB      132             0.0000000000
     15144       132  CHL1      H16B           13.4782059085       24.0384781722       -7.9147450000  MEMB      132             0.0000000000
     15145       132  CHL1      C17            12.8464339855       22.1134783589       -8.5759150000  MEMB      132             0.0000000000
     15146       132  CHL1      H17            11.8981499845       22.6891377987       -8.5151150000  MEMB      132             0.0000000000
     15147       132  CHL1      C13            13.0357246918       21.6220766391      -10.0009850000  MEMB      132             0.0000000000
     15148       132  CHL1      C18            14.1526469956       20.6072774268      -10.0212150000  MEMB      132             0.0000000000
     15149       132  CHL1      H18A           13.9256376928       19.6835116245       -9.4472450000  MEMB      132             0.0000000000
     15150       132  CHL1      H18B           14.5666089849       20.4222956863      -11.0354850000  MEMB      132             0.0000000000
     15151       132  CHL1      H18C           14.9329578270       21.0257059547       -9.3501350000  MEMB      132             0.0000000000
     15152       132  CHL1      C12            11.7855828342       21.0971703156      -10.7576650000  MEMB      132             0.0000000000
     15153       132  CHL1      H12A           11.2832711636       20.2494596572      -10.2444550000  MEMB      132             0.0000000000
     15154       132  CHL1      H12B           10.9462622385       21.8241526248      -10.7207950000  MEMB      132             0.0000000000
     15155       132  CHL1      C11            12.0988167934       20.8456553019      -12.1851150000  MEMB      132             0.0000000000
     15156       132  CHL1      H11A           12.6129583726       19.8623569814      -12.2409450000  MEMB      132             0.0000000000
     15157       132  CHL1      H11B           11.1494721842       20.7120716869      -12.7465550000  MEMB      132             0.0000000000
     15158       132  CHL1      C9             12.8307920805       21.9224932912      -12.9669450000  MEMB      132             0.0000000000
     15159       132  CHL1      H9             12.0577419898       22.7012466527      -13.1408750000  MEMB      132             0.0000000000
     15160       132  CHL1      C10            13.3505231469       21.5319471754      -14.3868450000  MEMB      132             0.0000000000
     15161       132  CHL1      C19            14.1471337462       20.1604856599      -14.2657150000  MEMB      132             0.0000000000
     15162       132  CHL1      H19A           14.8597239592       20.1116835233      -15.1166850000  MEMB      132             0.0000000000
     15163       132  CHL1      H19B           14.6788090023       20.2435507723      -13.2937350000  MEMB      132             0.0000000000
     15164       132  CHL1      H19C           13.4647436745       19.2847539482      -14.3075950000  MEMB      132             0.0000000000
     15165       132  CHL1      C1             12.0447455626       21.4470994975      -15.2512650000  MEMB      132             0.0000000000
     15166       132  CHL1      H1A            11.2490077798       20.8030803315      -14.8195650000  MEMB      132             0.0000000000
     15167       132  CHL1      H1B            11.4756039160       22.3878295824      -15.4107250000  MEMB      132             0.0000000000
     15168       132  CHL1      C2             12.3100641710       20.9407982279      -16.6567650000  MEMB      132             0.0000000000
     15169       132  CHL1      H2A            11.3551258996       20.8664741889      -17.2197050000  MEMB      132             0.0000000000
     15170       132  CHL1      H2B            12.7198466810       19.9082302506      -16.6708050000  MEMB      132             0.0000000000
     15171       132  CHL1      C20            12.6894420726       21.0620841413       -7.4244950000  MEMB      132             0.0000000000
     15172       132  CHL1      H20            13.6983784042       20.6320230576       -7.2472650000  MEMB      132             0.0000000000
     15173       132  CHL1      C21            11.7186334140       19.9206319032       -7.7494150000  MEMB      132             0.0000000000
     15174       132  CHL1      H21A           10.7008235323       20.3516339480       -7.8618050000  MEMB      132             0.0000000000
     15175       132  CHL1      H21B           11.6172159222       19.3050001106       -6.8301650000  MEMB      132             0.0000000000
     15176       132  CHL1      H21C           12.0380693756       19.2391889144       -8.5666750000  MEMB      132             0.0000000000
     15177       132  CHL1      C22            12.3653459496       21.8462424487       -6.1595750000  MEMB      132             0.0000000000
     15178       132  CHL1      H22A           11.9663003547       22.8576637016       -6.3878750000  MEMB      132             0.0000000000
     15179       132  CHL1      H22B           11.4725035760       21.3763912001       -5.6943950000  MEMB      132             0.0000000000
     15180       132  CHL1      C23            13.4716364190       21.9763192872       -4.9701050000  MEMB      132             0.0000000000
     15181       132  CHL1      H23A           14.3000782753       22.6291621299       -5.3190950000  MEMB      132             0.0000000000
     15182       132  CHL1      H23B           12.9893788786       22.3796000545       -4.0540750000  MEMB      132             0.0000000000
     15183       132  CHL1      C24            14.0397250541       20.6217976760       -4.5587750000  MEMB      132             0.0000000000
     15184       132  CHL1      H24A           13.1864799015       19.9272775615       -4.4040950000  MEMB      132             0.0000000000
     15185       132  CHL1      H24B           14.6654126026       20.0556082372       -5.2814650000  MEMB      132             0.0000000000
     15186       132  CHL1      C25            14.8572418441       20.6739021950       -3.2141950000  MEMB      132             0.0000000000
     15187       132  CHL1      H25            14.1353243445       20.9411540032       -2.4131150000  MEMB      132             0.0000000000
     15188       132  CHL1      C26            15.4670142593       19.3337749221       -2.7922750000  MEMB      132             0.0000000000
     15189       132  CHL1      H26A           14.6813185241       18.5577092969       -2.9135850000  MEMB      132             0.0000000000
     15190       132  CHL1      H26B           16.3006680761       19.0826299555       -3.4824050000  MEMB      132             0.0000000000
     15191       132  CHL1      H26C           15.9095699716       19.3981850239       -1.7752550000  MEMB      132             0.0000000000
     15192       132  CHL1      C27            16.0416018578       21.6558469523       -3.3751350000  MEMB      132             0.0000000000
     15193       132  CHL1      H27A           16.5592882701       21.4580549781       -4.3380450000  MEMB      132             0.0000000000
     15194       132  CHL1      H27B           15.7587301488       22.7240619438       -3.4901050000  MEMB      132             0.0000000000
     15195       132  CHL1      H27C           16.7778094658       21.6404207301       -2.5432250000  MEMB      132             0.0000000000
     15196       133  POPC      N              13.0623973883      -23.8295534704      -17.5511954229  MEMB      133             0.0000000000
     15197       133  POPC      C12            11.8295516461      -23.1865712504      -18.1637677411  MEMB      133             0.0000000000
     15198       133  POPC      H12A           11.7077811580      -22.2095937845      -17.7198229808  MEMB      133             0.0000000000
     15199       133  POPC      H12B           11.0174387077      -23.7987928497      -17.8003707660  MEMB      133             0.0000000000
     15200       133  POPC      C13            13.3901386404      -25.1210228806      -18.3547343395  MEMB      133             0.0000000000
     15201       133  POPC      H13A           14.4660123131      -25.2151594786      -18.3605911592  MEMB      133             0.0000000000
     15202       133  POPC      H13B           12.8188411938      -25.8836969252      -17.8464550136  MEMB      133             0.0000000000
     15203       133  POPC      H13C           13.1251108914      -25.0553528626      -19.3996495536  MEMB      133             0.0000000000
     15204       133  POPC      C14            14.2419510034      -22.8630852839      -17.6034189558  MEMB      133             0.0000000000
     15205       133  POPC      H14A           14.7029150679      -22.8069361486      -18.5784878967  MEMB      133             0.0000000000
     15206       133  POPC      H14B           13.8894283524      -21.8604527486      -17.4114398266  MEMB      133             0.0000000000
     15207       133  POPC      H14C           15.0775012533      -23.1541626793      -16.9841214834  MEMB      133             0.0000000000
     15208       133  POPC      C15            12.7620914115      -24.1372448713      -16.0773957366  MEMB      133             0.0000000000
     15209       133  POPC      H15A           13.6303982883      -24.6676905781      -15.7153590005  MEMB      133             0.0000000000
     15210       133  POPC      H15B           11.8033700120      -24.6223089394      -15.9680063146  MEMB      133             0.0000000000
     15211       133  POPC      H15C           12.6595965757      -23.1978810738      -15.5544325781  MEMB      133             0.0000000000
     15212       133  POPC      C11            11.8029515114      -22.8227463899      -19.6665902977  MEMB      133             0.0000000000
     15213       133  POPC      H11A           10.8405630449      -22.2869534881      -19.8116952226  MEMB      133             0.0000000000
     15214       133  POPC      H11B           11.6660477955      -23.6717267763      -20.3700181395  MEMB      133             0.0000000000
     15215       133  POPC      P              12.7952773988      -20.5498078808      -20.4077525489  MEMB      133             0.0000000000
     15216       133  POPC      O13            11.8942572560      -20.2756708269      -21.5976394456  MEMB      133             0.0000000000
     15217       133  POPC      O14            14.1215188260      -19.9357392924      -20.3709910918  MEMB      133             0.0000000000
     15218       133  POPC      O12            12.9116380415      -22.1184495294      -20.1788932125  MEMB      133             0.0000000000
     15219       133  POPC      O11            12.1169763366      -20.1420080979      -19.0276212346  MEMB      133             0.0000000000
     15220       133  POPC      C1             11.5392659969      -18.9054430783      -19.0469066819  MEMB      133             0.0000000000
     15221       133  POPC      HA             10.5620881575      -18.9641540206      -19.5722614123  MEMB      133             0.0000000000
     15222       133  POPC      HB             12.2448741503      -18.1232177229      -19.3998396561  MEMB      133             0.0000000000
     15223       133  POPC      C2             11.2302965801      -18.5204510630      -17.6385230753  MEMB      133             0.0000000000
     15224       133  POPC      HS             11.2852238806      -17.4238668231      -17.4687968120  MEMB      133             0.0000000000
     15225       133  POPC      O21            12.1599313115      -19.0788408189      -16.6863464125  MEMB      133             0.0000000000
     15226       133  POPC      C21            13.2856430530      -18.4116308130      -16.3689854089  MEMB      133             0.0000000000
     15227       133  POPC      O22            13.7039623557      -17.4019300948      -16.9727212419  MEMB      133             0.0000000000
     15228       133  POPC      C22            13.9732838604      -19.0639670676      -15.2141925482  MEMB      133             0.0000000000
     15229       133  POPC      H2R            14.7769458546      -19.7768024086      -15.4975904485  MEMB      133             0.0000000000
     15230       133  POPC      H2S            13.2222349342      -19.5863957925      -14.5838634228  MEMB      133             0.0000000000
     15231       133  POPC      C3              9.8017957704      -18.8692137516      -17.2021065602  MEMB      133             0.0000000000
     15232       133  POPC      HX              9.1185433350      -18.5728810219      -18.0265300512  MEMB      133             0.0000000000
     15233       133  POPC      HY              9.4722303426      -18.3489854508      -16.2774066968  MEMB      133             0.0000000000
     15234       133  POPC      O31             9.5663839891      -20.2707955535      -16.9609242511  MEMB      133             0.0000000000
     15235       133  POPC      C31             8.3101692608      -20.5733947579      -16.5454651178  MEMB      133             0.0000000000
     15236       133  POPC      O32             7.4909525090      -19.7496314431      -16.2274572337  MEMB      133             0.0000000000
     15237       133  POPC      C32             8.1782749068      -22.1440508259      -16.3351243174  MEMB      133             0.0000000000
     15238       133  POPC      H2X             8.8358081456      -22.6705036944      -17.0595679795  MEMB      133             0.0000000000
     15239       133  POPC      H2Y             7.1556601264      -22.5458393822      -16.4998842904  MEMB      133             0.0000000000
     15240       133  POPC      C23            14.6894486851      -18.0217702875      -14.2448094591  MEMB      133             0.0000000000
     15241       133  POPC      H3R            13.8899169770      -17.3798020701      -13.8170866578  MEMB      133             0.0000000000
     15242       133  POPC      H3S            15.4287901717      -17.3317145686      -14.7047203206  MEMB      133             0.0000000000
     15243       133  POPC      C24            15.4395346836      -18.6067604686      -13.0740830407  MEMB      133             0.0000000000
     15244       133  POPC      H4R            15.7449118928      -17.7632878139      -12.4186292257  MEMB      133             0.0000000000
     15245       133  POPC      H4S            16.3374724794      -19.2172554419      -13.3092943564  MEMB      133             0.0000000000
     15246       133  POPC      C25            14.6442185853      -19.4007691362      -12.0915909917  MEMB      133             0.0000000000
     15247       133  POPC      H5R            14.4769434441      -20.4208354104      -12.4987825573  MEMB      133             0.0000000000
     15248       133  POPC      H5S            13.7384051583      -18.8450116216      -11.7676209921  MEMB      133             0.0000000000
     15249       133  POPC      C26            15.4104626670      -19.6921527615      -10.8057833607  MEMB      133             0.0000000000
     15250       133  POPC      H6R            16.0108318660      -18.7960970679      -10.5393952721  MEMB      133             0.0000000000
     15251       133  POPC      H6S            16.0147425167      -20.6156636397      -10.9334335924  MEMB      133             0.0000000000
     15252       133  POPC      C27            14.5084384339      -19.7373273348       -9.5692338406  MEMB      133             0.0000000000
     15253       133  POPC      H7R            13.5725067604      -20.2721477137       -9.8381588040  MEMB      133             0.0000000000
     15254       133  POPC      H7S            14.2461685728      -18.7695353108       -9.0907845519  MEMB      133             0.0000000000
     15255       133  POPC      C28            15.1221779008      -20.5928636719       -8.4170609531  MEMB      133             0.0000000000
     15256       133  POPC      H8R            15.2832792075      -21.6346012859       -8.7679874736  MEMB      133             0.0000000000
     15257       133  POPC      H8S            14.3151947409      -20.6755739123       -7.6579446201  MEMB      133             0.0000000000
     15258       133  POPC      C29            16.3283929451      -20.0433590850       -7.6739754583  MEMB      133             0.0000000000
     15259       133  POPC      H91            17.2363318526      -20.5578957791       -8.0216807195  MEMB      133             0.0000000000
     15260       133  POPC      C210           16.4068470447      -19.0744176940       -6.6856404380  MEMB      133             0.0000000000
     15261       133  POPC      H101           17.4036009116      -18.8947950222       -6.2564360823  MEMB      133             0.0000000000
     15262       133  POPC      C211           15.2029275702      -18.3265531229       -6.1166745649  MEMB      133             0.0000000000
     15263       133  POPC      H11R           14.2779763294      -18.6552765897       -6.6369895771  MEMB      133             0.0000000000
     15264       133  POPC      H11S           15.3360362583      -17.2238276432       -6.1411556918  MEMB      133             0.0000000000
     15265       133  POPC      C212           15.0129078301      -18.6750719405       -4.6059145034  MEMB      133             0.0000000000
     15266       133  POPC      H12R           14.8573744972      -19.7657811582       -4.4627925750  MEMB      133             0.0000000000
     15267       133  POPC      H12S           14.0976598489      -18.1847204995       -4.2106968946  MEMB      133             0.0000000000
     15268       133  POPC      C213           16.2317569652      -18.2391143942       -3.7184995491  MEMB      133             0.0000000000
     15269       133  POPC      H13R           16.3062799110      -17.1449083084       -3.8959253407  MEMB      133             0.0000000000
     15270       133  POPC      H13S           17.1805458885      -18.6650461338       -4.1092714684  MEMB      133             0.0000000000
     15271       133  POPC      C214           16.1069649838      -18.6762985974       -2.2454538133  MEMB      133             0.0000000000
     15272       133  POPC      H14R           17.0861498544      -18.4521753438       -1.7708102636  MEMB      133             0.0000000000
     15273       133  POPC      H14S           16.1868947907      -19.7814866723       -2.1648823251  MEMB      133             0.0000000000
     15274       133  POPC      C215           14.9714544898      -18.0811919888       -1.4457713045  MEMB      133             0.0000000000
     15275       133  POPC      H15R           13.9823057821      -18.4702701354       -1.7690719293  MEMB      133             0.0000000000
     15276       133  POPC      H15S           14.8694359373      -16.9749795826       -1.4601980716  MEMB      133             0.0000000000
     15277       133  POPC      C216           15.0277010570      -18.3427709071        0.0664520979  MEMB      133             0.0000000000
     15278       133  POPC      H16R           15.9190259249      -17.9401093683        0.5934487506  MEMB      133             0.0000000000
     15279       133  POPC      H16S           15.1906829128      -19.4391903420        0.1414382759  MEMB      133             0.0000000000
     15280       133  POPC      C217           13.8268443645      -17.9033094136        0.9006676981  MEMB      133             0.0000000000
     15281       133  POPC      H17R           13.8412749604      -16.7924177189        0.9063151884  MEMB      133             0.0000000000
     15282       133  POPC      H17S           13.7481538098      -18.2022873542        1.9677858602  MEMB      133             0.0000000000
     15283       133  POPC      C218           12.3515836521      -18.1333214346        0.4486880115  MEMB      133             0.0000000000
     15284       133  POPC      H18R           12.1200437660      -19.1925384443        0.2062648725  MEMB      133             0.0000000000
     15285       133  POPC      H18S           12.1210647367      -17.5030448600       -0.4367117341  MEMB      133             0.0000000000
     15286       133  POPC      H18T           11.6859601679      -17.7988129152        1.2729262844  MEMB      133             0.0000000000
     15287       133  POPC      C33             8.5688797278      -22.5670440375      -14.8893610133  MEMB      133             0.0000000000
     15288       133  POPC      H3X             8.6467383074      -23.6746840371      -14.9266800109  MEMB      133             0.0000000000
     15289       133  POPC      H3Y             7.8523278740      -22.2225559341      -14.1133439264  MEMB      133             0.0000000000
     15290       133  POPC      C34            10.0427905326      -22.1691772334      -14.6091363013  MEMB      133             0.0000000000
     15291       133  POPC      H4X            10.5334172603      -22.1803820805      -15.6058712405  MEMB      133             0.0000000000
     15292       133  POPC      H4Y            10.5533632358      -23.0167078565      -14.1038360893  MEMB      133             0.0000000000
     15293       133  POPC      C35            10.2835215421      -20.8315199672      -13.8492199383  MEMB      133             0.0000000000
     15294       133  POPC      H5X             9.2666836700      -20.3849866203      -13.8180810630  MEMB      133             0.0000000000
     15295       133  POPC      H5Y            10.8705534683      -20.2644924717      -14.6030067057  MEMB      133             0.0000000000
     15296       133  POPC      C36            11.1288741234      -20.9670151848      -12.5155190120  MEMB      133             0.0000000000
     15297       133  POPC      H6X            11.5958937999      -19.9822671466      -12.2999156061  MEMB      133             0.0000000000
     15298       133  POPC      H6Y            11.8407611933      -21.8105694271      -12.6418291006  MEMB      133             0.0000000000
     15299       133  POPC      C37            10.1073668654      -21.2514532365      -11.2962010012  MEMB      133             0.0000000000
     15300       133  POPC      H7X             9.5042253391      -22.1405286605      -11.5791964808  MEMB      133             0.0000000000
     15301       133  POPC      H7Y             9.4881851551      -20.3295756968      -11.3290197700  MEMB      133             0.0000000000
     15302       133  POPC      C38            10.7452487674      -21.4906359223       -9.9608312411  MEMB      133             0.0000000000
     15303       133  POPC      H8X            11.2706442500      -20.5988874630       -9.5570185351  MEMB      133             0.0000000000
     15304       133  POPC      H8Y            11.6094622283      -22.1875424743      -10.0029903587  MEMB      133             0.0000000000
     15305       133  POPC      C39             9.8236534008      -21.8423029886       -8.8173378100  MEMB      133             0.0000000000
     15306       133  POPC      H9X             9.3970367334      -22.8611685057       -8.9366342890  MEMB      133             0.0000000000
     15307       133  POPC      H9Y             8.9235388216      -21.1921084072       -8.7804340287  MEMB      133             0.0000000000
     15308       133  POPC      C310           10.5800214677      -21.7655100971       -7.4470720302  MEMB      133             0.0000000000
     15309       133  POPC      H10X           10.9578474982      -20.7314914334       -7.2974941225  MEMB      133             0.0000000000
     15310       133  POPC      H10Y           11.5267449572      -22.3262709525       -7.6006382156  MEMB      133             0.0000000000
     15311       133  POPC      C311            9.7859753266      -22.1923220618       -6.1874682730  MEMB      133             0.0000000000
     15312       133  POPC      H11X            9.4183682199      -23.2345426308       -6.3013203058  MEMB      133             0.0000000000
     15313       133  POPC      H11Y            8.9538460409      -21.4566166579       -6.2123601499  MEMB      133             0.0000000000
     15314       133  POPC      C312           10.4478924466      -22.0982772600       -4.7984550777  MEMB      133             0.0000000000
     15315       133  POPC      H12X           11.3601564115      -22.7204585197       -4.9208719396  MEMB      133             0.0000000000
     15316       133  POPC      H12Y            9.7039838609      -22.4030608575       -4.0316245907  MEMB      133             0.0000000000
     15317       133  POPC      C313           11.0235736211      -20.7203989583       -4.3367392125  MEMB      133             0.0000000000
     15318       133  POPC      H13X           10.0731548647      -20.3314935292       -3.9127365871  MEMB      133             0.0000000000
     15319       133  POPC      H13Y           11.3554888739      -20.1576549991       -5.2353340572  MEMB      133             0.0000000000
     15320       133  POPC      C314           12.0466433218      -20.8184804862       -3.1851516091  MEMB      133             0.0000000000
     15321       133  POPC      H14X           12.3176431819      -19.8599746910       -2.6930676219  MEMB      133             0.0000000000
     15322       133  POPC      H14Y           12.9554756428      -21.2293811604       -3.6745453844  MEMB      133             0.0000000000
     15323       133  POPC      C315           11.8071049083      -21.9210378155       -2.0987617155  MEMB      133             0.0000000000
     15324       133  POPC      H15X           11.5675827395      -22.8635959661       -2.6359152166  MEMB      133             0.0000000000
     15325       133  POPC      H15Y           10.9073233906      -21.5819309208       -1.5422362542  MEMB      133             0.0000000000
     15326       133  POPC      C316           12.9735480219      -22.1378450398       -1.1227419250  MEMB      133             0.0000000000
     15327       133  POPC      H16X           13.1320700916      -21.1750290861       -0.5915380336  MEMB      133             0.0000000000
     15328       133  POPC      H16Y           13.9521327906      -22.3514169804       -1.6034489275  MEMB      133             0.0000000000
     15329       133  POPC      H16Z           12.7614841647      -22.9964630054       -0.4503396584  MEMB      133             0.0000000000
     15330       134  OSM       N             -16.8218630983       21.3835362702      -20.3039131750  MEMB      134             0.0000000000
     15331       134  OSM       C15           -17.4386577128       21.1983422803      -21.6965986479  MEMB      134             0.0000000000
     15332       134  OSM       H15A          -16.6974895329       21.4491518654      -22.4410206606  MEMB      134             0.0000000000
     15333       134  OSM       H15B          -18.3611503106       21.7584313122      -21.7379209387  MEMB      134             0.0000000000
     15334       134  OSM       H15C          -17.7983561880       20.2067270417      -21.9283666333  MEMB      134             0.0000000000
     15335       134  OSM       C14           -16.2262726755       22.7704101447      -20.1839498362  MEMB      134             0.0000000000
     15336       134  OSM       H14A          -17.0392824708       23.4594045013      -20.3591690369  MEMB      134             0.0000000000
     15337       134  OSM       H14B          -15.4595535168       22.9866291664      -20.9131899089  MEMB      134             0.0000000000
     15338       134  OSM       H14C          -15.7861020364       22.9054637139      -19.2070105042  MEMB      134             0.0000000000
     15339       134  OSM       C13           -17.9468610876       21.2847846955      -19.2742027141  MEMB      134             0.0000000000
     15340       134  OSM       H13A          -18.4443436485       22.2351312302      -19.3997123910  MEMB      134             0.0000000000
     15341       134  OSM       H13B          -17.4782790220       21.2472040540      -18.3018762195  MEMB      134             0.0000000000
     15342       134  OSM       H13C          -18.5793989165       20.4332352094      -19.4770794555  MEMB      134             0.0000000000
     15343       134  OSM       C12           -15.8277129625       20.3011181606      -19.9688456081  MEMB      134             0.0000000000
     15344       134  OSM       H12A          -16.3310548679       19.4343302017      -19.5666943591  MEMB      134             0.0000000000
     15345       134  OSM       H12B          -15.1574819191       20.5757058586      -19.1677265700  MEMB      134             0.0000000000
     15346       134  OSM       C11           -15.0899698948       19.6891298865      -21.1673053452  MEMB      134             0.0000000000
     15347       134  OSM       H11A          -15.7579498573       19.1736529506      -21.8900827061  MEMB      134             0.0000000000
     15348       134  OSM       H11B          -14.3948601377       18.9784394004      -20.6712586453  MEMB      134             0.0000000000
     15349       134  OSM       P             -12.8743346801       21.0481301802      -21.7656343907  MEMB      134             0.0000000000
     15350       134  OSM       O13           -12.2284295929       19.8331882046      -21.2516104402  MEMB      134             0.0000000000
     15351       134  OSM       O14           -12.3122183975       21.6145733156      -22.9584353708  MEMB      134             0.0000000000
     15352       134  OSM       O11           -12.7676132330       22.1170629274      -20.4934276511  MEMB      134             0.0000000000
     15353       134  OSM       O12           -14.4085849653       20.7177029333      -21.9360768234  MEMB      134             0.0000000000
     15354       134  OSM       C1S           -11.8430094139       21.7446652868      -19.4060819170  MEMB      134             0.0000000000
     15355       134  OSM       H1S           -10.8289882522       22.1503837597      -19.6097352089  MEMB      134             0.0000000000
     15356       134  OSM       H1T           -11.6759562277       20.6554110674      -19.2648744740  MEMB      134             0.0000000000
     15357       134  OSM       NF            -13.4404457426       21.4700499493      -17.5762378522  MEMB      134             0.0000000000
     15358       134  OSM       HNF           -14.3114069335       21.9540746385      -17.6102343979  MEMB      134             0.0000000000
     15359       134  OSM       C2S           -12.3421785324       22.3143557603      -18.0949256450  MEMB      134             0.0000000000
     15360       134  OSM       H2S           -11.5201566843       22.2884001272      -17.3479801048  MEMB      134             0.0000000000
     15361       134  OSM       C3S           -13.0096140827       23.7315048644      -18.1296761715  MEMB      134             0.0000000000
     15362       134  OSM       H3S           -13.8987760410       23.7712870300      -18.7946043187  MEMB      134             0.0000000000
     15363       134  OSM       O3            -12.0871490704       24.6989491509      -18.7450693569  MEMB      134             0.0000000000
     15364       134  OSM       HO3           -11.3352376610       24.2535868153      -19.1424126427  MEMB      134             0.0000000000
     15365       134  OSM       C4S           -13.3448982816       24.1662531793      -16.6786750045  MEMB      134             0.0000000000
     15366       134  OSM       H4S           -14.4250997754       24.1666046234      -16.4709136940  MEMB      134             0.0000000000
     15367       134  OSM       C5S           -12.4395932200       24.4861828688      -15.7579783390  MEMB      134             0.0000000000
     15368       134  OSM       H5S           -11.3993468993       24.6846616559      -16.0554576817  MEMB      134             0.0000000000
     15369       134  OSM       C6S           -12.8242149810       24.8709603273      -14.3936069127  MEMB      134             0.0000000000
     15370       134  OSM       H6S           -13.6253277448       25.6381313909      -14.4567528766  MEMB      134             0.0000000000
     15371       134  OSM       H6T           -11.9221595324       25.3253771647      -13.9308732392  MEMB      134             0.0000000000
     15372       134  OSM       C7S           -13.2827674218       23.7020772061      -13.3824301855  MEMB      134             0.0000000000
     15373       134  OSM       H7S           -14.0445803916       23.1040606433      -13.9267994008  MEMB      134             0.0000000000
     15374       134  OSM       H7T           -13.7792526106       24.1469105436      -12.4936401265  MEMB      134             0.0000000000
     15375       134  OSM       C8S           -12.0768125097       22.8899411209      -12.9089633644  MEMB      134             0.0000000000
     15376       134  OSM       H8S           -11.3074827810       23.3464492667      -12.2501365637  MEMB      134             0.0000000000
     15377       134  OSM       H8T           -11.4172306442       22.8420785973      -13.8017018810  MEMB      134             0.0000000000
     15378       134  OSM       C9S           -12.3337252468       21.4660005606      -12.3682217944  MEMB      134             0.0000000000
     15379       134  OSM       H9S           -11.3792637506       20.9199101682      -12.2097617437  MEMB      134             0.0000000000
     15380       134  OSM       H9T           -12.8751400109       21.0699959975      -13.2538695592  MEMB      134             0.0000000000
     15381       134  OSM       C10S          -13.2363704977       21.2779074370      -11.1332667461  MEMB      134             0.0000000000
     15382       134  OSM       H10S          -13.3209325384       20.1872300008      -10.9393773547  MEMB      134             0.0000000000
     15383       134  OSM       H10T          -14.2362812237       21.7354203100      -11.2919533710  MEMB      134             0.0000000000
     15384       134  OSM       C11S          -12.7550046334       22.0877373482       -9.9047551020  MEMB      134             0.0000000000
     15385       134  OSM       H11S          -12.5642729211       23.1676587517      -10.0828339368  MEMB      134             0.0000000000
     15386       134  OSM       H11T          -11.7650351629       21.6279892729       -9.6975992774  MEMB      134             0.0000000000
     15387       134  OSM       C12S          -13.6774622165       21.9438817019       -8.7079138681  MEMB      134             0.0000000000
     15388       134  OSM       H12S          -13.9147405956       20.8599983648       -8.6511966647  MEMB      134             0.0000000000
     15389       134  OSM       H12T          -14.6649822531       22.4326737330       -8.8500667686  MEMB      134             0.0000000000
     15390       134  OSM       C13S          -13.1184260426       22.1797409902       -7.2954508900  MEMB      134             0.0000000000
     15391       134  OSM       H13S          -12.6870876985       23.2035067081       -7.2823383762  MEMB      134             0.0000000000
     15392       134  OSM       H13T          -12.2656523131       21.5305958286       -7.0026911142  MEMB      134             0.0000000000
     15393       134  OSM       C14S          -14.1442689679       22.0999487610       -6.1024058441  MEMB      134             0.0000000000
     15394       134  OSM       H14S          -13.6475450435       21.6595941783       -5.2115217977  MEMB      134             0.0000000000
     15395       134  OSM       H14T          -14.9038077682       21.3322485444       -6.3632852743  MEMB      134             0.0000000000
     15396       134  OSM       C15S          -14.8608940806       23.4351079383       -5.8618238091  MEMB      134             0.0000000000
     15397       134  OSM       H15S          -15.4527119547       23.5615473321       -6.7935344922  MEMB      134             0.0000000000
     15398       134  OSM       H15T          -14.1197998448       24.2559104391       -5.7551293129  MEMB      134             0.0000000000
     15399       134  OSM       C16S          -15.7637015948       23.4643472399       -4.6206389695  MEMB      134             0.0000000000
     15400       134  OSM       H16S          -16.6034695689       22.7749135232       -4.8525685565  MEMB      134             0.0000000000
     15401       134  OSM       H16T          -16.1826200950       24.4886508466       -4.5225021476  MEMB      134             0.0000000000
     15402       134  OSM       C17S          -15.1678763896       23.0753080291       -3.2538180142  MEMB      134             0.0000000000
     15403       134  OSM       H17S          -14.7570418789       22.0496873382       -3.1370347136  MEMB      134             0.0000000000
     15404       134  OSM       H17T          -15.9645332587       23.3199351174       -2.5190952599  MEMB      134             0.0000000000
     15405       134  OSM       C18S          -14.1254382117       24.0754042127       -2.8031313180  MEMB      134             0.0000000000
     15406       134  OSM       H18S          -13.3928573799       23.7242065327       -2.0453011329  MEMB      134             0.0000000000
     15407       134  OSM       H18T          -14.6210652227       24.9226076040       -2.2826297727  MEMB      134             0.0000000000
     15408       134  OSM       H18U          -13.6265783665       24.4989552731       -3.7009420012  MEMB      134             0.0000000000
     15409       134  OSM       C1F           -13.3731763836       20.2394164286      -17.0408598029  MEMB      134             0.0000000000
     15410       134  OSM       OF            -12.2886372695       19.6160689537      -17.0358172022  MEMB      134             0.0000000000
     15411       134  OSM       C2F           -14.6736978577       19.7889369552      -16.2890266421  MEMB      134             0.0000000000
     15412       134  OSM       H2F           -15.2814249855       19.4406496804      -17.1513984685  MEMB      134             0.0000000000
     15413       134  OSM       H2G           -15.2084031535       20.6729113177      -15.8803696580  MEMB      134             0.0000000000
     15414       134  OSM       C3F           -14.4118937922       18.7659621102      -15.1217878436  MEMB      134             0.0000000000
     15415       134  OSM       H3F           -13.4499835130       18.8993100689      -14.5820958149  MEMB      134             0.0000000000
     15416       134  OSM       H3G           -14.4118271692       17.7496883311      -15.5706849499  MEMB      134             0.0000000000
     15417       134  OSM       C4F           -15.5869887973       18.7275390393      -14.1545355680  MEMB      134             0.0000000000
     15418       134  OSM       H4F           -16.5047176058       18.5532656583      -14.7559696732  MEMB      134             0.0000000000
     15419       134  OSM       H4G           -15.7973615285       19.7230828803      -13.7084898990  MEMB      134             0.0000000000
     15420       134  OSM       C5F           -15.5364098749       17.6456551740      -13.0993678763  MEMB      134             0.0000000000
     15421       134  OSM       H5F           -14.7825083762       17.8619950526      -12.3125069777  MEMB      134             0.0000000000
     15422       134  OSM       H5G           -15.1839583504       16.6768159797      -13.5134330256  MEMB      134             0.0000000000
     15423       134  OSM       C6F           -16.8592245081       17.4961648810      -12.3771787905  MEMB      134             0.0000000000
     15424       134  OSM       H6F           -16.7612267821       16.6834559700      -11.6260315670  MEMB      134             0.0000000000
     15425       134  OSM       H6G           -17.5310321120       17.0966786164      -13.1667393611  MEMB      134             0.0000000000
     15426       134  OSM       C7F           -17.3502452764       18.7215555699      -11.6213317517  MEMB      134             0.0000000000
     15427       134  OSM       H7F           -17.5755920484       19.5556704433      -12.3197528865  MEMB      134             0.0000000000
     15428       134  OSM       H7G           -16.4502353847       19.0332962540      -11.0493864176  MEMB      134             0.0000000000
     15429       134  OSM       C8F           -18.6176565953       18.5882181725      -10.7392340951  MEMB      134             0.0000000000
     15430       134  OSM       H8F           -19.3090133231       18.1955536964      -11.5152243755  MEMB      134             0.0000000000
     15431       134  OSM       H8G           -18.9890795865       19.5316487053      -10.2850270950  MEMB      134             0.0000000000
     15432       134  OSM       C9F           -18.3542580340       17.6570716684       -9.5778071089  MEMB      134             0.0000000000
     15433       134  OSM       H9F           -18.5945515810       16.5898546644       -9.6931623730  MEMB      134             0.0000000000
     15434       134  OSM       C10F          -17.6710602936       17.9089094878       -8.4152178517  MEMB      134             0.0000000000
     15435       134  OSM       H10F          -17.4622534878       17.1851950502       -7.6135714347  MEMB      134             0.0000000000
     15436       134  OSM       C11F          -17.0336416878       19.2222931436       -8.1493762054  MEMB      134             0.0000000000
     15437       134  OSM       H11F          -17.1242887192       19.9247980557       -9.0052913240  MEMB      134             0.0000000000
     15438       134  OSM       H11G          -15.9890532462       19.0984362506       -7.7918632091  MEMB      134             0.0000000000
     15439       134  OSM       C12F          -17.8645820979       20.0717020825       -7.0559818057  MEMB      134             0.0000000000
     15440       134  OSM       H12F          -18.8583632833       20.2750914649       -7.5091398431  MEMB      134             0.0000000000
     15441       134  OSM       H12G          -17.4313832709       21.0786512597       -6.8751136225  MEMB      134             0.0000000000
     15442       134  OSM       C13F          -18.0917513891       19.5539695567       -5.6500073790  MEMB      134             0.0000000000
     15443       134  OSM       H13F          -18.5281265182       18.5520925300       -5.8503585138  MEMB      134             0.0000000000
     15444       134  OSM       H13G          -18.9267986865       20.1135849766       -5.1768818939  MEMB      134             0.0000000000
     15445       134  OSM       C14F          -16.9151017047       19.5385511058       -4.6605274797  MEMB      134             0.0000000000
     15446       134  OSM       H14F          -16.2743043252       20.4341581765       -4.8074541134  MEMB      134             0.0000000000
     15447       134  OSM       H14G          -16.2775604550       18.6568976352       -4.8853591713  MEMB      134             0.0000000000
     15448       134  OSM       C15F          -17.4148304744       19.3883663024       -3.1705540315  MEMB      134             0.0000000000
     15449       134  OSM       H15F          -17.8115346729       18.3591981946       -3.0372865348  MEMB      134             0.0000000000
     15450       134  OSM       H15G          -18.1810193229       20.1688341023       -2.9752452566  MEMB      134             0.0000000000
     15451       134  OSM       C16F          -16.3790136111       19.5071038509       -1.9934439517  MEMB      134             0.0000000000
     15452       134  OSM       H16F          -16.8292666512       19.6669605842       -0.9904288220  MEMB      134             0.0000000000
     15453       134  OSM       H16G          -15.7491773171       20.4098185682       -2.1442191078  MEMB      134             0.0000000000
     15454       134  OSM       C17F          -15.4307849682       18.3161998132       -1.9522359288  MEMB      134             0.0000000000
     15455       134  OSM       H17F          -14.7132832235       18.3914528593       -2.7971330416  MEMB      134             0.0000000000
     15456       134  OSM       H17G          -16.0881749182       17.4220643699       -2.0040137750  MEMB      134             0.0000000000
     15457       134  OSM       C18F          -14.7274623678       18.1623204585       -0.6181162164  MEMB      134             0.0000000000
     15458       134  OSM       H18F          -13.8729140846       18.8614545244       -0.4945031784  MEMB      134             0.0000000000
     15459       134  OSM       H18G          -14.2338564974       17.1670051617       -0.6134814352  MEMB      134             0.0000000000
     15460       134  OSM       H18H          -15.4246057442       18.2514001117        0.2423358805  MEMB      134             0.0000000000
     15461       135  SOPE      N              -6.4691608492      -27.0171589349      -20.9698585548  MEMB      135             0.0000000000
     15462       135  SOPE      HN1            -5.9999676493      -27.6185799823      -20.2629283167  MEMB      135             0.0000000000
     15463       135  SOPE      HN2            -6.3967965242      -27.4402796212      -21.9171347934  MEMB      135             0.0000000000
     15464       135  SOPE      HN3            -6.1460053584      -26.0324693703      -20.8829271727  MEMB      135             0.0000000000
     15465       135  SOPE      C12            -7.9244243502      -26.9219229833      -20.7743101924  MEMB      135             0.0000000000
     15466       135  SOPE      H12A           -7.8796974308      -26.8196869313      -19.6689287476  MEMB      135             0.0000000000
     15467       135  SOPE      H12B           -8.3313686498      -27.9468275691      -20.9095431482  MEMB      135             0.0000000000
     15468       135  SOPE      C11            -8.5499300493      -25.8082432907      -21.6182630928  MEMB      135             0.0000000000
     15469       135  SOPE      H11A           -9.6448116417      -25.8821429663      -21.4447865964  MEMB      135             0.0000000000
     15470       135  SOPE      H11B           -8.5434861916      -26.1494413987      -22.6755536838  MEMB      135             0.0000000000
     15471       135  SOPE      P              -8.9545996392      -23.3392896564      -20.9466426400  MEMB      135             0.0000000000
     15472       135  SOPE      O13            -9.8588429925      -23.0404960949      -22.0838022046  MEMB      135             0.0000000000
     15473       135  SOPE      O14            -8.0698856235      -22.3077531642      -20.3953698783  MEMB      135             0.0000000000
     15474       135  SOPE      O12            -8.0062712824      -24.5371320345      -21.3853753689  MEMB      135             0.0000000000
     15475       135  SOPE      O11            -9.8137722303      -24.0394614100      -19.8263780714  MEMB      135             0.0000000000
     15476       135  SOPE      C1             -9.3712709768      -24.5375187945      -18.5447497773  MEMB      135             0.0000000000
     15477       135  SOPE      HA             -8.2672195164      -24.4136473918      -18.5516173148  MEMB      135             0.0000000000
     15478       135  SOPE      HB             -9.5026149407      -25.6404873083      -18.5217217290  MEMB      135             0.0000000000
     15479       135  SOPE      C2            -10.0329319321      -23.8156644439      -17.3510133612  MEMB      135             0.0000000000
     15480       135  SOPE      HS            -11.1347888335      -23.9173356140      -17.4504878026  MEMB      135             0.0000000000
     15481       135  SOPE      O21            -9.7046258795      -22.4889672165      -17.2658838366  MEMB      135             0.0000000000
     15482       135  SOPE      C21           -10.1616004943      -21.6674412509      -16.3546836393  MEMB      135             0.0000000000
     15483       135  SOPE      O22           -11.1022305507      -21.8224251797      -15.5884969932  MEMB      135             0.0000000000
     15484       135  SOPE      C22            -9.4251472793      -20.3410833505      -16.5325468141  MEMB      135             0.0000000000
     15485       135  SOPE      H2R            -9.5421001414      -19.9803152083      -17.5768115056  MEMB      135             0.0000000000
     15486       135  SOPE      H2S            -8.3802576063      -20.6662835801      -16.3407882108  MEMB      135             0.0000000000
     15487       135  SOPE      C3             -9.5800862893      -24.5776496603      -16.0141368389  MEMB      135             0.0000000000
     15488       135  SOPE      HX             -9.6854417350      -25.6628466287      -16.2276053263  MEMB      135             0.0000000000
     15489       135  SOPE      HY            -10.2825546679      -24.4570748517      -15.1618920698  MEMB      135             0.0000000000
     15490       135  SOPE      O31            -8.1841281309      -24.3022021618      -15.6784870642  MEMB      135             0.0000000000
     15491       135  SOPE      C31            -7.8854529385      -24.7795810918      -14.5125470378  MEMB      135             0.0000000000
     15492       135  SOPE      O32            -8.6431323488      -25.3876528068      -13.7469849471  MEMB      135             0.0000000000
     15493       135  SOPE      C32            -6.3229748357      -24.4908767223      -14.2740511283  MEMB      135             0.0000000000
     15494       135  SOPE      H2X            -5.9954784502      -23.4639221276      -14.5431819818  MEMB      135             0.0000000000
     15495       135  SOPE      H2Y            -5.9093902131      -25.1782024159      -15.0427204370  MEMB      135             0.0000000000
     15496       135  SOPE      C23            -9.9705513089      -19.3486295183      -15.5185848086  MEMB      135             0.0000000000
     15497       135  SOPE      H3R           -11.0741204352      -19.2998037425      -15.6372117691  MEMB      135             0.0000000000
     15498       135  SOPE      H3S            -9.6599663919      -18.3475367272      -15.8869202513  MEMB      135             0.0000000000
     15499       135  SOPE      C24            -9.4553368942      -19.6305793062      -14.1216851556  MEMB      135             0.0000000000
     15500       135  SOPE      H4R            -8.9363154452      -20.6119181919      -14.1654034701  MEMB      135             0.0000000000
     15501       135  SOPE      H4S            -8.6745874547      -18.8402692863      -14.1089831542  MEMB      135             0.0000000000
     15502       135  SOPE      C25           -10.4123128623      -19.4470321992      -12.9311421216  MEMB      135             0.0000000000
     15503       135  SOPE      H5R           -10.5934882962      -18.3604498685      -12.7867970982  MEMB      135             0.0000000000
     15504       135  SOPE      H5S           -11.3556967736      -19.9791250087      -13.1785801361  MEMB      135             0.0000000000
     15505       135  SOPE      C26            -9.8779130255      -20.0865058304      -11.6269767898  MEMB      135             0.0000000000
     15506       135  SOPE      H6R           -10.1459599085      -21.1645206759      -11.6081148908  MEMB      135             0.0000000000
     15507       135  SOPE      H6S            -8.7697104015      -20.0084238791      -11.6375220724  MEMB      135             0.0000000000
     15508       135  SOPE      C27           -10.2484470353      -19.2327698413      -10.3185669109  MEMB      135             0.0000000000
     15509       135  SOPE      H7R            -9.7325060755      -18.2506746819      -10.3786925700  MEMB      135             0.0000000000
     15510       135  SOPE      H7S           -11.3550143022      -19.2889984941      -10.4002244281  MEMB      135             0.0000000000
     15511       135  SOPE      C28            -9.8561465994      -19.9344868673       -8.9975271291  MEMB      135             0.0000000000
     15512       135  SOPE      H8R            -8.7717568453      -19.8474048807       -8.7720571896  MEMB      135             0.0000000000
     15513       135  SOPE      H8S           -10.2497547362      -19.3640219106       -8.1292162977  MEMB      135             0.0000000000
     15514       135  SOPE      C29           -10.3245403749      -21.3122533256       -9.0611540738  MEMB      135             0.0000000000
     15515       135  SOPE      H91           -11.3576811962      -21.5286399948       -9.3706638940  MEMB      135             0.0000000000
     15516       135  SOPE      C210           -9.6415251416      -22.4637567272       -8.9323972719  MEMB      135             0.0000000000
     15517       135  SOPE      H101          -10.1540221302      -23.4353705452       -8.8748361828  MEMB      135             0.0000000000
     15518       135  SOPE      C211           -8.1747340634      -22.6789083749       -8.6894547481  MEMB      135             0.0000000000
     15519       135  SOPE      H11R           -7.5729126717      -21.9226418948       -9.2373535813  MEMB      135             0.0000000000
     15520       135  SOPE      H11S           -7.8061361328      -23.5780414427       -9.2279859134  MEMB      135             0.0000000000
     15521       135  SOPE      C212           -7.9266403008      -22.6174180498       -7.2035461119  MEMB      135             0.0000000000
     15522       135  SOPE      H12R           -8.0820472652      -21.5624073551       -6.8919026859  MEMB      135             0.0000000000
     15523       135  SOPE      H12S           -6.8347421037      -22.7635492537       -7.0595852421  MEMB      135             0.0000000000
     15524       135  SOPE      C213           -8.5840511330      -23.7208408628       -6.3706084929  MEMB      135             0.0000000000
     15525       135  SOPE      H13R           -8.3715697704      -24.7640880957       -6.6881110160  MEMB      135             0.0000000000
     15526       135  SOPE      H13S           -9.6911135157      -23.7123218407       -6.4636729844  MEMB      135             0.0000000000
     15527       135  SOPE      C214           -8.2322147802      -23.6885450107       -4.7655213793  MEMB      135             0.0000000000
     15528       135  SOPE      H14R           -8.5346492418      -22.7107299199       -4.3333965671  MEMB      135             0.0000000000
     15529       135  SOPE      H14S           -7.1401678403      -23.8928846845       -4.7656547212  MEMB      135             0.0000000000
     15530       135  SOPE      C215           -8.8851745915      -24.8481182193       -4.0676752513  MEMB      135             0.0000000000
     15531       135  SOPE      H15R           -8.9405420260      -25.6921611501       -4.7879850137  MEMB      135             0.0000000000
     15532       135  SOPE      H15S           -9.9011209503      -24.5327137370       -3.7472164659  MEMB      135             0.0000000000
     15533       135  SOPE      C216           -8.0164704175      -25.4305164925       -2.9945895462  MEMB      135             0.0000000000
     15534       135  SOPE      H16R           -7.1278785792      -25.7797111866       -3.5627348018  MEMB      135             0.0000000000
     15535       135  SOPE      H16S           -8.5678139952      -26.2284062143       -2.4526364821  MEMB      135             0.0000000000
     15536       135  SOPE      C217           -7.4063119604      -24.5128783811       -1.9645987259  MEMB      135             0.0000000000
     15537       135  SOPE      H17R           -8.0264923732      -23.6354709149       -1.6820146928  MEMB      135             0.0000000000
     15538       135  SOPE      H17S           -6.3430839680      -24.2726363879       -2.1794261788  MEMB      135             0.0000000000
     15539       135  SOPE      C218           -6.9817234218      -25.3704917840       -0.7718562566  MEMB      135             0.0000000000
     15540       135  SOPE      H18R           -6.2513682088      -26.1430501337       -1.0944331622  MEMB      135             0.0000000000
     15541       135  SOPE      H18S           -7.8406852525      -25.8524998496       -0.2578787540  MEMB      135             0.0000000000
     15542       135  SOPE      H18T           -6.4160554594      -24.6838806559       -0.1063444486  MEMB      135             0.0000000000
     15543       135  SOPE      C33            -5.9573543130      -24.9865014264      -12.8378394564  MEMB      135             0.0000000000
     15544       135  SOPE      H3X            -6.3718942293      -26.0106573699      -12.7212967972  MEMB      135             0.0000000000
     15545       135  SOPE      H3Y            -6.4291768154      -24.3395567536      -12.0676657721  MEMB      135             0.0000000000
     15546       135  SOPE      C34            -4.4050329617      -25.1236212766      -12.4427151049  MEMB      135             0.0000000000
     15547       135  SOPE      H4X            -3.9895724780      -24.2632340846      -13.0096788554  MEMB      135             0.0000000000
     15548       135  SOPE      H4Y            -4.1053488934      -26.1241180111      -12.8215517014  MEMB      135             0.0000000000
     15549       135  SOPE      C35            -4.1182342406      -24.8898780991      -10.9634084785  MEMB      135             0.0000000000
     15550       135  SOPE      H5X            -3.1374651427      -25.2004460159      -10.5439311278  MEMB      135             0.0000000000
     15551       135  SOPE      H5Y            -4.8026426181      -25.5329317199      -10.3697849408  MEMB      135             0.0000000000
     15552       135  SOPE      C36            -4.1994639790      -23.3506729422      -10.6163787497  MEMB      135             0.0000000000
     15553       135  SOPE      H6X            -5.2489754178      -23.1003571736      -10.3514471149  MEMB      135             0.0000000000
     15554       135  SOPE      H6Y            -3.9781852814      -22.6857372303      -11.4784791974  MEMB      135             0.0000000000
     15555       135  SOPE      C37            -3.3591449369      -23.0962969876       -9.3098371662  MEMB      135             0.0000000000
     15556       135  SOPE      H7X            -2.3056230662      -22.9561989225       -9.6335427899  MEMB      135             0.0000000000
     15557       135  SOPE      H7Y            -3.3653214102      -23.9952426833       -8.6570133207  MEMB      135             0.0000000000
     15558       135  SOPE      C38            -3.7191769154      -21.8906834754       -8.5137632967  MEMB      135             0.0000000000
     15559       135  SOPE      H8X            -4.8115650825      -21.7614987360       -8.3578134684  MEMB      135             0.0000000000
     15560       135  SOPE      H8Y            -3.3514797682      -21.0498855234       -9.1400047254  MEMB      135             0.0000000000
     15561       135  SOPE      C39            -2.9952406074      -21.8958197237       -7.1870289947  MEMB      135             0.0000000000
     15562       135  SOPE      H9X            -2.0484773392      -22.4197248005       -7.4389881542  MEMB      135             0.0000000000
     15563       135  SOPE      H9Y            -3.5061906557      -22.4683550323       -6.3836270041  MEMB      135             0.0000000000
     15564       135  SOPE      C310           -2.5624900137      -20.5578984523       -6.5313695124  MEMB      135             0.0000000000
     15565       135  SOPE      H10X           -1.6683154153      -20.1684923425       -7.0634746082  MEMB      135             0.0000000000
     15566       135  SOPE      H10Y           -2.1107757074      -20.7709828086       -5.5389627704  MEMB      135             0.0000000000
     15567       135  SOPE      C311           -3.6416529434      -19.6018922182       -6.1826752838  MEMB      135             0.0000000000
     15568       135  SOPE      H11X           -4.3061218233      -19.6158842478       -7.0729598564  MEMB      135             0.0000000000
     15569       135  SOPE      H11Y           -3.2374222172      -18.6225385685       -5.8483324550  MEMB      135             0.0000000000
     15570       135  SOPE      C312           -4.5799911166      -20.1529124737       -5.1038759231  MEMB      135             0.0000000000
     15571       135  SOPE      H12X           -3.9064140190      -20.3787259742       -4.2496963006  MEMB      135             0.0000000000
     15572       135  SOPE      H12Y           -5.0500192427      -21.0765738590       -5.5041820374  MEMB      135             0.0000000000
     15573       135  SOPE      C313           -5.8034892332      -19.2284745984       -4.6716047980  MEMB      135             0.0000000000
     15574       135  SOPE      H13X           -6.3750605238      -18.9849180079       -5.5926411505  MEMB      135             0.0000000000
     15575       135  SOPE      H13Y           -5.4309802308      -18.2443492715       -4.3151562715  MEMB      135             0.0000000000
     15576       135  SOPE      C314           -6.8010801042      -19.9149526633       -3.7228267695  MEMB      135             0.0000000000
     15577       135  SOPE      H14X           -6.2711941581      -20.2071578824       -2.7910776509  MEMB      135             0.0000000000
     15578       135  SOPE      H14Y           -7.2265452957      -20.9067110913       -3.9868640729  MEMB      135             0.0000000000
     15579       135  SOPE      C315           -7.9930912510      -18.9339017334       -3.2600906191  MEMB      135             0.0000000000
     15580       135  SOPE      H15X           -8.6513188121      -18.8092707969       -4.1463871581  MEMB      135             0.0000000000
     15581       135  SOPE      H15Y           -7.4712012452      -18.0018700007       -2.9546898412  MEMB      135             0.0000000000
     15582       135  SOPE      C316           -8.7699608477      -19.5818588246       -2.0715262772  MEMB      135             0.0000000000
     15583       135  SOPE      H16X           -8.6484955315      -20.6603786293       -2.3089340248  MEMB      135             0.0000000000
     15584       135  SOPE      H16Y           -9.8571827722      -19.3576243189       -2.1161095402  MEMB      135             0.0000000000
     15585       135  SOPE      C317           -8.1896095540      -19.2351540365       -0.6368899093  MEMB      135             0.0000000000
     15586       135  SOPE      H17X           -8.9883316868      -19.5726618521        0.0576974357  MEMB      135             0.0000000000
     15587       135  SOPE      H17Y           -8.3587857426      -18.1411385810       -0.5429205949  MEMB      135             0.0000000000
     15588       135  SOPE      C318           -6.8456912426      -19.8228783928       -0.2477348557  MEMB      135             0.0000000000
     15589       135  SOPE      H18X           -6.8241337760      -20.9166718239       -0.4413143996  MEMB      135             0.0000000000
     15590       135  SOPE      H18Y           -6.5744268753      -19.8161926305        0.8296187505  MEMB      135             0.0000000000
     15591       135  SOPE      H18Z           -6.1191387781      -19.2409625995       -0.8542136953  MEMB      135             0.0000000000
     15592       136  OSM       N             -25.3947593399        9.8672911989      -21.5720359359  MEMB      136             0.0000000000
     15593       136  OSM       C15           -24.2661025670        9.6549524717      -20.6479374876  MEMB      136             0.0000000000
     15594       136  OSM       H15A          -23.3594209698        9.4555903901      -21.1998280566  MEMB      136             0.0000000000
     15595       136  OSM       H15B          -24.4548745954        8.8147404009      -19.9961637463  MEMB      136             0.0000000000
     15596       136  OSM       H15C          -24.1672857909       10.5363202538      -20.0316372176  MEMB      136             0.0000000000
     15597       136  OSM       C14           -26.6371022896        9.7671486110      -20.7224343418  MEMB      136             0.0000000000
     15598       136  OSM       H14A          -26.7152565582        8.7799775251      -20.2914064307  MEMB      136             0.0000000000
     15599       136  OSM       H14B          -27.5403654617        9.9115015151      -21.2966101080  MEMB      136             0.0000000000
     15600       136  OSM       H14C          -26.6902123816       10.4407491497      -19.8799133158  MEMB      136             0.0000000000
     15601       136  OSM       C13           -25.4477526294       11.1856846655      -22.2319429545  MEMB      136             0.0000000000
     15602       136  OSM       H13A          -24.7057366563       11.3678590544      -22.9952415214  MEMB      136             0.0000000000
     15603       136  OSM       H13B          -25.3232528812       11.9397005709      -21.4688180042  MEMB      136             0.0000000000
     15604       136  OSM       H13C          -26.3715571460       11.3019622282      -22.7791768107  MEMB      136             0.0000000000
     15605       136  OSM       C12           -25.4459515515        8.6591172499      -22.5320429691  MEMB      136             0.0000000000
     15606       136  OSM       H12A          -24.8247028705        8.8905411914      -23.3846233665  MEMB      136             0.0000000000
     15607       136  OSM       H12B          -26.4690671379        8.5954947492      -22.8720233423  MEMB      136             0.0000000000
     15608       136  OSM       C11           -24.9217085823        7.2391323474      -22.0346667014  MEMB      136             0.0000000000
     15609       136  OSM       H11A          -23.8877315501        7.1499601273      -22.4312278670  MEMB      136             0.0000000000
     15610       136  OSM       H11B          -25.5606513374        6.5145708397      -22.5833777606  MEMB      136             0.0000000000
     15611       136  OSM       P             -25.2156857073        5.4453032159      -20.2661635936  MEMB      136             0.0000000000
     15612       136  OSM       O13           -26.5026934786        4.9830638115      -20.8556541204  MEMB      136             0.0000000000
     15613       136  OSM       O14           -23.9622791014        4.8528933042      -20.7464377059  MEMB      136             0.0000000000
     15614       136  OSM       O11           -25.3390190243        5.6193975538      -18.7522106150  MEMB      136             0.0000000000
     15615       136  OSM       O12           -25.0614589899        6.9857719286      -20.6384735739  MEMB      136             0.0000000000
     15616       136  OSM       C1S           -26.5434527795        6.1630053476      -18.1566439954  MEMB      136             0.0000000000
     15617       136  OSM       H1S           -27.3897514196        5.4541533539      -18.2816572755  MEMB      136             0.0000000000
     15618       136  OSM       H1T           -26.8047169528        7.1411050112      -18.6142279918  MEMB      136             0.0000000000
     15619       136  OSM       NF            -27.6506285569        6.4028752201      -16.0823081710  MEMB      136             0.0000000000
     15620       136  OSM       HNF           -28.0035072085        7.3273859174      -15.9607942168  MEMB      136             0.0000000000
     15621       136  OSM       C2S           -26.3355788636        6.3926196502      -16.6524119326  MEMB      136             0.0000000000
     15622       136  OSM       H2S           -25.9058586080        5.4165036938      -16.3411898661  MEMB      136             0.0000000000
     15623       136  OSM       C3S           -25.5344313079        7.6097424841      -16.2600734712  MEMB      136             0.0000000000
     15624       136  OSM       H3S           -26.0865880480        8.5367702866      -16.5247687652  MEMB      136             0.0000000000
     15625       136  OSM       O3            -24.3029926644        7.5579760096      -16.9566201164  MEMB      136             0.0000000000
     15626       136  OSM       HO3           -24.3055291402        6.6842039760      -17.3542581520  MEMB      136             0.0000000000
     15627       136  OSM       C4S           -25.2385583061        7.6345124790      -14.7903195584  MEMB      136             0.0000000000
     15628       136  OSM       H4S           -24.4827428428        6.9366274593      -14.4008333216  MEMB      136             0.0000000000
     15629       136  OSM       C5S           -25.8763359351        8.4971911186      -13.9091971450  MEMB      136             0.0000000000
     15630       136  OSM       H5S           -26.7486900102        8.9763655311      -14.3775883536  MEMB      136             0.0000000000
     15631       136  OSM       C6S           -25.7124028267        8.6689209688      -12.4343565196  MEMB      136             0.0000000000
     15632       136  OSM       H6S           -26.7057562503        8.5860266721      -11.9437460846  MEMB      136             0.0000000000
     15633       136  OSM       H6T           -25.2884241187        9.6805436927      -12.2577708822  MEMB      136             0.0000000000
     15634       136  OSM       C7S           -24.8440346323        7.6272905119      -11.6804425300  MEMB      136             0.0000000000
     15635       136  OSM       H7S           -23.8116967870        7.5039497502      -12.0720877810  MEMB      136             0.0000000000
     15636       136  OSM       H7T           -25.2993290538        6.6180823785      -11.7727833887  MEMB      136             0.0000000000
     15637       136  OSM       C8S           -24.6357045912        7.9961239187      -10.1599791140  MEMB      136             0.0000000000
     15638       136  OSM       H8S           -25.4973460035        8.4855207217       -9.6575983178  MEMB      136             0.0000000000
     15639       136  OSM       H8T           -23.8439287037        8.7623891199      -10.3022787299  MEMB      136             0.0000000000
     15640       136  OSM       C9S           -24.2553629798        6.8024861382       -9.3024788791  MEMB      136             0.0000000000
     15641       136  OSM       H9S           -23.6178535790        6.2051708408       -9.9888590504  MEMB      136             0.0000000000
     15642       136  OSM       H9T           -25.1315638772        6.1647085993       -9.0578709905  MEMB      136             0.0000000000
     15643       136  OSM       C10S          -23.6164674942        7.1325568771       -7.9373599655  MEMB      136             0.0000000000
     15644       136  OSM       H10S          -22.8738054494        7.9487248109       -8.0663712285  MEMB      136             0.0000000000
     15645       136  OSM       H10T          -23.1272629459        6.2217810231       -7.5305584831  MEMB      136             0.0000000000
     15646       136  OSM       C11S          -24.5438995424        7.6628606420       -6.8804409445  MEMB      136             0.0000000000
     15647       136  OSM       H11S          -24.8533332294        8.6368481730       -7.3162390987  MEMB      136             0.0000000000
     15648       136  OSM       H11T          -24.0072591328        7.9023222742       -5.9375751456  MEMB      136             0.0000000000
     15649       136  OSM       C12S          -25.7904961604        6.9518961610       -6.6096359135  MEMB      136             0.0000000000
     15650       136  OSM       H12S          -26.5087437236        6.9634239154       -7.4571669170  MEMB      136             0.0000000000
     15651       136  OSM       H12T          -26.2659969976        7.6070922559       -5.8487563516  MEMB      136             0.0000000000
     15652       136  OSM       C13S          -25.6534891378        5.4695675784       -6.1799459856  MEMB      136             0.0000000000
     15653       136  OSM       H13S          -24.8466366158        5.3848004068       -5.4209174057  MEMB      136             0.0000000000
     15654       136  OSM       H13T          -25.2619224928        4.8174799909       -6.9897466738  MEMB      136             0.0000000000
     15655       136  OSM       C14S          -26.9126632195        4.8477008717       -5.6100812713  MEMB      136             0.0000000000
     15656       136  OSM       H14S          -27.1330291133        3.9112860687       -6.1658575453  MEMB      136             0.0000000000
     15657       136  OSM       H14T          -27.7456812314        5.5739887700       -5.7236935295  MEMB      136             0.0000000000
     15658       136  OSM       C15S          -26.8101596268        4.3964897907       -4.0549351949  MEMB      136             0.0000000000
     15659       136  OSM       H15S          -25.8171529372        3.9316152607       -3.8756301220  MEMB      136             0.0000000000
     15660       136  OSM       H15T          -27.5915206315        3.6105787519       -3.9765788659  MEMB      136             0.0000000000
     15661       136  OSM       C16S          -27.1263575761        5.4980549791       -2.9966195660  MEMB      136             0.0000000000
     15662       136  OSM       H16S          -27.4092339753        5.0203585321       -2.0342746472  MEMB      136             0.0000000000
     15663       136  OSM       H16T          -27.9691049322        6.1597692575       -3.2902730199  MEMB      136             0.0000000000
     15664       136  OSM       C17S          -26.0035286924        6.5337760233       -2.6529698544  MEMB      136             0.0000000000
     15665       136  OSM       H17S          -26.4066298405        7.2832627948       -1.9387554998  MEMB      136             0.0000000000
     15666       136  OSM       H17T          -25.7983475150        7.0381444090       -3.6213865596  MEMB      136             0.0000000000
     15667       136  OSM       C18S          -24.7174763538        6.0957582087       -1.9679361511  MEMB      136             0.0000000000
     15668       136  OSM       H18S          -24.1086579241        6.9219049150       -1.5423275645  MEMB      136             0.0000000000
     15669       136  OSM       H18T          -24.1077070848        5.4828083550       -2.6656437896  MEMB      136             0.0000000000
     15670       136  OSM       H18U          -24.9290241122        5.3223217162       -1.1989335855  MEMB      136             0.0000000000
     15671       136  OSM       C1F           -28.3583765175        5.2319934704      -15.6396163974  MEMB      136             0.0000000000
     15672       136  OSM       OF            -27.8567939490        4.1216819718      -15.5949041308  MEMB      136             0.0000000000
     15673       136  OSM       C2F           -29.7468633194        5.5458315491      -15.1020465435  MEMB      136             0.0000000000
     15674       136  OSM       H2F           -30.4437924967        4.9707135436      -15.7484597284  MEMB      136             0.0000000000
     15675       136  OSM       H2G           -29.9820679730        6.6141634844      -15.2961259707  MEMB      136             0.0000000000
     15676       136  OSM       C3F           -29.8951429642        5.0362967396      -13.6805129521  MEMB      136             0.0000000000
     15677       136  OSM       H3F           -29.6850738518        3.9512542382      -13.5670474228  MEMB      136             0.0000000000
     15678       136  OSM       H3G           -30.9013381458        5.2867462662      -13.2815542879  MEMB      136             0.0000000000
     15679       136  OSM       C4F           -28.9187461471        5.7204315403      -12.6123751271  MEMB      136             0.0000000000
     15680       136  OSM       H4F           -28.7196147331        6.7650744591      -12.9339166530  MEMB      136             0.0000000000
     15681       136  OSM       H4G           -27.9681523145        5.1533239701      -12.5170786344  MEMB      136             0.0000000000
     15682       136  OSM       C5F           -29.5807266241        5.8562870028      -11.2032484461  MEMB      136             0.0000000000
     15683       136  OSM       H5F           -29.9490455383        4.8671314436      -10.8564998310  MEMB      136             0.0000000000
     15684       136  OSM       H5G           -30.4709362632        6.5016098928      -11.3626418099  MEMB      136             0.0000000000
     15685       136  OSM       C6F           -28.6495016127        6.3213683626      -10.1127770981  MEMB      136             0.0000000000
     15686       136  OSM       H6F           -27.6734347356        5.8417063575      -10.3397987737  MEMB      136             0.0000000000
     15687       136  OSM       H6G           -28.8695158987        5.9380174263       -9.0934850342  MEMB      136             0.0000000000
     15688       136  OSM       C7F           -28.4729392646        7.8396315944      -10.0777713476  MEMB      136             0.0000000000
     15689       136  OSM       H7F           -28.3552433288        8.2047543023      -11.1204377653  MEMB      136             0.0000000000
     15690       136  OSM       H7G           -27.5028978021        8.0112912358       -9.5640850240  MEMB      136             0.0000000000
     15691       136  OSM       C8F           -29.5294866786        8.6917923037       -9.2987086018  MEMB      136             0.0000000000
     15692       136  OSM       H8F           -30.5182696093        8.5584266983       -9.7874238999  MEMB      136             0.0000000000
     15693       136  OSM       H8G           -29.2121369224        9.7527205274       -9.3883818855  MEMB      136             0.0000000000
     15694       136  OSM       C9F           -29.7667536320        8.3364371958       -7.8863981929  MEMB      136             0.0000000000
     15695       136  OSM       H9F           -30.1186155945        7.3097441086       -7.7072493238  MEMB      136             0.0000000000
     15696       136  OSM       C10F          -29.4622867823        9.0906437411       -6.8632824585  MEMB      136             0.0000000000
     15697       136  OSM       H10F          -29.7796672142        8.7757942793       -5.8582261876  MEMB      136             0.0000000000
     15698       136  OSM       C11F          -28.8975837883       10.5375632178       -6.8043001775  MEMB      136             0.0000000000
     15699       136  OSM       H11F          -29.5304844951       11.2324039166       -6.2118854339  MEMB      136             0.0000000000
     15700       136  OSM       H11G          -28.8610120766       10.9464786192       -7.8366621973  MEMB      136             0.0000000000
     15701       136  OSM       C12F          -27.5115567206       10.4762621182       -6.1698165436  MEMB      136             0.0000000000
     15702       136  OSM       H12F          -27.0560868534       11.4084644629       -6.5671417758  MEMB      136             0.0000000000
     15703       136  OSM       H12G          -27.0193619842        9.5502945051       -6.5367630398  MEMB      136             0.0000000000
     15704       136  OSM       C13F          -27.5391330153       10.5065308151       -4.6492449490  MEMB      136             0.0000000000
     15705       136  OSM       H13F          -28.1358364642        9.6401741388       -4.2919047270  MEMB      136             0.0000000000
     15706       136  OSM       H13G          -28.0669836782       11.4233875828       -4.3100259083  MEMB      136             0.0000000000
     15707       136  OSM       C14F          -26.1385791379       10.4556835113       -4.0257131826  MEMB      136             0.0000000000
     15708       136  OSM       H14F          -25.6230924537       11.3679580150       -4.3949686911  MEMB      136             0.0000000000
     15709       136  OSM       H14G          -25.6774162184        9.4729407451       -4.2620727367  MEMB      136             0.0000000000
     15710       136  OSM       C15F          -26.1463882202       10.5293704158       -2.5215613893  MEMB      136             0.0000000000
     15711       136  OSM       H15F          -26.9643140397        9.8700048699       -2.1602364802  MEMB      136             0.0000000000
     15712       136  OSM       H15G          -26.4504879392       11.5487254746       -2.2010005589  MEMB      136             0.0000000000
     15713       136  OSM       C16F          -24.9147127052       10.1606012957       -1.8654435809  MEMB      136             0.0000000000
     15714       136  OSM       H16F          -24.1949528547       10.9856095653       -2.0541985751  MEMB      136             0.0000000000
     15715       136  OSM       H16G          -24.5448957947        9.2851634957       -2.4409136392  MEMB      136             0.0000000000
     15716       136  OSM       C17F          -24.9332412119        9.6156974249       -0.4359096983  MEMB      136             0.0000000000
     15717       136  OSM       H17F          -25.4621418749        8.6400439451       -0.3840866359  MEMB      136             0.0000000000
     15718       136  OSM       H17G          -25.5178845201       10.2492211964        0.2649195632  MEMB      136             0.0000000000
     15719       136  OSM       C18F          -23.5786846037        9.3882643476        0.1434535076  MEMB      136             0.0000000000
     15720       136  OSM       H18F          -23.0981424263        8.5860093609       -0.4563675024  MEMB      136             0.0000000000
     15721       136  OSM       H18G          -23.6002777953        9.0543081615        1.2028540027  MEMB      136             0.0000000000
     15722       136  OSM       H18H          -22.9800038022       10.3117446844       -0.0084865211  MEMB      136             0.0000000000
     15723       137  SAPS      N               0.6251416701      -25.5618363515      -21.2728918308  MEMB      137             0.0000000000
     15724       137  SAPS      HN1             1.2329582135      -26.3922371377      -21.4232035014  MEMB      137             0.0000000000
     15725       137  SAPS      HN2            -0.2260803528      -25.6743519872      -21.8597150459  MEMB      137             0.0000000000
     15726       137  SAPS      HN3             1.2267443552      -24.7782897311      -21.5980516869  MEMB      137             0.0000000000
     15727       137  SAPS      C12             0.3658747687      -25.4150304586      -19.8242734159  MEMB      137             0.0000000000
     15728       137  SAPS      H12A            1.2383290194      -25.7725922398      -19.2976110302  MEMB      137             0.0000000000
     15729       137  SAPS      C13             0.0362213959      -24.0075284726      -19.4836224217  MEMB      137             0.0000000000
     15730       137  SAPS      O13A           -0.2369051893      -23.1677159319      -20.3575873375  MEMB      137             0.0000000000
     15731       137  SAPS      O13B            0.2758235701      -23.6856781874      -18.2586488242  MEMB      137             0.0000000000
     15732       137  SAPS      C11            -0.9451334153      -26.1988303826      -19.3701982494  MEMB      137             0.0000000000
     15733       137  SAPS      H11A           -1.7004718522      -25.8511807090      -20.1070324315  MEMB      137             0.0000000000
     15734       137  SAPS      H11B           -1.2581017733      -25.9817186778      -18.3265343240  MEMB      137             0.0000000000
     15735       137  SAPS      P              -1.3265814302      -28.6356414426      -20.3652282873  MEMB      137             0.0000000000
     15736       137  SAPS      O13            -1.2939728395      -28.1113539560      -21.7351299361  MEMB      137             0.0000000000
     15737       137  SAPS      O14            -0.8971797522      -30.0587939986      -20.1067707139  MEMB      137             0.0000000000
     15738       137  SAPS      O12            -0.5445696072      -27.6064025396      -19.4129469844  MEMB      137             0.0000000000
     15739       137  SAPS      O11            -2.8423301792      -28.5245621447      -19.8127019660  MEMB      137             0.0000000000
     15740       137  SAPS      C1             -4.0271529572      -29.0541646222      -20.3515229504  MEMB      137             0.0000000000
     15741       137  SAPS      HA             -4.5969984032      -28.3315259012      -20.9739299929  MEMB      137             0.0000000000
     15742       137  SAPS      HB             -3.8647013214      -29.8938366401      -21.0606642821  MEMB      137             0.0000000000
     15743       137  SAPS      C2             -4.9763468123      -29.5263493553      -19.1771307455  MEMB      137             0.0000000000
     15744       137  SAPS      HS             -5.9577991668      -29.8286017453      -19.6010591688  MEMB      137             0.0000000000
     15745       137  SAPS      O21            -5.1494260287      -28.5177722983      -18.1311251311  MEMB      137             0.0000000000
     15746       137  SAPS      C21            -5.5752620720      -27.4619135403      -18.5835598983  MEMB      137             0.0000000000
     15747       137  SAPS      O22            -6.0356997657      -27.2157487203      -19.6974786010  MEMB      137             0.0000000000
     15748       137  SAPS      C22            -5.3943414893      -26.4360240146      -17.5432909485  MEMB      137             0.0000000000
     15749       137  SAPS      H2R            -4.3191416897      -26.3624355446      -17.2733825950  MEMB      137             0.0000000000
     15750       137  SAPS      H2S            -5.7365172408      -25.4374018466      -17.8896872889  MEMB      137             0.0000000000
     15751       137  SAPS      C3             -4.4692054332      -30.8068597845      -18.4499667621  MEMB      137             0.0000000000
     15752       137  SAPS      HX             -4.4720955939      -31.5675641480      -19.2596835002  MEMB      137             0.0000000000
     15753       137  SAPS      HY             -5.2495856083      -31.0397884305      -17.6942739178  MEMB      137             0.0000000000
     15754       137  SAPS      O31            -3.1681339786      -30.7054148197      -17.8014652479  MEMB      137             0.0000000000
     15755       137  SAPS      C31            -3.0548472033      -30.7972371541      -16.5449729604  MEMB      137             0.0000000000
     15756       137  SAPS      O32            -3.9620215696      -30.8200756978      -15.7363067857  MEMB      137             0.0000000000
     15757       137  SAPS      C32            -1.6066270773      -30.8448431596      -16.1691140142  MEMB      137             0.0000000000
     15758       137  SAPS      H2X            -1.1527617321      -31.6730305580      -16.7542918826  MEMB      137             0.0000000000
     15759       137  SAPS      H2Y            -1.5103583781      -31.0644148809      -15.0842905675  MEMB      137             0.0000000000
     15760       137  SAPS      C23            -6.2730802459      -26.6927214669      -16.3086294702  MEMB      137             0.0000000000
     15761       137  SAPS      H3R            -7.2460855309      -27.1078058064      -16.6481695544  MEMB      137             0.0000000000
     15762       137  SAPS      H3S            -6.6246951415      -25.7194854436      -15.9042789800  MEMB      137             0.0000000000
     15763       137  SAPS      C24            -5.4896727336      -27.6120705813      -15.2945298751  MEMB      137             0.0000000000
     15764       137  SAPS      H4R            -4.5059254032      -27.1181310921      -15.1442442423  MEMB      137             0.0000000000
     15765       137  SAPS      H4S            -5.4121337093      -28.5826957534      -15.8295021546  MEMB      137             0.0000000000
     15766       137  SAPS      C25            -6.2157448764      -27.9627378237      -14.0494299316  MEMB      137             0.0000000000
     15767       137  SAPS      H5R            -6.8981253593      -28.7994738244      -14.2597392568  MEMB      137             0.0000000000
     15768       137  SAPS      C26            -5.9833659634      -27.4757632466      -12.8422100710  MEMB      137             0.0000000000
     15769       137  SAPS      H6R            -6.6605205427      -27.8627387037      -12.0665087966  MEMB      137             0.0000000000
     15770       137  SAPS      C27            -4.9671864275      -26.5195984662      -12.3539718840  MEMB      137             0.0000000000
     15771       137  SAPS      H7R            -4.0288185526      -26.5114406381      -12.9487157031  MEMB      137             0.0000000000
     15772       137  SAPS      H7S            -4.7165860972      -26.7928013743      -11.3066507604  MEMB      137             0.0000000000
     15773       137  SAPS      C28            -5.5192430008      -25.0759736060      -12.3326890884  MEMB      137             0.0000000000
     15774       137  SAPS      H8R            -5.9486985501      -24.8008880525      -13.3073147101  MEMB      137             0.0000000000
     15775       137  SAPS      C29            -5.6176879648      -24.2699040799      -11.2295553122  MEMB      137             0.0000000000
     15776       137  SAPS      H9R            -5.9166886190      -23.2160842397      -11.3298670486  MEMB      137             0.0000000000
     15777       137  SAPS      C210           -5.1418130737      -24.6144831756       -9.8055352747  MEMB      137             0.0000000000
     15778       137  SAPS      H10R           -5.1225615817      -23.7347123568       -9.1273363277  MEMB      137             0.0000000000
     15779       137  SAPS      H10S           -4.1298258477      -25.0570479180       -9.9252807036  MEMB      137             0.0000000000
     15780       137  SAPS      C211           -6.0411507183      -25.6013998298       -9.1400995114  MEMB      137             0.0000000000
     15781       137  SAPS      H11R           -7.0831601339      -25.5322268204       -9.4856876749  MEMB      137             0.0000000000
     15782       137  SAPS      C212           -5.6768714261      -26.5561854540       -8.2744286361  MEMB      137             0.0000000000
     15783       137  SAPS      H12R           -6.4481123501      -27.2743276246       -7.9590567711  MEMB      137             0.0000000000
     15784       137  SAPS      C213           -4.2478215232      -26.7699847101       -7.7657281046  MEMB      137             0.0000000000
     15785       137  SAPS      H13R           -4.1146698851      -26.3862938152       -6.7316229730  MEMB      137             0.0000000000
     15786       137  SAPS      H13S           -3.6273999866      -26.0038600344       -8.2780273986  MEMB      137             0.0000000000
     15787       137  SAPS      C214           -3.6710528079      -28.2059412983       -7.9319100715  MEMB      137             0.0000000000
     15788       137  SAPS      H14R           -3.4941601241      -28.5021074467       -8.9764170679  MEMB      137             0.0000000000
     15789       137  SAPS      C215           -3.4524347609      -29.1295189388       -6.9687625602  MEMB      137             0.0000000000
     15790       137  SAPS      H15R           -2.8697517507      -29.9526575625       -7.4079932001  MEMB      137             0.0000000000
     15791       137  SAPS      C216           -3.6872953970      -29.0650798552       -5.4931502881  MEMB      137             0.0000000000
     15792       137  SAPS      H16R           -3.8553493029      -28.0048492571       -5.2068105886  MEMB      137             0.0000000000
     15793       137  SAPS      H16S           -2.8028142275      -29.3359779895       -4.8778222674  MEMB      137             0.0000000000
     15794       137  SAPS      C217           -4.9167857653      -29.8603860994       -5.0821731188  MEMB      137             0.0000000000
     15795       137  SAPS      H17R           -4.5560916434      -30.9069471558       -4.9876742589  MEMB      137             0.0000000000
     15796       137  SAPS      H17S           -5.7292346712      -29.8643803039       -5.8399538050  MEMB      137             0.0000000000
     15797       137  SAPS      C218           -5.4823667618      -29.3340996909       -3.8114161487  MEMB      137             0.0000000000
     15798       137  SAPS      H18R           -4.7267116715      -29.1956305624       -3.0088376164  MEMB      137             0.0000000000
     15799       137  SAPS      H18S           -6.1055201214      -30.1383620054       -3.3651382805  MEMB      137             0.0000000000
     15800       137  SAPS      C219           -6.4326808282      -28.0575067767       -4.0766094187  MEMB      137             0.0000000000
     15801       137  SAPS      H19R           -7.1860576517      -28.2647160955       -4.8664242924  MEMB      137             0.0000000000
     15802       137  SAPS      H19S           -5.8849072442      -27.1581479917       -4.4307549056  MEMB      137             0.0000000000
     15803       137  SAPS      C220           -7.1962216744      -27.6187284531       -2.8140659211  MEMB      137             0.0000000000
     15804       137  SAPS      H20R           -7.7698714127      -28.5364495301       -2.5629965237  MEMB      137             0.0000000000
     15805       137  SAPS      H20S           -7.8388517446      -26.7407704005       -3.0388700397  MEMB      137             0.0000000000
     15806       137  SAPS      H20T           -6.5779784800      -27.2840381610       -1.9537875753  MEMB      137             0.0000000000
     15807       137  SAPS      C33            -0.9677995309      -29.4731612202      -16.4891503671  MEMB      137             0.0000000000
     15808       137  SAPS      H3X            -0.8503329514      -29.4844736735      -17.5938652026  MEMB      137             0.0000000000
     15809       137  SAPS      H3Y             0.0065676519      -29.5503797038      -15.9609772519  MEMB      137             0.0000000000
     15810       137  SAPS      C34            -1.6489001677      -28.1479983849      -15.9293324847  MEMB      137             0.0000000000
     15811       137  SAPS      H4X            -2.5812407249      -28.0840459671      -16.5301421843  MEMB      137             0.0000000000
     15812       137  SAPS      H4Y            -0.9860128693      -27.2939766073      -16.1853565857  MEMB      137             0.0000000000
     15813       137  SAPS      C35            -1.9035149873      -28.2220489107      -14.4417142567  MEMB      137             0.0000000000
     15814       137  SAPS      H5X            -2.6347969618      -29.0252344990      -14.2083890243  MEMB      137             0.0000000000
     15815       137  SAPS      H5Y            -2.4149541617      -27.2864145338      -14.1297220785  MEMB      137             0.0000000000
     15816       137  SAPS      C36            -0.7249755965      -28.4003066414      -13.4974490614  MEMB      137             0.0000000000
     15817       137  SAPS      H6X             0.1596896418      -27.8756443287      -13.9174703533  MEMB      137             0.0000000000
     15818       137  SAPS      H6Y            -0.4095745525      -29.4501240240      -13.3165430728  MEMB      137             0.0000000000
     15819       137  SAPS      C37            -1.0255215226      -27.8083486016      -12.0770737752  MEMB      137             0.0000000000
     15820       137  SAPS      H7X            -0.2240991476      -28.1594622931      -11.3924111917  MEMB      137             0.0000000000
     15821       137  SAPS      H7Y            -1.9732204784      -28.1919585909      -11.6422960586  MEMB      137             0.0000000000
     15822       137  SAPS      C38            -0.9546533790      -26.2435028477      -11.9705373100  MEMB      137             0.0000000000
     15823       137  SAPS      H8X            -1.6728788531      -25.9062537632      -12.7481852015  MEMB      137             0.0000000000
     15824       137  SAPS      H8Y             0.0449640195      -25.9324689105      -12.3424829476  MEMB      137             0.0000000000
     15825       137  SAPS      C39            -1.2023636406      -25.6270079343      -10.6025357840  MEMB      137             0.0000000000
     15826       137  SAPS      H9X            -0.3809732980      -26.0434788786       -9.9810930405  MEMB      137             0.0000000000
     15827       137  SAPS      H9Y            -2.1355134069      -26.0476415473      -10.1705406173  MEMB      137             0.0000000000
     15828       137  SAPS      C310           -1.3319887614      -24.0843863342      -10.6956588486  MEMB      137             0.0000000000
     15829       137  SAPS      H10X           -2.4038581562      -23.8576886616      -10.8801179671  MEMB      137             0.0000000000
     15830       137  SAPS      H10Y           -0.7522633836      -23.6684781341      -11.5472807177  MEMB      137             0.0000000000
     15831       137  SAPS      C311           -1.1200692105      -23.3426701274       -9.3707217121  MEMB      137             0.0000000000
     15832       137  SAPS      H11X           -1.2686768007      -22.2432227859       -9.3119681043  MEMB      137             0.0000000000
     15833       137  SAPS      H11Y           -0.0598999416      -23.4009161864       -9.0436591065  MEMB      137             0.0000000000
     15834       137  SAPS      C312           -1.9555281154      -23.9624740870       -8.2441783116  MEMB      137             0.0000000000
     15835       137  SAPS      H12X           -1.6782427781      -24.9945432428       -7.9404233878  MEMB      137             0.0000000000
     15836       137  SAPS      H12Y           -3.0339253572      -23.8395034505       -8.4813668870  MEMB      137             0.0000000000
     15837       137  SAPS      C313           -1.9791668924      -23.0354775297       -7.0484242235  MEMB      137             0.0000000000
     15838       137  SAPS      H13X           -2.1205111438      -22.0474685561       -7.5364616635  MEMB      137             0.0000000000
     15839       137  SAPS      H13Y           -1.1028510677      -23.0375724313       -6.3654992607  MEMB      137             0.0000000000
     15840       137  SAPS      C314           -3.1324901848      -23.3863823490       -6.0129452658  MEMB      137             0.0000000000
     15841       137  SAPS      H14X           -4.0037586380      -23.6325096078       -6.6568656454  MEMB      137             0.0000000000
     15842       137  SAPS      H14Y           -3.3089226953      -22.4802994805       -5.3947164201  MEMB      137             0.0000000000
     15843       137  SAPS      C315           -2.8476473966      -24.5671186946       -5.0844381690  MEMB      137             0.0000000000
     15844       137  SAPS      H15X           -2.1221988768      -25.2731060344       -5.5422885673  MEMB      137             0.0000000000
     15845       137  SAPS      H15Y           -3.7930764897      -25.0994750446       -4.8455214418  MEMB      137             0.0000000000
     15846       137  SAPS      C316           -2.3081679764      -24.0568115325       -3.7405501600  MEMB      137             0.0000000000
     15847       137  SAPS      H16X           -3.0487546345      -23.3403093013       -3.3252465197  MEMB      137             0.0000000000
     15848       137  SAPS      H16Y           -1.3074113317      -23.5929120087       -3.8732288357  MEMB      137             0.0000000000
     15849       137  SAPS      C317           -2.0645030865      -25.1160126127       -2.6594417575  MEMB      137             0.0000000000
     15850       137  SAPS      H17X           -2.6922693500      -26.0046691361       -2.8842089832  MEMB      137             0.0000000000
     15851       137  SAPS      H17Y           -2.3584194742      -24.7191343401       -1.6642433602  MEMB      137             0.0000000000
     15852       137  SAPS      C318           -0.5896834259      -25.5636310812       -2.5548535733  MEMB      137             0.0000000000
     15853       137  SAPS      H18X           -0.1643469204      -25.9981089667       -3.4847150481  MEMB      137             0.0000000000
     15854       137  SAPS      H18Y           -0.4741724415      -26.2142096096       -1.6616987586  MEMB      137             0.0000000000
     15855       137  SAPS      H18Z            0.0213917678      -24.6456641766       -2.4197788177  MEMB      137             0.0000000000
     15856       138  SAPE      N              23.3263502336        4.2213250143      -20.8650879077  MEMB      138             0.0000000000
     15857       138  SAPE      HN1            22.5184903197        3.6713553103      -21.2207504568  MEMB      138             0.0000000000
     15858       138  SAPE      HN2            23.3295401060        4.4621719979      -19.8533653223  MEMB      138             0.0000000000
     15859       138  SAPE      HN3            23.2858220980        5.0901904415      -21.4352021404  MEMB      138             0.0000000000
     15860       138  SAPE      C12            24.5780478391        3.4263080613      -21.2178008414  MEMB      138             0.0000000000
     15861       138  SAPE      H12A           24.3452759594        2.8882740067      -22.1615473911  MEMB      138             0.0000000000
     15862       138  SAPE      H12B           24.6917058531        2.7097897625      -20.3763707876  MEMB      138             0.0000000000
     15863       138  SAPE      C11            25.7732359197        4.3941259595      -21.4318067859  MEMB      138             0.0000000000
     15864       138  SAPE      H11A           25.6543438253        4.8267237122      -22.4481949883  MEMB      138             0.0000000000
     15865       138  SAPE      H11B           26.6381864689        3.7036662580      -21.5290020626  MEMB      138             0.0000000000
     15866       138  SAPE      P              26.9149554514        5.4201442610      -19.2553946212  MEMB      138             0.0000000000
     15867       138  SAPE      O13            26.2991724766        4.5014149132      -18.2285836841  MEMB      138             0.0000000000
     15868       138  SAPE      O14            28.2190249058        5.0472384125      -19.8175284552  MEMB      138             0.0000000000
     15869       138  SAPE      O12            25.9054728166        5.5047322549      -20.4858389325  MEMB      138             0.0000000000
     15870       138  SAPE      O11            27.0135064532        6.8788511497      -18.6979587375  MEMB      138             0.0000000000
     15871       138  SAPE      C1             27.0322585321        7.9549022847      -19.5839184197  MEMB      138             0.0000000000
     15872       138  SAPE      HA             28.0336850714        7.9780509322      -20.0644700763  MEMB      138             0.0000000000
     15873       138  SAPE      HB             26.3806805682        7.8424765513      -20.4767383733  MEMB      138             0.0000000000
     15874       138  SAPE      C2             26.7361601030        9.2911291214      -18.8090553206  MEMB      138             0.0000000000
     15875       138  SAPE      HS             27.2176157006       10.1623965755      -19.3024264668  MEMB      138             0.0000000000
     15876       138  SAPE      O21            27.2613758865        9.2191172618      -17.4383095835  MEMB      138             0.0000000000
     15877       138  SAPE      C21            28.4759644249        8.8731326296      -17.2774581792  MEMB      138             0.0000000000
     15878       138  SAPE      O22            29.3230637309        8.7339009870      -18.1828533853  MEMB      138             0.0000000000
     15879       138  SAPE      C22            28.8107534882        8.7125279391      -15.7721457782  MEMB      138             0.0000000000
     15880       138  SAPE      H2R            29.8474162371        9.0295006223      -15.5288773513  MEMB      138             0.0000000000
     15881       138  SAPE      H2S            28.1837540450        9.4317877174      -15.2030600910  MEMB      138             0.0000000000
     15882       138  SAPE      C3             25.2231320891        9.5475394895      -18.7640135199  MEMB      138             0.0000000000
     15883       138  SAPE      HX             24.9523459105        9.8264842598      -19.8047756566  MEMB      138             0.0000000000
     15884       138  SAPE      HY             24.9972899110       10.4330988123      -18.1322687529  MEMB      138             0.0000000000
     15885       138  SAPE      O31            24.5947022551        8.3890909070      -18.3226326870  MEMB      138             0.0000000000
     15886       138  SAPE      C31            24.0742029161        8.2371066187      -17.0722795917  MEMB      138             0.0000000000
     15887       138  SAPE      O32            24.1359667754        9.0948999543      -16.2243644982  MEMB      138             0.0000000000
     15888       138  SAPE      C32            23.4965908482        6.8794057174      -16.8165014960  MEMB      138             0.0000000000
     15889       138  SAPE      H2X            23.8976191240        6.2745941708      -17.6577506960  MEMB      138             0.0000000000
     15890       138  SAPE      H2Y            22.4023107817        6.9097035928      -17.0061174901  MEMB      138             0.0000000000
     15891       138  SAPE      C23            28.4586117156        7.2691419769      -15.1998304651  MEMB      138             0.0000000000
     15892       138  SAPE      H3R            29.0747915732        6.6198915999      -15.8579467336  MEMB      138             0.0000000000
     15893       138  SAPE      H3S            27.3657979475        7.0881412852      -15.2853754599  MEMB      138             0.0000000000
     15894       138  SAPE      C24            28.7661536801        7.0090047159      -13.6868997418  MEMB      138             0.0000000000
     15895       138  SAPE      H4R            28.6552628888        5.9170961271      -13.5143895361  MEMB      138             0.0000000000
     15896       138  SAPE      H4S            27.9584361173        7.4482800618      -13.0632406789  MEMB      138             0.0000000000
     15897       138  SAPE      C25            30.2081878048        7.5094921488      -13.3271729718  MEMB      138             0.0000000000
     15898       138  SAPE      H5R            30.9719627746        6.8804593636      -13.8077616610  MEMB      138             0.0000000000
     15899       138  SAPE      C26            30.5305546216        8.5380320740      -12.5218410741  MEMB      138             0.0000000000
     15900       138  SAPE      H6R            31.5995458614        8.6387172520      -12.2828447940  MEMB      138             0.0000000000
     15901       138  SAPE      C27            29.6004569704        9.4677370156      -11.8278384118  MEMB      138             0.0000000000
     15902       138  SAPE      H7R            28.7774097543        9.7032660609      -12.5359634389  MEMB      138             0.0000000000
     15903       138  SAPE      H7S            30.1049159962       10.4278943734      -11.5871309649  MEMB      138             0.0000000000
     15904       138  SAPE      C28            29.1131714254        9.0453944782      -10.4438920165  MEMB      138             0.0000000000
     15905       138  SAPE      H8R            29.6934413611        8.2344834207       -9.9794455821  MEMB      138             0.0000000000
     15906       138  SAPE      C29            27.9806349066        9.5286075918       -9.8443883448  MEMB      138             0.0000000000
     15907       138  SAPE      H9R            27.6417508567        9.1845561803       -8.8560634375  MEMB      138             0.0000000000
     15908       138  SAPE      C210           26.9868396264       10.4959423280      -10.4283310492  MEMB      138             0.0000000000
     15909       138  SAPE      H10R           27.4829785241       11.1556257023      -11.1719608946  MEMB      138             0.0000000000
     15910       138  SAPE      H10S           26.7004683951       11.1358409651       -9.5664486802  MEMB      138             0.0000000000
     15911       138  SAPE      C211           25.7215268494        9.8257219686      -10.9795564903  MEMB      138             0.0000000000
     15912       138  SAPE      H11R           25.5202649014        9.9325657922      -12.0556968583  MEMB      138             0.0000000000
     15913       138  SAPE      C212           24.7980441927        9.4111034539      -10.0632463970  MEMB      138             0.0000000000
     15914       138  SAPE      H12R           23.9225960012        8.8869704156      -10.4741909448  MEMB      138             0.0000000000
     15915       138  SAPE      C213           24.7047694540        9.4493342306       -8.5288347644  MEMB      138             0.0000000000
     15916       138  SAPE      H13R           23.6481696652        9.6413036518       -8.2441147559  MEMB      138             0.0000000000
     15917       138  SAPE      H13S           25.4292529329       10.1574954314       -8.0728176062  MEMB      138             0.0000000000
     15918       138  SAPE      C214           25.0752574266        8.0672881401       -8.0053613329  MEMB      138             0.0000000000
     15919       138  SAPE      H14R           24.8583783777        7.1837071819       -8.6236237407  MEMB      138             0.0000000000
     15920       138  SAPE      C215           25.6969372094        7.9322741313       -6.7582572119  MEMB      138             0.0000000000
     15921       138  SAPE      H15R           25.7862186477        6.9135533761       -6.3529960789  MEMB      138             0.0000000000
     15922       138  SAPE      C216           26.1594796499        8.9317695168       -5.7235903233  MEMB      138             0.0000000000
     15923       138  SAPE      H16R           26.1059988601        9.9816470718       -6.0830597609  MEMB      138             0.0000000000
     15924       138  SAPE      H16S           27.2305052521        8.6537028936       -5.6240710018  MEMB      138             0.0000000000
     15925       138  SAPE      C217           25.1431378305        8.9070002988       -4.5828026484  MEMB      138             0.0000000000
     15926       138  SAPE      H17R           24.0920807372        8.8320325906       -4.9349101641  MEMB      138             0.0000000000
     15927       138  SAPE      H17S           25.1528214209        9.8479911457       -3.9922408531  MEMB      138             0.0000000000
     15928       138  SAPE      C218           25.4607847652        7.7277540060       -3.6280829142  MEMB      138             0.0000000000
     15929       138  SAPE      H18R           26.4981501191        8.0347298817       -3.3751797725  MEMB      138             0.0000000000
     15930       138  SAPE      H18S           25.5142910914        6.6768439474       -3.9845192057  MEMB      138             0.0000000000
     15931       138  SAPE      C219           24.6178878141        7.9330187900       -2.3176055550  MEMB      138             0.0000000000
     15932       138  SAPE      H19R           24.7027495923        6.9758567961       -1.7599672725  MEMB      138             0.0000000000
     15933       138  SAPE      H19S           23.5644817904        8.2017259541       -2.5466296783  MEMB      138             0.0000000000
     15934       138  SAPE      C220           24.9897974811        9.0589622894       -1.3272361606  MEMB      138             0.0000000000
     15935       138  SAPE      H20R           24.3528207465        9.0260459274       -0.4175665270  MEMB      138             0.0000000000
     15936       138  SAPE      H20S           24.6850197001       10.0365528572       -1.7582209301  MEMB      138             0.0000000000
     15937       138  SAPE      H20T           26.0699781871        9.1133624458       -1.0731272739  MEMB      138             0.0000000000
     15938       138  SAPE      C33            23.9016667864        6.2329976752      -15.4736465707  MEMB      138             0.0000000000
     15939       138  SAPE      H3X            24.8936760234        6.6935591840      -15.2783993335  MEMB      138             0.0000000000
     15940       138  SAPE      H3Y            24.0278901404        5.1362579661      -15.5983479876  MEMB      138             0.0000000000
     15941       138  SAPE      C34            22.8985838622        6.5034815335      -14.3208161347  MEMB      138             0.0000000000
     15942       138  SAPE      H4X            21.8766890805        6.1306703505      -14.5467892904  MEMB      138             0.0000000000
     15943       138  SAPE      H4Y            22.7993308504        7.6087882491      -14.2682142031  MEMB      138             0.0000000000
     15944       138  SAPE      C35            23.2404478222        5.8062134972      -13.0180188919  MEMB      138             0.0000000000
     15945       138  SAPE      H5X            23.2103144699        4.7207236418      -13.2528060464  MEMB      138             0.0000000000
     15946       138  SAPE      H5Y            22.3775846158        6.0640158768      -12.3673840209  MEMB      138             0.0000000000
     15947       138  SAPE      C36            24.6110732765        6.0881338219      -12.4805007376  MEMB      138             0.0000000000
     15948       138  SAPE      H6X            24.6922734808        7.1762734029      -12.2715034422  MEMB      138             0.0000000000
     15949       138  SAPE      H6Y            25.3488180378        5.7601670729      -13.2437119717  MEMB      138             0.0000000000
     15950       138  SAPE      C37            25.1662549287        5.2341076761      -11.3047430839  MEMB      138             0.0000000000
     15951       138  SAPE      H7X            25.1232289488        4.1700203619      -11.6212682322  MEMB      138             0.0000000000
     15952       138  SAPE      H7Y            24.5333014326        5.2952146948      -10.3937232529  MEMB      138             0.0000000000
     15953       138  SAPE      C38            26.5568927547        5.6815829120      -10.7895250592  MEMB      138             0.0000000000
     15954       138  SAPE      H8X            26.4294588034        6.7749777965      -10.6392943545  MEMB      138             0.0000000000
     15955       138  SAPE      H8Y            27.3838380774        5.5534686661      -11.5203257780  MEMB      138             0.0000000000
     15956       138  SAPE      C39            27.0223214739        5.0291967810       -9.4873378013  MEMB      138             0.0000000000
     15957       138  SAPE      H9X            27.3105435496        3.9942946835       -9.7705806017  MEMB      138             0.0000000000
     15958       138  SAPE      H9Y            26.0859044902        5.0193640577       -8.8895523249  MEMB      138             0.0000000000
     15959       138  SAPE      C310           28.1495295337        5.8283969019       -8.6892773703  MEMB      138             0.0000000000
     15960       138  SAPE      H10X           27.7568059082        6.8465283928       -8.4807166379  MEMB      138             0.0000000000
     15961       138  SAPE      H10Y           29.1057804861        5.7434973781       -9.2484702634  MEMB      138             0.0000000000
     15962       138  SAPE      C311           28.3248303250        5.0195629867       -7.4043497479  MEMB      138             0.0000000000
     15963       138  SAPE      H11X           28.6693361462        3.9895560387       -7.6382784922  MEMB      138             0.0000000000
     15964       138  SAPE      H11Y           27.2677933921        4.7744177384       -7.1658174101  MEMB      138             0.0000000000
     15965       138  SAPE      C312           29.0758891084        5.6133149213       -6.2444516950  MEMB      138             0.0000000000
     15966       138  SAPE      H12X           28.5297035882        6.5415644471       -5.9717708033  MEMB      138             0.0000000000
     15967       138  SAPE      H12Y           30.1409038296        5.7518440040       -6.5288357300  MEMB      138             0.0000000000
     15968       138  SAPE      C313           29.2099852220        4.6347327751       -5.0186775031  MEMB      138             0.0000000000
     15969       138  SAPE      H13X           29.9473720122        5.1562562404       -4.3716892728  MEMB      138             0.0000000000
     15970       138  SAPE      H13Y           29.4461749150        3.5920569926       -5.3209402935  MEMB      138             0.0000000000
     15971       138  SAPE      C314           27.8224640701        4.7205739271       -4.1916940208  MEMB      138             0.0000000000
     15972       138  SAPE      H14X           27.0855540485        4.2400508456       -4.8702084022  MEMB      138             0.0000000000
     15973       138  SAPE      H14Y           27.5250551571        5.7782251776       -4.0266398236  MEMB      138             0.0000000000
     15974       138  SAPE      C315           27.8385630789        3.8659504511       -2.9240887319  MEMB      138             0.0000000000
     15975       138  SAPE      H15X           28.4431769909        4.4480934554       -2.1961636942  MEMB      138             0.0000000000
     15976       138  SAPE      H15Y           28.2158893799        2.8237292268       -2.9997235723  MEMB      138             0.0000000000
     15977       138  SAPE      C316           26.3795805007        3.6554342701       -2.3380244306  MEMB      138             0.0000000000
     15978       138  SAPE      H16X           25.7370629110        3.3532556368       -3.1925313208  MEMB      138             0.0000000000
     15979       138  SAPE      H16Y           25.8909403007        4.6264478753       -2.1084951817  MEMB      138             0.0000000000
     15980       138  SAPE      C317           26.2064025650        2.6451238522       -1.2015344440  MEMB      138             0.0000000000
     15981       138  SAPE      H17X           26.5302392757        1.6289568209       -1.5127506147  MEMB      138             0.0000000000
     15982       138  SAPE      H17Y           25.1439604465        2.4542074262       -0.9386881068  MEMB      138             0.0000000000
     15983       138  SAPE      C318           26.9461797082        3.0493757744        0.1065562595  MEMB      138             0.0000000000
     15984       138  SAPE      H18X           28.0564868537        3.0792329979        0.1319984688  MEMB      138             0.0000000000
     15985       138  SAPE      H18Y           26.6978414306        2.2834747643        0.8720908991  MEMB      138             0.0000000000
     15986       138  SAPE      H18Z           26.5332108085        3.9907159496        0.5280478451  MEMB      138             0.0000000000
     15987       139  CHL1      C3             23.0882130407       12.7365078723      -17.2679700000  MEMB      139             0.0000000000
     15988       139  CHL1      H3             22.0631724251       12.4820728878      -16.9232000000  MEMB      139             0.0000000000
     15989       139  CHL1      O3             23.0788732880       12.6868280824      -18.7320300000  MEMB      139             0.0000000000
     15990       139  CHL1      H3'            22.2748349196       12.2193842691      -18.9699800000  MEMB      139             0.0000000000
     15991       139  CHL1      C4             23.5891549825       14.1479092960      -16.7966400000  MEMB      139             0.0000000000
     15992       139  CHL1      H4A            24.5784206075       14.2447708898      -17.2929200000  MEMB      139             0.0000000000
     15993       139  CHL1      H4B            23.0470661076       15.0562150423      -17.1363900000  MEMB      139             0.0000000000
     15994       139  CHL1      C5             23.6242280286       14.2660242063      -15.3369900000  MEMB      139             0.0000000000
     15995       139  CHL1      C6             22.8575951865       15.1253059458      -14.6999900000  MEMB      139             0.0000000000
     15996       139  CHL1      H6             22.2721854134       15.8865724022      -15.2364200000  MEMB      139             0.0000000000
     15997       139  CHL1      C7             22.8228723522       15.3741802412      -13.2122600000  MEMB      139             0.0000000000
     15998       139  CHL1      H7A            22.9789307337       16.4512307073      -12.9887900000  MEMB      139             0.0000000000
     15999       139  CHL1      H7B            21.8584465343       15.0266735118      -12.7839600000  MEMB      139             0.0000000000
     16000       139  CHL1      C8             24.0832669308       14.6268133259      -12.5867800000  MEMB      139             0.0000000000
     16001       139  CHL1      H8             24.9894739069       15.1911007044      -12.8945000000  MEMB      139             0.0000000000
     16002       139  CHL1      C14            24.0478977998       14.7417683500      -11.0715100000  MEMB      139             0.0000000000
     16003       139  CHL1      H14            23.1060125071       14.2977233111      -10.6842100000  MEMB      139             0.0000000000
     16004       139  CHL1      C15            23.9982640084       16.1116722399      -10.3851100000  MEMB      139             0.0000000000
     16005       139  CHL1      H15A           24.6543567154       16.8220350239      -10.9321300000  MEMB      139             0.0000000000
     16006       139  CHL1      H15B           22.9964283765       16.5903582351      -10.4240000000  MEMB      139             0.0000000000
     16007       139  CHL1      C16            24.5127257300       15.9014287419       -8.9914800000  MEMB      139             0.0000000000
     16008       139  CHL1      H16A           25.4213176214       16.5388226691       -8.9414700000  MEMB      139             0.0000000000
     16009       139  CHL1      H16B           23.8450520796       16.1952294380       -8.1534900000  MEMB      139             0.0000000000
     16010       139  CHL1      C17            24.8945175849       14.4404419042       -8.8775700000  MEMB      139             0.0000000000
     16011       139  CHL1      H17            24.0132394473       13.7909182717       -8.6883500000  MEMB      139             0.0000000000
     16012       139  CHL1      C13            25.1465263007       13.9756734504      -10.3328300000  MEMB      139             0.0000000000
     16013       139  CHL1      C18            26.5241564236       14.4772148278      -10.7504200000  MEMB      139             0.0000000000
     16014       139  CHL1      H18A           26.7489854104       14.1873377026      -11.7991100000  MEMB      139             0.0000000000
     16015       139  CHL1      H18B           26.5930492661       15.5706783985      -10.5662500000  MEMB      139             0.0000000000
     16016       139  CHL1      H18C           27.2632322657       14.1418384461       -9.9917200000  MEMB      139             0.0000000000
     16017       139  CHL1      C12            24.9233484285       12.4246118094      -10.7304100000  MEMB      139             0.0000000000
     16018       139  CHL1      H12A           25.6640783405       11.7936910795      -10.1941500000  MEMB      139             0.0000000000
     16019       139  CHL1      H12B           23.8903166338       12.1151357434      -10.4631900000  MEMB      139             0.0000000000
     16020       139  CHL1      C11            24.9953421482       12.1696776382      -12.2566700000  MEMB      139             0.0000000000
     16021       139  CHL1      H11A           26.0572444409       12.1032840422      -12.5764500000  MEMB      139             0.0000000000
     16022       139  CHL1      H11B           24.6752721018       11.1150929657      -12.3971300000  MEMB      139             0.0000000000
     16023       139  CHL1      C9             24.1875445378       13.1909779025      -13.1287000000  MEMB      139             0.0000000000
     16024       139  CHL1      H9             23.1735650767       12.7411780930      -13.0666900000  MEMB      139             0.0000000000
     16025       139  CHL1      C10            24.4898678211       13.1819061606      -14.6572400000  MEMB      139             0.0000000000
     16026       139  CHL1      C19            25.9671786735       13.4644728119      -14.8770300000  MEMB      139             0.0000000000
     16027       139  CHL1      H19A           26.6366669120       12.6584886828      -14.5075700000  MEMB      139             0.0000000000
     16028       139  CHL1      H19B           26.2942980028       13.6131233769      -15.9283200000  MEMB      139             0.0000000000
     16029       139  CHL1      H19C           26.2377159249       14.3813283200      -14.3109000000  MEMB      139             0.0000000000
     16030       139  CHL1      C1             24.0517773453       11.8345706851      -15.2205100000  MEMB      139             0.0000000000
     16031       139  CHL1      H1A            24.9083041870       11.2294723331      -14.8537300000  MEMB      139             0.0000000000
     16032       139  CHL1      H1B            23.0562431208       11.5767655697      -14.8000800000  MEMB      139             0.0000000000
     16033       139  CHL1      C2             23.9565916977       11.6571175978      -16.7487500000  MEMB      139             0.0000000000
     16034       139  CHL1      H2A            23.4937972177       10.6786955548      -16.9994400000  MEMB      139             0.0000000000
     16035       139  CHL1      H2B            24.9686546206       11.8249510875      -17.1752300000  MEMB      139             0.0000000000
     16036       139  CHL1      C20            25.9642553689       14.1406548782       -7.7380500000  MEMB      139             0.0000000000
     16037       139  CHL1      H20            26.6676764664       15.0006069530       -7.7402400000  MEMB      139             0.0000000000
     16038       139  CHL1      C21            26.5890528506       12.7883412563       -7.7658400000  MEMB      139             0.0000000000
     16039       139  CHL1      H21A           27.3864307575       12.6439080259       -7.0058100000  MEMB      139             0.0000000000
     16040       139  CHL1      H21B           27.1249317565       12.5779418355       -8.7160400000  MEMB      139             0.0000000000
     16041       139  CHL1      H21C           25.8139736577       12.0156391761       -7.5747600000  MEMB      139             0.0000000000
     16042       139  CHL1      C22            25.1242783332       14.1940545679       -6.4197900000  MEMB      139             0.0000000000
     16043       139  CHL1      H22A           24.6097584178       15.1672019780       -6.2695100000  MEMB      139             0.0000000000
     16044       139  CHL1      H22B           24.2468303972       13.5283834105       -6.2739100000  MEMB      139             0.0000000000
     16045       139  CHL1      C23            25.9693021964       14.0091899778       -5.2004700000  MEMB      139             0.0000000000
     16046       139  CHL1      H23A           26.1540257011       12.9636903985       -4.8731200000  MEMB      139             0.0000000000
     16047       139  CHL1      H23B           26.9563522303       14.5120807766       -5.2850200000  MEMB      139             0.0000000000
     16048       139  CHL1      C24            25.5587841594       14.7572951853       -3.8326300000  MEMB      139             0.0000000000
     16049       139  CHL1      H24A           24.9350790707       15.5734982424       -4.2558600000  MEMB      139             0.0000000000
     16050       139  CHL1      H24B           24.9784530835       14.0251204652       -3.2314200000  MEMB      139             0.0000000000
     16051       139  CHL1      C25            26.7261988769       15.4430066235       -2.9687000000  MEMB      139             0.0000000000
     16052       139  CHL1      H25            27.3419556785       16.0990404212       -3.6204700000  MEMB      139             0.0000000000
     16053       139  CHL1      C26            26.1856818783       16.1538976672       -1.7964900000  MEMB      139             0.0000000000
     16054       139  CHL1      H26A           25.3227109686       16.7582783934       -2.1491000000  MEMB      139             0.0000000000
     16055       139  CHL1      H26B           25.7527608188       15.4869777398       -1.0205300000  MEMB      139             0.0000000000
     16056       139  CHL1      H26C           26.9669819990       16.8193040151       -1.3709000000  MEMB      139             0.0000000000
     16057       139  CHL1      C27            27.6861762604       14.4401992624       -2.3343900000  MEMB      139             0.0000000000
     16058       139  CHL1      H27A           28.1792516403       13.8637992363       -3.1461500000  MEMB      139             0.0000000000
     16059       139  CHL1      H27B           28.4063444635       14.9716696974       -1.6762000000  MEMB      139             0.0000000000
     16060       139  CHL1      H27C           27.1712578996       13.6601699500       -1.7337700000  MEMB      139             0.0000000000
     16061       140  OSM       N             -15.0942174874      -23.0942057228      -22.8081865575  MEMB      140             0.0000000000
     16062       140  OSM       C15           -13.7568713413      -22.4618931986      -22.6545458339  MEMB      140             0.0000000000
     16063       140  OSM       H15A          -13.0150437485      -23.1446052957      -22.2672524775  MEMB      140             0.0000000000
     16064       140  OSM       H15B          -13.7800534509      -21.6393811612      -21.9550198831  MEMB      140             0.0000000000
     16065       140  OSM       H15C          -13.3356259845      -22.0533403913      -23.5612083535  MEMB      140             0.0000000000
     16066       140  OSM       C14           -16.0857625139      -21.9802278013      -22.9621796920  MEMB      140             0.0000000000
     16067       140  OSM       H14A          -15.9574313595      -21.2614577004      -22.1663777883  MEMB      140             0.0000000000
     16068       140  OSM       H14B          -17.0830706245      -22.3914799229      -23.0136408308  MEMB      140             0.0000000000
     16069       140  OSM       H14C          -15.9108577046      -21.4607681084      -23.8927547310  MEMB      140             0.0000000000
     16070       140  OSM       C13           -15.2447694748      -24.0129707774      -24.0377189950  MEMB      140             0.0000000000
     16071       140  OSM       H13A          -14.5433486516      -24.8333158828      -24.0757018656  MEMB      140             0.0000000000
     16072       140  OSM       H13B          -15.1617475204      -23.4042734149      -24.9259728412  MEMB      140             0.0000000000
     16073       140  OSM       H13C          -16.1792571279      -24.5448643427      -23.9366149512  MEMB      140             0.0000000000
     16074       140  OSM       C12           -15.4090101630      -23.9709789624      -21.5361441467  MEMB      140             0.0000000000
     16075       140  OSM       H12A          -14.7460792062      -24.8146543473      -21.6591655008  MEMB      140             0.0000000000
     16076       140  OSM       H12B          -16.4437674216      -24.2752935386      -21.4807349751  MEMB      140             0.0000000000
     16077       140  OSM       C11           -15.1047082639      -23.3217391278      -20.1696640956  MEMB      140             0.0000000000
     16078       140  OSM       H11A          -14.0417877171      -23.0139124855      -20.2684751606  MEMB      140             0.0000000000
     16079       140  OSM       H11B          -15.2971502210      -24.0038621488      -19.3140968389  MEMB      140             0.0000000000
     16080       140  OSM       P             -17.3286067340      -22.0427828202      -19.4119227296  MEMB      140             0.0000000000
     16081       140  OSM       O13           -17.6678594496      -20.6639079251      -19.0489951241  MEMB      140             0.0000000000
     16082       140  OSM       O14           -18.1860827197      -22.7544319831      -20.3647731795  MEMB      140             0.0000000000
     16083       140  OSM       O11           -17.2323842635      -22.8993112828      -18.0744392961  MEMB      140             0.0000000000
     16084       140  OSM       O12           -15.8206069939      -22.0488933966      -19.9314303452  MEMB      140             0.0000000000
     16085       140  OSM       C1S           -16.4295589987      -22.5728765407      -16.9836703403  MEMB      140             0.0000000000
     16086       140  OSM       H1S           -15.6353818073      -21.8072560660      -17.1156886218  MEMB      140             0.0000000000
     16087       140  OSM       H1T           -15.7447480540      -23.4325378172      -16.8213823252  MEMB      140             0.0000000000
     16088       140  OSM       NF            -16.1269405978      -21.9744428381      -14.6872694238  MEMB      140             0.0000000000
     16089       140  OSM       HNF           -16.0419472874      -22.7104812350      -14.0201620171  MEMB      140             0.0000000000
     16090       140  OSM       C2S           -17.1843317363      -22.2268884387      -15.7052989210  MEMB      140             0.0000000000
     16091       140  OSM       H2S           -17.8080103522      -21.3531245441      -15.9914504879  MEMB      140             0.0000000000
     16092       140  OSM       C3S           -18.1414942028      -23.3109741195      -15.2063649541  MEMB      140             0.0000000000
     16093       140  OSM       H3S           -17.6800258464      -24.3150104877      -15.0911305663  MEMB      140             0.0000000000
     16094       140  OSM       O3            -19.2893428179      -23.4144875181      -16.0992786816  MEMB      140             0.0000000000
     16095       140  OSM       HO3           -19.2313300295      -22.6571546966      -16.6863747069  MEMB      140             0.0000000000
     16096       140  OSM       C4S           -18.7932297710      -22.9144315193      -13.9043684345  MEMB      140             0.0000000000
     16097       140  OSM       H4S           -19.3468916125      -21.9643156186      -13.9315440385  MEMB      140             0.0000000000
     16098       140  OSM       C5S           -18.6956622604      -23.6897850443      -12.7673220825  MEMB      140             0.0000000000
     16099       140  OSM       H5S           -18.1263231230      -24.6266320461      -12.8577135225  MEMB      140             0.0000000000
     16100       140  OSM       C6S           -19.2128038649      -23.3733963623      -11.3924073745  MEMB      140             0.0000000000
     16101       140  OSM       H6S           -18.8404867552      -24.0372488970      -10.5830858153  MEMB      140             0.0000000000
     16102       140  OSM       H6T           -20.2987340654      -23.5811491078      -11.5015620773  MEMB      140             0.0000000000
     16103       140  OSM       C7S           -18.8205903273      -21.9711518729      -10.9707249111  MEMB      140             0.0000000000
     16104       140  OSM       H7S           -19.2711161522      -21.6635217683      -10.0028867484  MEMB      140             0.0000000000
     16105       140  OSM       H7T           -19.3546844691      -21.2898037770      -11.6670215628  MEMB      140             0.0000000000
     16106       140  OSM       C8S           -17.3557825434      -21.4826217836      -11.1069727297  MEMB      140             0.0000000000
     16107       140  OSM       H8S           -17.3060522137      -20.4602143526      -10.6750807794  MEMB      140             0.0000000000
     16108       140  OSM       H8T           -17.2476791140      -21.3986957700      -12.2095115338  MEMB      140             0.0000000000
     16109       140  OSM       C9S           -16.3481415727      -22.5194087959      -10.6605711267  MEMB      140             0.0000000000
     16110       140  OSM       H9S           -15.3305560553      -22.4222513430      -11.0957730799  MEMB      140             0.0000000000
     16111       140  OSM       H9T           -16.5559874641      -23.4949455881      -11.1499067283  MEMB      140             0.0000000000
     16112       140  OSM       C10S          -16.5067268739      -22.7913186286       -9.1711915191  MEMB      140             0.0000000000
     16113       140  OSM       H10S          -17.5348635779      -23.1501725107       -8.9510101800  MEMB      140             0.0000000000
     16114       140  OSM       H10T          -16.2420899576      -21.8587465096       -8.6284238785  MEMB      140             0.0000000000
     16115       140  OSM       C11S          -15.5980869319      -23.8749990084       -8.5868207978  MEMB      140             0.0000000000
     16116       140  OSM       H11S          -15.5733107600      -24.7930575183       -9.2120208973  MEMB      140             0.0000000000
     16117       140  OSM       H11T          -16.1225070496      -24.2903186890       -7.6997956877  MEMB      140             0.0000000000
     16118       140  OSM       C12S          -14.1834312920      -23.4787214236       -8.2486095723  MEMB      140             0.0000000000
     16119       140  OSM       H12S          -13.7265815724      -22.7274838005       -8.9277642110  MEMB      140             0.0000000000
     16120       140  OSM       H12T          -13.5033117253      -24.3545999998       -8.3163959420  MEMB      140             0.0000000000
     16121       140  OSM       C13S          -14.1684049278      -22.9247941113       -6.7874976689  MEMB      140             0.0000000000
     16122       140  OSM       H13S          -14.7048228684      -23.5826977790       -6.0707412568  MEMB      140             0.0000000000
     16123       140  OSM       H13T          -14.7338530765      -21.9742542739       -6.6823151776  MEMB      140             0.0000000000
     16124       140  OSM       C14S          -12.7344276045      -22.6543566472       -6.3463619743  MEMB      140             0.0000000000
     16125       140  OSM       H14S          -12.0265123624      -22.4479197428       -7.1773618094  MEMB      140             0.0000000000
     16126       140  OSM       H14T          -12.2863518847      -23.5734914905       -5.9119197567  MEMB      140             0.0000000000
     16127       140  OSM       C15S          -12.6590387114      -21.5955644514       -5.1506632362  MEMB      140             0.0000000000
     16128       140  OSM       H15S          -11.6323238571      -21.5338324154       -4.7307030436  MEMB      140             0.0000000000
     16129       140  OSM       H15T          -13.3092432515      -22.0275578173       -4.3601340372  MEMB      140             0.0000000000
     16130       140  OSM       C16S          -12.8886557207      -20.1042533016       -5.5669399156  MEMB      140             0.0000000000
     16131       140  OSM       H16S          -13.9824237259      -19.9677031733       -5.7060317683  MEMB      140             0.0000000000
     16132       140  OSM       H16T          -12.3171636599      -19.8649272784       -6.4891325399  MEMB      140             0.0000000000
     16133       140  OSM       C17S          -12.2875262937      -19.0507150323       -4.5528140228  MEMB      140             0.0000000000
     16134       140  OSM       H17S          -12.5974081730      -18.0030444004       -4.7545088976  MEMB      140             0.0000000000
     16135       140  OSM       H17T          -11.1835112916      -19.1206496979       -4.4499472024  MEMB      140             0.0000000000
     16136       140  OSM       C18S          -12.8497311445      -19.3085291067       -3.1569005648  MEMB      140             0.0000000000
     16137       140  OSM       H18S          -13.9605083194      -19.3307493740       -3.1582550614  MEMB      140             0.0000000000
     16138       140  OSM       H18T          -12.5527953004      -18.4286614362       -2.5469971466  MEMB      140             0.0000000000
     16139       140  OSM       H18U          -12.4438408387      -20.2399804662       -2.7074879996  MEMB      140             0.0000000000
     16140       140  OSM       C1F           -15.4433448664      -20.8397034258      -14.4906526054  MEMB      140             0.0000000000
     16141       140  OSM       OF            -15.6312118209      -19.7885096952      -15.1156595582  MEMB      140             0.0000000000
     16142       140  OSM       C2F           -14.4016746129      -20.8944688384      -13.3737972056  MEMB      140             0.0000000000
     16143       140  OSM       H2F           -13.3384509341      -21.0172063445      -13.6718107974  MEMB      140             0.0000000000
     16144       140  OSM       H2G           -14.6888153730      -21.7616038260      -12.7413824928  MEMB      140             0.0000000000
     16145       140  OSM       C3F           -14.5724641045      -19.6247455275      -12.4527436404  MEMB      140             0.0000000000
     16146       140  OSM       H3F           -15.5797731203      -19.5231572924      -11.9952183963  MEMB      140             0.0000000000
     16147       140  OSM       H3G           -14.3811504835      -18.6491137439      -12.9485892064  MEMB      140             0.0000000000
     16148       140  OSM       C4F           -13.7129216288      -19.6017893268      -11.2153388012  MEMB      140             0.0000000000
     16149       140  OSM       H4F           -12.6524412900      -19.5144684177      -11.5348341864  MEMB      140             0.0000000000
     16150       140  OSM       H4G           -13.8869357645      -20.6272620991      -10.8248958478  MEMB      140             0.0000000000
     16151       140  OSM       C5F           -14.0208071938      -18.5465077164      -10.1563865338  MEMB      140             0.0000000000
     16152       140  OSM       H5F           -14.1252996738      -17.6164053552      -10.7549780948  MEMB      140             0.0000000000
     16153       140  OSM       H5G           -13.1392929963      -18.5527817532       -9.4802102536  MEMB      140             0.0000000000
     16154       140  OSM       C6F           -15.3018817891      -18.7583578942       -9.3450143722  MEMB      140             0.0000000000
     16155       140  OSM       H6F           -15.1055374698      -19.5986055120       -8.6451899789  MEMB      140             0.0000000000
     16156       140  OSM       H6G           -16.2399597428      -19.0493312333       -9.8643074086  MEMB      140             0.0000000000
     16157       140  OSM       C7F           -15.6988400464      -17.6701008773       -8.3709779995  MEMB      140             0.0000000000
     16158       140  OSM       H7F           -15.8101241689      -16.7165970194       -8.9302340775  MEMB      140             0.0000000000
     16159       140  OSM       H7G           -14.8424535734      -17.4730628736       -7.6911988290  MEMB      140             0.0000000000
     16160       140  OSM       C8F           -16.8919207765      -18.1053410240       -7.4992623705  MEMB      140             0.0000000000
     16161       140  OSM       H8F           -17.5567742644      -18.7715778105       -8.0895325963  MEMB      140             0.0000000000
     16162       140  OSM       H8G           -17.5444889985      -17.2099189787       -7.4174356220  MEMB      140             0.0000000000
     16163       140  OSM       C9F           -16.5329730912      -18.7291375548       -6.2112182463  MEMB      140             0.0000000000
     16164       140  OSM       H9F           -15.8314399924      -18.1755160788       -5.5698488661  MEMB      140             0.0000000000
     16165       140  OSM       C10F          -17.0150060907      -19.9814136123       -5.7788463625  MEMB      140             0.0000000000
     16166       140  OSM       H10F          -16.7810105441      -20.2676710796       -4.7428424923  MEMB      140             0.0000000000
     16167       140  OSM       C11F          -17.9221489254      -20.9826745481       -6.4598487676  MEMB      140             0.0000000000
     16168       140  OSM       H11F          -17.5301634051      -22.0222014998       -6.4526236141  MEMB      140             0.0000000000
     16169       140  OSM       H11G          -17.9965260680      -20.8580443228       -7.5613279287  MEMB      140             0.0000000000
     16170       140  OSM       C12F          -19.4140743036      -20.7919837045       -6.0453727627  MEMB      140             0.0000000000
     16171       140  OSM       H12F          -20.0311556706      -21.4570502851       -6.6866355077  MEMB      140             0.0000000000
     16172       140  OSM       H12G          -19.7760893347      -19.7416240864       -6.0420794556  MEMB      140             0.0000000000
     16173       140  OSM       C13F          -19.5615321458      -21.1580029133       -4.5713677288  MEMB      140             0.0000000000
     16174       140  OSM       H13F          -20.5793776237      -20.9591542478       -4.1729070607  MEMB      140             0.0000000000
     16175       140  OSM       H13G          -18.8642925735      -20.5422535064       -3.9638891557  MEMB      140             0.0000000000
     16176       140  OSM       C14F          -18.9355367232      -22.5330247433       -4.1233896377  MEMB      140             0.0000000000
     16177       140  OSM       H14F          -17.8526312754      -22.6406713719       -4.3471058682  MEMB      140             0.0000000000
     16178       140  OSM       H14G          -19.3562196890      -23.3328083183       -4.7696812338  MEMB      140             0.0000000000
     16179       140  OSM       C15F          -19.2881765520      -22.9003610000       -2.6166685564  MEMB      140             0.0000000000
     16180       140  OSM       H15F          -18.8071015740      -23.8716612148       -2.3728159259  MEMB      140             0.0000000000
     16181       140  OSM       H15G          -20.3942317787      -22.9731684716       -2.5414240259  MEMB      140             0.0000000000
     16182       140  OSM       C16F          -18.5969873342      -21.8942553012       -1.7485960117  MEMB      140             0.0000000000
     16183       140  OSM       H16F          -18.8818340520      -22.2300320285       -0.7285780618  MEMB      140             0.0000000000
     16184       140  OSM       H16G          -19.0216427986      -20.8771199971       -1.8879670570  MEMB      140             0.0000000000
     16185       140  OSM       C17F          -17.0165712752      -21.8931634930       -1.8026222442  MEMB      140             0.0000000000
     16186       140  OSM       H17F          -16.6766439492      -21.4682760097       -2.7712499552  MEMB      140             0.0000000000
     16187       140  OSM       H17G          -16.7404678881      -22.9499501482       -1.5994240177  MEMB      140             0.0000000000
     16188       140  OSM       C18F          -16.4023415018      -21.1410322017       -0.5862481365  MEMB      140             0.0000000000
     16189       140  OSM       H18F          -16.6029702474      -20.0486998454       -0.6158964280  MEMB      140             0.0000000000
     16190       140  OSM       H18G          -15.3160186763      -21.3735516024       -0.5736626793  MEMB      140             0.0000000000
     16191       140  OSM       H18H          -16.7341830630      -21.5286639657        0.4006376939  MEMB      140             0.0000000000
     16192       141  SAPE      N             -26.7990022883       -3.1551683174      -21.1085354620  MEMB      141             0.0000000000
     16193       141  SAPE      HN1           -27.8041723719       -3.1106852682      -20.8453728215  MEMB      141             0.0000000000
     16194       141  SAPE      HN2           -26.2004417337       -3.0716128173      -20.2621647040  MEMB      141             0.0000000000
     16195       141  SAPE      HN3           -26.7103880977       -2.5014504604      -21.9125256575  MEMB      141             0.0000000000
     16196       141  SAPE      C12           -26.6323214009       -4.5611671880      -21.6254052929  MEMB      141             0.0000000000
     16197       141  SAPE      H12A          -25.6002135817       -4.8192003289      -21.3052595668  MEMB      141             0.0000000000
     16198       141  SAPE      H12B          -26.6546083441       -4.4120479721      -22.7261269442  MEMB      141             0.0000000000
     16199       141  SAPE      C11           -27.6907336953       -5.6371006985      -21.3252735910  MEMB      141             0.0000000000
     16200       141  SAPE      H11A          -27.5306366705       -6.5156835171      -21.9861685834  MEMB      141             0.0000000000
     16201       141  SAPE      H11B          -28.5931889538       -5.1226477772      -21.7192707722  MEMB      141             0.0000000000
     16202       141  SAPE      P             -29.0489348006       -6.0294415944      -19.1679865204  MEMB      141             0.0000000000
     16203       141  SAPE      O13           -29.0772468966       -5.2116950604      -17.9041869303  MEMB      141             0.0000000000
     16204       141  SAPE      O14           -30.1788647435       -5.8093685919      -20.1368666745  MEMB      141             0.0000000000
     16205       141  SAPE      O12           -27.6115503274       -5.9167947163      -19.9528563128  MEMB      141             0.0000000000
     16206       141  SAPE      O11           -29.0445074461       -7.5215085569      -18.7788892385  MEMB      141             0.0000000000
     16207       141  SAPE      C1            -29.0550521259       -8.6041115079      -19.7217678301  MEMB      141             0.0000000000
     16208       141  SAPE      HA            -30.0723674303       -8.7674985318      -20.1373340651  MEMB      141             0.0000000000
     16209       141  SAPE      HB            -28.4588733248       -8.2696434507      -20.5975664011  MEMB      141             0.0000000000
     16210       141  SAPE      C2            -28.4153930739       -9.8579848876      -19.0563050026  MEMB      141             0.0000000000
     16211       141  SAPE      HS            -28.7021048396      -10.7946529361      -19.5804907362  MEMB      141             0.0000000000
     16212       141  SAPE      O21           -28.8694365474       -9.9579105031      -17.6849884269  MEMB      141             0.0000000000
     16213       141  SAPE      C21           -30.1468374126       -9.9745009884      -17.4662763595  MEMB      141             0.0000000000
     16214       141  SAPE      O22           -31.0139004737       -9.9542711793      -18.2971018175  MEMB      141             0.0000000000
     16215       141  SAPE      C22           -30.2473522920      -10.0925995651      -15.9600692036  MEMB      141             0.0000000000
     16216       141  SAPE      H2R           -29.6591058997      -10.9908190499      -15.6746069602  MEMB      141             0.0000000000
     16217       141  SAPE      H2S           -29.8069045763       -9.2693482629      -15.3579197897  MEMB      141             0.0000000000
     16218       141  SAPE      C3            -26.8380453469       -9.8661108743      -18.9824039136  MEMB      141             0.0000000000
     16219       141  SAPE      HX            -26.4770551401       -9.9243662711      -20.0315051399  MEMB      141             0.0000000000
     16220       141  SAPE      HY            -26.5793324982      -10.8426489659      -18.5200600389  MEMB      141             0.0000000000
     16221       141  SAPE      O31           -26.2647528717       -8.6317212180      -18.4255946552  MEMB      141             0.0000000000
     16222       141  SAPE      C31           -25.9882236101       -8.7734133627      -17.1433269751  MEMB      141             0.0000000000
     16223       141  SAPE      O32           -26.3445946817       -9.7014255602      -16.4357002338  MEMB      141             0.0000000000
     16224       141  SAPE      C32           -25.3810944420       -7.3861856558      -16.7298570044  MEMB      141             0.0000000000
     16225       141  SAPE      H2X           -26.1436218752       -6.5871766330      -16.8500966099  MEMB      141             0.0000000000
     16226       141  SAPE      H2Y           -24.4680790999       -7.2170390281      -17.3398679484  MEMB      141             0.0000000000
     16227       141  SAPE      C23           -31.7280801850      -10.5220217735      -15.6074260589  MEMB      141             0.0000000000
     16228       141  SAPE      H3R           -31.9458496826      -11.5801867547      -15.8666243188  MEMB      141             0.0000000000
     16229       141  SAPE      H3S           -32.3366762042       -9.8130812797      -16.2085375297  MEMB      141             0.0000000000
     16230       141  SAPE      C24           -32.0557364190      -10.4903412654      -14.0789977324  MEMB      141             0.0000000000
     16231       141  SAPE      H4R           -31.3393641128      -11.1700309821      -13.5699269737  MEMB      141             0.0000000000
     16232       141  SAPE      H4S           -33.0714463286      -10.8682558285      -13.8343870150  MEMB      141             0.0000000000
     16233       141  SAPE      C25           -31.8355175357       -9.0785530144      -13.4850183572  MEMB      141             0.0000000000
     16234       141  SAPE      H5R           -32.5560113751       -8.3849774817      -13.9431030892  MEMB      141             0.0000000000
     16235       141  SAPE      C26           -30.9688820669       -8.6819279826      -12.5353872431  MEMB      141             0.0000000000
     16236       141  SAPE      H6R           -30.9917640713       -7.5976269893      -12.3516270328  MEMB      141             0.0000000000
     16237       141  SAPE      C27           -29.9766506913       -9.4377152579      -11.7168313334  MEMB      141             0.0000000000
     16238       141  SAPE      H7R           -28.9845812100       -8.9839322248      -11.9270707299  MEMB      141             0.0000000000
     16239       141  SAPE      H7S           -29.9282090896      -10.4606933446      -12.1475175388  MEMB      141             0.0000000000
     16240       141  SAPE      C28           -30.1416636654       -9.7322814013      -10.2022616529  MEMB      141             0.0000000000
     16241       141  SAPE      H8R           -29.8600926842      -10.7641049419       -9.9452446924  MEMB      141             0.0000000000
     16242       141  SAPE      C29           -30.4693899185       -8.9247964626       -9.2173395957  MEMB      141             0.0000000000
     16243       141  SAPE      H9R           -30.4355646695       -9.2315548911       -8.1615200882  MEMB      141             0.0000000000
     16244       141  SAPE      C210          -30.8568100915       -7.4115228357       -9.2393294834  MEMB      141             0.0000000000
     16245       141  SAPE      H10R          -30.7107314589       -6.9731926353      -10.2497008796  MEMB      141             0.0000000000
     16246       141  SAPE      H10S          -30.2574120958       -6.8296648317       -8.5068787088  MEMB      141             0.0000000000
     16247       141  SAPE      C211          -32.4092326229       -7.1529985502       -9.0393974993  MEMB      141             0.0000000000
     16248       141  SAPE      H11R          -32.9402200653       -6.8475460921       -9.9530442151  MEMB      141             0.0000000000
     16249       141  SAPE      C212          -33.1081764326       -7.2138357956       -7.9079424602  MEMB      141             0.0000000000
     16250       141  SAPE      H12R          -34.1776251144       -6.9586460615       -7.8739168129  MEMB      141             0.0000000000
     16251       141  SAPE      C213          -32.5247996907       -7.6001925453       -6.5905411199  MEMB      141             0.0000000000
     16252       141  SAPE      H13R          -31.7305295951       -8.3669771904       -6.7150295929  MEMB      141             0.0000000000
     16253       141  SAPE      H13S          -33.3983191076       -8.0393212211       -6.0628566808  MEMB      141             0.0000000000
     16254       141  SAPE      C214          -32.1173865457       -6.5092561340       -5.7072967071  MEMB      141             0.0000000000
     16255       141  SAPE      H14R          -32.3458474545       -5.4586287530       -5.9396492544  MEMB      141             0.0000000000
     16256       141  SAPE      C215          -31.5147201760       -6.7996543282       -4.5035410356  MEMB      141             0.0000000000
     16257       141  SAPE      H15R          -31.2214664726       -5.9644084233       -3.8505741602  MEMB      141             0.0000000000
     16258       141  SAPE      C216          -31.2060392709       -8.1303281227       -3.9559929957  MEMB      141             0.0000000000
     16259       141  SAPE      H16R          -30.3286590501       -8.1011629196       -3.2750554756  MEMB      141             0.0000000000
     16260       141  SAPE      H16S          -31.0666457511       -8.9090357536       -4.7360598553  MEMB      141             0.0000000000
     16261       141  SAPE      C217          -32.4664534154       -8.6173988438       -3.0206895855  MEMB      141             0.0000000000
     16262       141  SAPE      H17R          -32.0085360425       -9.4241153144       -2.4092635508  MEMB      141             0.0000000000
     16263       141  SAPE      H17S          -33.3328019679       -8.9959335114       -3.6041901480  MEMB      141             0.0000000000
     16264       141  SAPE      C218          -33.0246827478       -7.6548401918       -1.9170274398  MEMB      141             0.0000000000
     16265       141  SAPE      H18R          -33.8247972642       -8.2334192086       -1.4077320899  MEMB      141             0.0000000000
     16266       141  SAPE      H18S          -33.5879040086       -6.8757366338       -2.4738955095  MEMB      141             0.0000000000
     16267       141  SAPE      C219          -31.9478261857       -7.1138451533       -1.0190254970  MEMB      141             0.0000000000
     16268       141  SAPE      H19R          -31.2849555841       -6.3744495833       -1.5172415249  MEMB      141             0.0000000000
     16269       141  SAPE      H19S          -31.2767044574       -7.9342267361       -0.6860231865  MEMB      141             0.0000000000
     16270       141  SAPE      C220          -32.6033601765       -6.4362236241        0.2056718361  MEMB      141             0.0000000000
     16271       141  SAPE      H20R          -31.8061050080       -6.0861674941        0.8957186628  MEMB      141             0.0000000000
     16272       141  SAPE      H20S          -33.2499822086       -7.1782249627        0.7210693823  MEMB      141             0.0000000000
     16273       141  SAPE      H20T          -33.1054332570       -5.4641285176        0.0126049909  MEMB      141             0.0000000000
     16274       141  SAPE      C33           -24.9591111851       -7.3415128306      -15.2271476639  MEMB      141             0.0000000000
     16275       141  SAPE      H3X           -24.2848703210       -6.4611715885      -15.1584478629  MEMB      141             0.0000000000
     16276       141  SAPE      H3Y           -24.5416714853       -8.3491898289      -15.0158373983  MEMB      141             0.0000000000
     16277       141  SAPE      C34           -26.1061626004       -7.2349632396      -14.2867582996  MEMB      141             0.0000000000
     16278       141  SAPE      H4X           -25.7189034806       -7.7069457580      -13.3585433546  MEMB      141             0.0000000000
     16279       141  SAPE      H4Y           -26.9477626250       -7.8864744713      -14.6054482239  MEMB      141             0.0000000000
     16280       141  SAPE      C35           -26.4642131278       -5.7539444705      -13.8897152870  MEMB      141             0.0000000000
     16281       141  SAPE      H5X           -26.6034414410       -5.2283831590      -14.8585918567  MEMB      141             0.0000000000
     16282       141  SAPE      H5Y           -25.6403438262       -5.3712376565      -13.2501091811  MEMB      141             0.0000000000
     16283       141  SAPE      C36           -27.8147758498       -5.6289865956      -13.1718328507  MEMB      141             0.0000000000
     16284       141  SAPE      H6X           -28.5981122350       -6.2100226804      -13.7039065318  MEMB      141             0.0000000000
     16285       141  SAPE      H6Y           -28.0905618861       -4.5564232003      -13.2605515769  MEMB      141             0.0000000000
     16286       141  SAPE      C37           -27.9279338703       -6.1508232996      -11.6930951604  MEMB      141             0.0000000000
     16287       141  SAPE      H7X           -27.3033097494       -7.0695912992      -11.6986733792  MEMB      141             0.0000000000
     16288       141  SAPE      H7Y           -28.9759744836       -6.4841772904      -11.5355942077  MEMB      141             0.0000000000
     16289       141  SAPE      C38           -27.5973307113       -5.0799692201      -10.6517055533  MEMB      141             0.0000000000
     16290       141  SAPE      H8X           -28.0588110141       -5.2406811121       -9.6539439100  MEMB      141             0.0000000000
     16291       141  SAPE      H8Y           -27.8807611850       -4.0693175963      -11.0158097923  MEMB      141             0.0000000000
     16292       141  SAPE      C39           -26.0468113380       -4.9246676096      -10.3111446298  MEMB      141             0.0000000000
     16293       141  SAPE      H9X           -26.0109078090       -3.8577989067      -10.0032113779  MEMB      141             0.0000000000
     16294       141  SAPE      H9Y           -25.4518624743       -5.3109630126      -11.1662080322  MEMB      141             0.0000000000
     16295       141  SAPE      C310          -25.5299704173       -5.7557165230       -9.0977639506  MEMB      141             0.0000000000
     16296       141  SAPE      H10X          -26.4454194871       -5.6686004008       -8.4743180038  MEMB      141             0.0000000000
     16297       141  SAPE      H10Y          -24.6817635860       -5.3628512349       -8.4973279814  MEMB      141             0.0000000000
     16298       141  SAPE      C311          -25.1888270791       -7.1842697481       -9.4337011051  MEMB      141             0.0000000000
     16299       141  SAPE      H11X          -24.3204253662       -7.1583400804      -10.1261802218  MEMB      141             0.0000000000
     16300       141  SAPE      H11Y          -26.0915553868       -7.5675183782       -9.9557384958  MEMB      141             0.0000000000
     16301       141  SAPE      C312          -24.9434158788       -7.9982433101       -8.1925755283  MEMB      141             0.0000000000
     16302       141  SAPE      H12X          -24.0979127623       -7.4691606416       -7.7031710998  MEMB      141             0.0000000000
     16303       141  SAPE      H12Y          -24.6993872686       -9.0437149744       -8.4785126553  MEMB      141             0.0000000000
     16304       141  SAPE      C313          -26.1664201249       -8.1036404250       -7.2666893755  MEMB      141             0.0000000000
     16305       141  SAPE      H13X          -26.1293923149       -9.1470795861       -6.8869720532  MEMB      141             0.0000000000
     16306       141  SAPE      H13Y          -27.0928072370       -7.9949685521       -7.8702772323  MEMB      141             0.0000000000
     16307       141  SAPE      C314          -26.1375880106       -7.1042435918       -6.0627880752  MEMB      141             0.0000000000
     16308       141  SAPE      H14X          -26.4472672406       -6.1285022822       -6.4944693679  MEMB      141             0.0000000000
     16309       141  SAPE      H14Y          -25.0844198969       -6.9169289872       -5.7626703265  MEMB      141             0.0000000000
     16310       141  SAPE      C315          -27.0077168829       -7.5226350791       -4.8387743709  MEMB      141             0.0000000000
     16311       141  SAPE      H15X          -26.6681309188       -8.4953281391       -4.4229973227  MEMB      141             0.0000000000
     16312       141  SAPE      H15Y          -27.9957097472       -7.8635140071       -5.2155931564  MEMB      141             0.0000000000
     16313       141  SAPE      C316          -27.0166325620       -6.4196866391       -3.8267145021  MEMB      141             0.0000000000
     16314       141  SAPE      H16X          -27.9575147394       -5.8293980599       -3.8516341628  MEMB      141             0.0000000000
     16315       141  SAPE      H16Y          -26.1539283657       -5.7789547405       -4.1087161977  MEMB      141             0.0000000000
     16316       141  SAPE      C317          -26.7170929064       -6.9176685851       -2.4450234217  MEMB      141             0.0000000000
     16317       141  SAPE      H17X          -26.2199796140       -6.2501204180       -1.7091029783  MEMB      141             0.0000000000
     16318       141  SAPE      H17Y          -26.0445733952       -7.8018968739       -2.4584018741  MEMB      141             0.0000000000
     16319       141  SAPE      C318          -27.9704802646       -7.2816646410       -1.6151215916  MEMB      141             0.0000000000
     16320       141  SAPE      H18X          -28.4475703236       -8.2071345972       -2.0026932853  MEMB      141             0.0000000000
     16321       141  SAPE      H18Y          -28.6300938017       -6.4015704757       -1.7721737883  MEMB      141             0.0000000000
     16322       141  SAPE      H18Z          -27.7763984414       -7.4883873958       -0.5409145470  MEMB      141             0.0000000000
     16323       142  CHL1      C3             -9.7844191373       27.4436956448      -17.3635150000  MEMB      142             0.0000000000
     16324       142  CHL1      H3            -10.6350556208       28.1570535028      -17.3203550000  MEMB      142             0.0000000000
     16325       142  CHL1      O3             -9.5563632427       26.9592137552      -18.6364850000  MEMB      142             0.0000000000
     16326       142  CHL1      H3'            -9.3265432295       27.7187752977      -19.1767250000  MEMB      142             0.0000000000
     16327       142  CHL1      C4             -8.5772406833       28.1651251434      -16.7490250000  MEMB      142             0.0000000000
     16328       142  CHL1      H4A            -7.6636709428       27.5434241300      -16.8638950000  MEMB      142             0.0000000000
     16329       142  CHL1      H4B            -8.3355687583       28.9952605358      -17.4467250000  MEMB      142             0.0000000000
     16330       142  CHL1      C5             -8.7729285432       28.6161597563      -15.3128250000  MEMB      142             0.0000000000
     16331       142  CHL1      C6             -8.5806672958       29.9224041472      -14.9386650000  MEMB      142             0.0000000000
     16332       142  CHL1      H6             -8.0460689199       30.6222699968      -15.5977650000  MEMB      142             0.0000000000
     16333       142  CHL1      C7             -8.9207746327       30.5089469323      -13.5904350000  MEMB      142             0.0000000000
     16334       142  CHL1      H7A            -8.2171320361       31.2627442042      -13.1769150000  MEMB      142             0.0000000000
     16335       142  CHL1      H7B            -9.9455357864       30.9253923262      -13.6941150000  MEMB      142             0.0000000000
     16336       142  CHL1      C8             -9.0061610137       29.4261006504      -12.4695250000  MEMB      142             0.0000000000
     16337       142  CHL1      H8             -7.9796117836       29.1730262104      -12.1282450000  MEMB      142             0.0000000000
     16338       142  CHL1      C14            -9.6834236280       30.0551717787      -11.2608450000  MEMB      142             0.0000000000
     16339       142  CHL1      H14           -10.7395082565       30.1446902786      -11.5940050000  MEMB      142             0.0000000000
     16340       142  CHL1      C15            -9.1737389744       31.3787203239      -10.7645750000  MEMB      142             0.0000000000
     16341       142  CHL1      H15A           -8.0762223982       31.2176873240      -10.8266450000  MEMB      142             0.0000000000
     16342       142  CHL1      H15B           -9.5445906120       32.2058627684      -11.4069250000  MEMB      142             0.0000000000
     16343       142  CHL1      C16            -9.6307588446       31.4823632895       -9.2981950000  MEMB      142             0.0000000000
     16344       142  CHL1      H16A           -8.7056919487       31.6373053333       -8.7027350000  MEMB      142             0.0000000000
     16345       142  CHL1      H16B          -10.3430908717       32.3041017331       -9.0708950000  MEMB      142             0.0000000000
     16346       142  CHL1      C17           -10.3669096786       30.1073673213       -8.9999750000  MEMB      142             0.0000000000
     16347       142  CHL1      H17           -11.3602225001       30.3771206746       -9.4181550000  MEMB      142             0.0000000000
     16348       142  CHL1      C13            -9.7770524677       29.0999196752      -10.0326850000  MEMB      142             0.0000000000
     16349       142  CHL1      C18            -8.3755893341       28.5754032343       -9.6674850000  MEMB      142             0.0000000000
     16350       142  CHL1      H18A           -7.6380431975       29.3891685558       -9.4998150000  MEMB      142             0.0000000000
     16351       142  CHL1      H18B           -8.4573433200       27.8946235708       -8.7933150000  MEMB      142             0.0000000000
     16352       142  CHL1      H18C           -7.9427142123       27.9680140251      -10.4909150000  MEMB      142             0.0000000000
     16353       142  CHL1      C12           -10.5479297746       27.8987590046      -10.4807450000  MEMB      142             0.0000000000
     16354       142  CHL1      H12A          -10.5368362971       27.1066593045       -9.7017850000  MEMB      142             0.0000000000
     16355       142  CHL1      H12B          -11.5594247712       28.3357662947      -10.6229150000  MEMB      142             0.0000000000
     16356       142  CHL1      C11            -9.9734886988       27.1687665023      -11.7494550000  MEMB      142             0.0000000000
     16357       142  CHL1      H11A           -8.9954937092       26.7267998133      -11.4622050000  MEMB      142             0.0000000000
     16358       142  CHL1      H11B          -10.5814627236       26.2988125890      -12.0779150000  MEMB      142             0.0000000000
     16359       142  CHL1      C9             -9.8377035002       28.1817960894      -12.9363550000  MEMB      142             0.0000000000
     16360       142  CHL1      H9            -10.8110776523       28.6794017006      -13.1344450000  MEMB      142             0.0000000000
     16361       142  CHL1      C10            -9.3383700441       27.5413178987      -14.2693750000  MEMB      142             0.0000000000
     16362       142  CHL1      C19            -8.2483972056       26.5538508033      -13.9438650000  MEMB      142             0.0000000000
     16363       142  CHL1      H19A           -8.6379973381       25.7469501766      -13.2870150000  MEMB      142             0.0000000000
     16364       142  CHL1      H19B           -7.8712023562       26.0136814763      -14.8384350000  MEMB      142             0.0000000000
     16365       142  CHL1      H19C           -7.4839482285       26.9284596278      -13.2299950000  MEMB      142             0.0000000000
     16366       142  CHL1      C1            -10.4751534723       26.8750062995      -15.0192750000  MEMB      142             0.0000000000
     16367       142  CHL1      H1A           -10.9774315310       26.0695744612      -14.4419350000  MEMB      142             0.0000000000
     16368       142  CHL1      H1B           -11.2444815865       27.6627280627      -15.1674450000  MEMB      142             0.0000000000
     16369       142  CHL1      C2            -10.1172493437       26.2971079004      -16.4435750000  MEMB      142             0.0000000000
     16370       142  CHL1      H2A           -11.0575584366       25.8251462075      -16.8004750000  MEMB      142             0.0000000000
     16371       142  CHL1      H2B            -9.2929552746       25.5569634617      -16.3596050000  MEMB      142             0.0000000000
     16372       142  CHL1      C20           -10.4357077887       29.7156127194       -7.5024150000  MEMB      142             0.0000000000
     16373       142  CHL1      H20            -9.4779188163       29.2647700591       -7.1652050000  MEMB      142             0.0000000000
     16374       142  CHL1      C21           -11.4540273802       28.5600460307       -7.2971950000  MEMB      142             0.0000000000
     16375       142  CHL1      H21A          -11.8147278914       28.4797781005       -6.2494450000  MEMB      142             0.0000000000
     16376       142  CHL1      H21B          -11.0386805550       27.6546372078       -7.7891750000  MEMB      142             0.0000000000
     16377       142  CHL1      H21C          -12.3754665503       28.7740581896       -7.8798350000  MEMB      142             0.0000000000
     16378       142  CHL1      C22           -10.6694002696       30.8844807522       -6.6205750000  MEMB      142             0.0000000000
     16379       142  CHL1      H22A           -9.7284331382       31.4619924554       -6.7445350000  MEMB      142             0.0000000000
     16380       142  CHL1      H22B          -11.4899840273       31.5012824287       -7.0454650000  MEMB      142             0.0000000000
     16381       142  CHL1      C23           -11.0145208587       30.7882483073       -5.0979950000  MEMB      142             0.0000000000
     16382       142  CHL1      H23A          -12.1076841725       30.6689691461       -4.9395950000  MEMB      142             0.0000000000
     16383       142  CHL1      H23B          -10.5349454340       29.8540760530       -4.7351450000  MEMB      142             0.0000000000
     16384       142  CHL1      C24           -10.4219405675       31.9982080800       -4.3506550000  MEMB      142             0.0000000000
     16385       142  CHL1      H24A           -9.4377636329       32.4335511812       -4.6266750000  MEMB      142             0.0000000000
     16386       142  CHL1      H24B          -11.0624473418       32.8483306962       -4.6690450000  MEMB      142             0.0000000000
     16387       142  CHL1      C25           -10.4326778482       31.9071882134       -2.8289250000  MEMB      142             0.0000000000
     16388       142  CHL1      H25           -10.2533602209       30.8581960339       -2.5098850000  MEMB      142             0.0000000000
     16389       142  CHL1      C26            -9.4564305655       32.9444541814       -2.2222150000  MEMB      142             0.0000000000
     16390       142  CHL1      H26A           -9.5393138473       32.9797298501       -1.1148750000  MEMB      142             0.0000000000
     16391       142  CHL1      H26B           -8.4725617639       32.4613046703       -2.4035550000  MEMB      142             0.0000000000
     16392       142  CHL1      H26C           -9.6333531014       33.9641616271       -2.6262050000  MEMB      142             0.0000000000
     16393       142  CHL1      C27           -11.7716533849       32.2021395290       -2.1917150000  MEMB      142             0.0000000000
     16394       142  CHL1      H27A          -12.0177179970       33.2371435526       -2.5119150000  MEMB      142             0.0000000000
     16395       142  CHL1      H27B          -12.6100772449       31.5171258654       -2.4409350000  MEMB      142             0.0000000000
     16396       142  CHL1      H27C          -11.7365552649       32.0825590366       -1.0877250000  MEMB      142             0.0000000000
     16397       143  POPC      N              28.5611633655       -2.9210103510      -20.4937276743  MEMB      143             0.0000000000
     16398       143  POPC      C12            27.3510821893       -2.8370644586      -19.6385960011  MEMB      143             0.0000000000
     16399       143  POPC      H12A           27.0578680211       -3.8681490990      -19.5071053760  MEMB      143             0.0000000000
     16400       143  POPC      H12B           26.5486313977       -2.4012973834      -20.2152934043  MEMB      143             0.0000000000
     16401       143  POPC      C13            29.7304385138       -3.4480451753      -19.6350839073  MEMB      143             0.0000000000
     16402       143  POPC      H13A           29.5859592753       -4.4853737855      -19.3715026725  MEMB      143             0.0000000000
     16403       143  POPC      H13B           30.6400238399       -3.2235532903      -20.1723528698  MEMB      143             0.0000000000
     16404       143  POPC      H13C           29.6697150938       -2.9347193071      -18.6868174369  MEMB      143             0.0000000000
     16405       143  POPC      C14            28.3439851452       -3.8868882062      -21.6345125802  MEMB      143             0.0000000000
     16406       143  POPC      H14A           27.4428313652       -3.6744276366      -22.1905543852  MEMB      143             0.0000000000
     16407       143  POPC      H14B           29.2219843624       -3.7761310872      -22.2535846883  MEMB      143             0.0000000000
     16408       143  POPC      H14C           28.3465818199       -4.8831035330      -21.2174416184  MEMB      143             0.0000000000
     16409       143  POPC      C15            28.9624419933       -1.5462043432      -21.1768433264  MEMB      143             0.0000000000
     16410       143  POPC      H15A           29.2483313445       -0.8608346889      -20.3926650133  MEMB      143             0.0000000000
     16411       143  POPC      H15B           28.1753312760       -1.2600119822      -21.8587163869  MEMB      143             0.0000000000
     16412       143  POPC      H15C           29.8569063553       -1.8015370739      -21.7256043593  MEMB      143             0.0000000000
     16413       143  POPC      C11            27.4651220766       -2.0502459567      -18.2776892567  MEMB      143             0.0000000000
     16414       143  POPC      H11A           27.9252913289       -2.7192076437      -17.5193650215  MEMB      143             0.0000000000
     16415       143  POPC      H11B           26.4622854967       -1.7773075221      -17.8850769981  MEMB      143             0.0000000000
     16416       143  POPC      P              29.3607973625       -0.3733335242      -17.5725948772  MEMB      143             0.0000000000
     16417       143  POPC      O13            28.8738684818       -0.0374655995      -16.2281487914  MEMB      143             0.0000000000
     16418       143  POPC      O14            30.0608720653        0.7654308203      -18.2739551113  MEMB      143             0.0000000000
     16419       143  POPC      O12            28.1437517718       -0.8124173153      -18.4504206436  MEMB      143             0.0000000000
     16420       143  POPC      O11            30.3957786329       -1.6621822389      -17.6184278065  MEMB      143             0.0000000000
     16421       143  POPC      C1             31.3485660825       -1.7940039334      -16.6249562667  MEMB      143             0.0000000000
     16422       143  POPC      HA             31.0955368896       -1.1898701692      -15.7275601918  MEMB      143             0.0000000000
     16423       143  POPC      HB             32.3199630642       -1.4049454501      -16.9982422138  MEMB      143             0.0000000000
     16424       143  POPC      C2             31.5634915484       -3.3055844455      -16.2575682425  MEMB      143             0.0000000000
     16425       143  POPC      HS             32.1266217148       -3.7882428476      -17.0847599706  MEMB      143             0.0000000000
     16426       143  POPC      O21            30.2711474630       -3.9486660680      -16.1763374757  MEMB      143             0.0000000000
     16427       143  POPC      C21            30.1859510032       -5.2263405707      -16.4566027366  MEMB      143             0.0000000000
     16428       143  POPC      O22            31.0644175467       -5.9797077397      -16.7563153114  MEMB      143             0.0000000000
     16429       143  POPC      C22            28.6899434523       -5.6754623141      -16.3315924219  MEMB      143             0.0000000000
     16430       143  POPC      H2R            28.5636760972       -6.7792628552      -16.3329914641  MEMB      143             0.0000000000
     16431       143  POPC      H2S            28.0308499633       -5.1736511291      -17.0719317005  MEMB      143             0.0000000000
     16432       143  POPC      C3             32.2737495457       -3.4809060278      -14.9134055750  MEMB      143             0.0000000000
     16433       143  POPC      HX             33.2490000264       -2.9516108451      -14.9686686880  MEMB      143             0.0000000000
     16434       143  POPC      HY             32.6259605770       -4.5288039779      -14.8030491322  MEMB      143             0.0000000000
     16435       143  POPC      O31            31.4687452739       -3.1290529355      -13.7981561138  MEMB      143             0.0000000000
     16436       143  POPC      C31            32.0136900266       -2.4120436589      -12.7927597930  MEMB      143             0.0000000000
     16437       143  POPC      O32            33.1773033105       -2.2331117967      -12.5616159893  MEMB      143             0.0000000000
     16438       143  POPC      C32            30.8826142640       -1.9445799121      -11.9127249030  MEMB      143             0.0000000000
     16439       143  POPC      H2X            31.2932867129       -2.1762371842      -10.9067406980  MEMB      143             0.0000000000
     16440       143  POPC      H2Y            29.9397408094       -2.4928180291      -12.1242566160  MEMB      143             0.0000000000
     16441       143  POPC      C23            27.9837269471       -5.1699805572      -14.9898052376  MEMB      143             0.0000000000
     16442       143  POPC      H3R            28.3559555063       -4.1581570857      -14.7215143908  MEMB      143             0.0000000000
     16443       143  POPC      H3S            28.1913769133       -5.8612177176      -14.1451791864  MEMB      143             0.0000000000
     16444       143  POPC      C24            26.4290925158       -5.0823045631      -15.1955790125  MEMB      143             0.0000000000
     16445       143  POPC      H4R            26.2929864587       -6.0582292276      -15.7087720221  MEMB      143             0.0000000000
     16446       143  POPC      H4S            26.3123028623       -4.2984570400      -15.9742086142  MEMB      143             0.0000000000
     16447       143  POPC      C25            25.6307377091       -4.9504145572      -13.8926814889  MEMB      143             0.0000000000
     16448       143  POPC      H5R            26.0030549177       -5.6907466602      -13.1526752437  MEMB      143             0.0000000000
     16449       143  POPC      H5S            24.5499640903       -5.0424992494      -14.1330349641  MEMB      143             0.0000000000
     16450       143  POPC      C26            25.6639991880       -3.5512892867      -13.1784586568  MEMB      143             0.0000000000
     16451       143  POPC      H6R            25.4379810753       -2.7962654800      -13.9615139482  MEMB      143             0.0000000000
     16452       143  POPC      H6S            26.7002353012       -3.4459672635      -12.7918802103  MEMB      143             0.0000000000
     16453       143  POPC      C27            24.7340280361       -3.4567568210      -11.9758790225  MEMB      143             0.0000000000
     16454       143  POPC      H7R            25.1370784314       -4.1305425210      -11.1898229162  MEMB      143             0.0000000000
     16455       143  POPC      H7S            23.7093107923       -3.7507531351      -12.2886759619  MEMB      143             0.0000000000
     16456       143  POPC      C28            24.6638984656       -2.1025657248      -11.3029964840  MEMB      143             0.0000000000
     16457       143  POPC      H8R            23.9209684428       -1.9471984759      -10.4916777415  MEMB      143             0.0000000000
     16458       143  POPC      H8S            24.2968841133       -1.4444863945      -12.1194233739  MEMB      143             0.0000000000
     16459       143  POPC      C29            25.9306125881       -1.5436861334      -10.8763247678  MEMB      143             0.0000000000
     16460       143  POPC      H91            26.3450023760       -0.8009399708      -11.5738984442  MEMB      143             0.0000000000
     16461       143  POPC      C210           26.6380517117       -1.8970978846       -9.7817672652  MEMB      143             0.0000000000
     16462       143  POPC      H101           27.6027728010       -1.3952049639       -9.6161874002  MEMB      143             0.0000000000
     16463       143  POPC      C211           26.3201392571       -2.9530333147       -8.6748302233  MEMB      143             0.0000000000
     16464       143  POPC      H11R           26.7934265035       -3.9033742980       -9.0022018901  MEMB      143             0.0000000000
     16465       143  POPC      H11S           25.2273735927       -3.1163252113       -8.5585537812  MEMB      143             0.0000000000
     16466       143  POPC      C212           26.9254504127       -2.7280865571       -7.3243104623  MEMB      143             0.0000000000
     16467       143  POPC      H12R           28.0310911180       -2.7150638157       -7.4325242689  MEMB      143             0.0000000000
     16468       143  POPC      H12S           26.6675111869       -3.5457614252       -6.6177727012  MEMB      143             0.0000000000
     16469       143  POPC      C213           26.3278296128       -1.5128921069       -6.6146147386  MEMB      143             0.0000000000
     16470       143  POPC      H13R           25.4898320659       -1.2379782731       -7.2902643574  MEMB      143             0.0000000000
     16471       143  POPC      H13S           26.8658180212       -0.5408381366       -6.6139744312  MEMB      143             0.0000000000
     16472       143  POPC      C214           25.8096402975       -1.8287131403       -5.2494605383  MEMB      143             0.0000000000
     16473       143  POPC      H14R           25.4964028374       -2.8946384256       -5.2520178265  MEMB      143             0.0000000000
     16474       143  POPC      H14S           24.9182246820       -1.1842232123       -5.0934731630  MEMB      143             0.0000000000
     16475       143  POPC      C215           26.7623603729       -1.5363837978       -4.1173715659  MEMB      143             0.0000000000
     16476       143  POPC      H15R           27.1045334766       -0.4927591584       -4.2849603279  MEMB      143             0.0000000000
     16477       143  POPC      H15S           27.6520961417       -2.1764412767       -4.2990801149  MEMB      143             0.0000000000
     16478       143  POPC      C216           26.2136525809       -1.5765498689       -2.7001209055  MEMB      143             0.0000000000
     16479       143  POPC      H16R           25.9929264298       -2.6341837345       -2.4412556546  MEMB      143             0.0000000000
     16480       143  POPC      H16S           25.2875039844       -0.9645541848       -2.7451896682  MEMB      143             0.0000000000
     16481       143  POPC      C217           27.0702789516       -0.9559266259       -1.6156580836  MEMB      143             0.0000000000
     16482       143  POPC      H17R           27.1235005605        0.1286738875       -1.8504546717  MEMB      143             0.0000000000
     16483       143  POPC      H17S           28.0837220510       -1.4058612319       -1.6850335281  MEMB      143             0.0000000000
     16484       143  POPC      C218           26.6691656444       -1.1896304259       -0.1668533298  MEMB      143             0.0000000000
     16485       143  POPC      H18R           25.6142408502       -0.8982566232        0.0243434326  MEMB      143             0.0000000000
     16486       143  POPC      H18S           27.4124820804       -0.6517050462        0.4595950083  MEMB      143             0.0000000000
     16487       143  POPC      H18T           26.7617032706       -2.2360775523        0.1946805867  MEMB      143             0.0000000000
     16488       143  POPC      C33            30.7309981316       -0.4607864156      -12.0655625346  MEMB      143             0.0000000000
     16489       143  POPC      H3X            30.1905241512       -0.2114126267      -13.0036571355  MEMB      143             0.0000000000
     16490       143  POPC      H3Y            31.7022946017        0.0694754824      -11.9669405577  MEMB      143             0.0000000000
     16491       143  POPC      C34            29.7619823579        0.1708576032      -10.9974436660  MEMB      143             0.0000000000
     16492       143  POPC      H4X            28.6684897297        0.0185178303      -11.1214900964  MEMB      143             0.0000000000
     16493       143  POPC      H4Y            29.9074233259        1.2636796868      -11.1349497199  MEMB      143             0.0000000000
     16494       143  POPC      C35            30.1662187644       -0.3208498243       -9.5033002105  MEMB      143             0.0000000000
     16495       143  POPC      H5X            31.2737996501       -0.3721670204       -9.4329287641  MEMB      143             0.0000000000
     16496       143  POPC      H5Y            29.8368066938       -1.3546235955       -9.2643010713  MEMB      143             0.0000000000
     16497       143  POPC      C36            29.6300641560        0.6750833230       -8.4412022262  MEMB      143             0.0000000000
     16498       143  POPC      H6X            28.5318862567        0.7400040498       -8.5964807929  MEMB      143             0.0000000000
     16499       143  POPC      H6Y            29.9515416230        1.7114677984       -8.6796984305  MEMB      143             0.0000000000
     16500       143  POPC      C37            29.8143442994        0.3146781365       -6.9901625408  MEMB      143             0.0000000000
     16501       143  POPC      H7X            29.3951332724       -0.6911694878       -6.7737044926  MEMB      143             0.0000000000
     16502       143  POPC      H7Y            29.4043842757        1.1061002915       -6.3269088760  MEMB      143             0.0000000000
     16503       143  POPC      C38            31.2332937114        0.1489775997       -6.5608220025  MEMB      143             0.0000000000
     16504       143  POPC      H8X            31.6283495714        1.1729199186       -6.3882139589  MEMB      143             0.0000000000
     16505       143  POPC      H8Y            31.8958376499       -0.2526547743       -7.3570937493  MEMB      143             0.0000000000
     16506       143  POPC      C39            31.3672772130       -0.7297585397       -5.3111486014  MEMB      143             0.0000000000
     16507       143  POPC      H9X            31.1682480485       -1.7699133973       -5.6469855295  MEMB      143             0.0000000000
     16508       143  POPC      H9Y            30.5899852956       -0.5296537184       -4.5429715761  MEMB      143             0.0000000000
     16509       143  POPC      C310           32.7188932929       -0.5881767453       -4.5822197082  MEMB      143             0.0000000000
     16510       143  POPC      H10X           32.8315761667        0.4551979309       -4.2175383761  MEMB      143             0.0000000000
     16511       143  POPC      H10Y           33.5230207823       -0.7558229250       -5.3302810167  MEMB      143             0.0000000000
     16512       143  POPC      C311           32.8422797203       -1.6607338016       -3.4344153886  MEMB      143             0.0000000000
     16513       143  POPC      H11X           32.0934284290       -1.4277534569       -2.6474829727  MEMB      143             0.0000000000
     16514       143  POPC      H11Y           33.8481304248       -1.4617142900       -3.0066578459  MEMB      143             0.0000000000
     16515       143  POPC      C312           32.6372331148       -3.1821046031       -3.7807926406  MEMB      143             0.0000000000
     16516       143  POPC      H12X           33.4169931047       -3.3712963669       -4.5492341147  MEMB      143             0.0000000000
     16517       143  POPC      H12Y           31.6346868744       -3.4189226800       -4.1968929819  MEMB      143             0.0000000000
     16518       143  POPC      C313           33.0382193845       -4.0868794311       -2.6266487295  MEMB      143             0.0000000000
     16519       143  POPC      H13X           33.9340121314       -3.6513282604       -2.1345402278  MEMB      143             0.0000000000
     16520       143  POPC      H13Y           33.3039607398       -5.1288244846       -2.9060287321  MEMB      143             0.0000000000
     16521       143  POPC      C314           31.8962010073       -4.0850705648       -1.5394806194  MEMB      143             0.0000000000
     16522       143  POPC      H14X           31.5763789801       -3.0470703987       -1.3058349669  MEMB      143             0.0000000000
     16523       143  POPC      H14Y           32.3552266475       -4.6394135523       -0.6931227170  MEMB      143             0.0000000000
     16524       143  POPC      C315           30.7513497744       -4.9426204555       -1.9235129099  MEMB      143             0.0000000000
     16525       143  POPC      H15X           31.1115796880       -5.9626174389       -2.1768146204  MEMB      143             0.0000000000
     16526       143  POPC      H15Y           30.1655202113       -4.6126705897       -2.8079677189  MEMB      143             0.0000000000
     16527       143  POPC      C316           29.6777296797       -4.9955959626       -0.7088336598  MEMB      143             0.0000000000
     16528       143  POPC      H16X           29.5777681716       -3.9640225701       -0.3086018503  MEMB      143             0.0000000000
     16529       143  POPC      H16Y           30.1511166672       -5.6334191126        0.0679595641  MEMB      143             0.0000000000
     16530       143  POPC      H16Z           28.7152635888       -5.3582816992       -1.1288785954  MEMB      143             0.0000000000
     16531       144  SAPC      N               8.9788558866      -28.7435389269      -19.0966636365  MEMB      144             0.0000000000
     16532       144  SAPC      C12             8.1607958602      -27.5051382571      -19.4472800920  MEMB      144             0.0000000000
     16533       144  SAPC      H12A            8.8612570809      -26.6997467107      -19.6118968280  MEMB      144             0.0000000000
     16534       144  SAPC      H12B            7.4776031758      -27.1294557451      -18.6999445914  MEMB      144             0.0000000000
     16535       144  SAPC      C13             9.4678058148      -28.4559586068      -17.7010500098  MEMB      144             0.0000000000
     16536       144  SAPC      H13A           10.0566927813      -29.2731886630      -17.3115026789  MEMB      144             0.0000000000
     16537       144  SAPC      H13B           10.1102394198      -27.5922980245      -17.6129056367  MEMB      144             0.0000000000
     16538       144  SAPC      H13C            8.5800576445      -28.3970008278      -17.0888187129  MEMB      144             0.0000000000
     16539       144  SAPC      C14             8.1334437554      -29.9722237116      -19.3142559844  MEMB      144             0.0000000000
     16540       144  SAPC      H14A            7.8986388617      -30.1551057436      -20.3524374820  MEMB      144             0.0000000000
     16541       144  SAPC      H14B            8.7471775648      -30.7536229749      -18.8909990891  MEMB      144             0.0000000000
     16542       144  SAPC      H14C            7.2859547162      -30.0273910971      -18.6470838374  MEMB      144             0.0000000000
     16543       144  SAPC      C15            10.2070866810      -28.7321005361      -19.9939239502  MEMB      144             0.0000000000
     16544       144  SAPC      H15A           10.8723887463      -27.9263023314      -19.7210458185  MEMB      144             0.0000000000
     16545       144  SAPC      H15B           10.8620619329      -29.5748365554      -19.8289895481  MEMB      144             0.0000000000
     16546       144  SAPC      H15C            9.9225104216      -28.7242356493      -21.0357274341  MEMB      144             0.0000000000
     16547       144  SAPC      C11             7.4914622439      -27.4194029194      -20.8427584572  MEMB      144             0.0000000000
     16548       144  SAPC      H11A            8.2035834963      -27.4377103003      -21.6953246579  MEMB      144             0.0000000000
     16549       144  SAPC      H11B            7.1343509844      -26.3715042086      -20.9360364689  MEMB      144             0.0000000000
     16550       144  SAPC      P               4.9684902350      -27.9361751766      -20.7819963275  MEMB      144             0.0000000000
     16551       144  SAPC      O13             4.5209664720      -27.2172378788      -22.0066898692  MEMB      144             0.0000000000
     16552       144  SAPC      O14             4.1136637213      -29.0475131219      -20.2920563454  MEMB      144             0.0000000000
     16553       144  SAPC      O12             6.4715241189      -28.4103271682      -20.9652761273  MEMB      144             0.0000000000
     16554       144  SAPC      O11             5.0475086740      -26.8621798971      -19.5580492552  MEMB      144             0.0000000000
     16555       144  SAPC      C1              3.8871298344      -26.1118755387      -19.0931621976  MEMB      144             0.0000000000
     16556       144  SAPC      HA              3.6056062426      -25.3011992635      -19.7987611337  MEMB      144             0.0000000000
     16557       144  SAPC      HB              3.0757139594      -26.8547638905      -18.9381067892  MEMB      144             0.0000000000
     16558       144  SAPC      C2              4.2722147909      -25.3832319197      -17.7377025263  MEMB      144             0.0000000000
     16559       144  SAPC      HS              3.8419920842      -24.3596596126      -17.6985976417  MEMB      144             0.0000000000
     16560       144  SAPC      O21             5.7183076924      -25.1626989071      -17.5918828139  MEMB      144             0.0000000000
     16561       144  SAPC      C21             6.1937954409      -24.2968575602      -18.5187478004  MEMB      144             0.0000000000
     16562       144  SAPC      O22             5.6089965975      -23.8514941584      -19.4844082287  MEMB      144             0.0000000000
     16563       144  SAPC      C22             7.7014919011      -24.1915823791      -18.1946289691  MEMB      144             0.0000000000
     16564       144  SAPC      H2R             8.1857166403      -25.1913012207      -18.1743954422  MEMB      144             0.0000000000
     16565       144  SAPC      H2S             8.1157108133      -23.4009796733      -18.8562114377  MEMB      144             0.0000000000
     16566       144  SAPC      C3              3.7191241671      -26.3536896997      -16.6347959015  MEMB      144             0.0000000000
     16567       144  SAPC      HX              2.6218275495      -26.2858984976      -16.7949998476  MEMB      144             0.0000000000
     16568       144  SAPC      HY              3.9493711609      -25.9449118092      -15.6277166568  MEMB      144             0.0000000000
     16569       144  SAPC      O31             4.1222593227      -27.6707472404      -16.8044016227  MEMB      144             0.0000000000
     16570       144  SAPC      C31             5.3093134885      -28.0769597463      -16.2992210898  MEMB      144             0.0000000000
     16571       144  SAPC      O32             6.1264957896      -27.3527153504      -15.8074851403  MEMB      144             0.0000000000
     16572       144  SAPC      C32             5.3214993786      -29.5524835223      -16.7193257489  MEMB      144             0.0000000000
     16573       144  SAPC      H2X             5.7616369107      -29.6311684577      -17.7363846596  MEMB      144             0.0000000000
     16574       144  SAPC      H2Y             4.3137411446      -30.0120663611      -16.6325632419  MEMB      144             0.0000000000
     16575       144  SAPC      C23             7.8915649182      -23.5932138795      -16.7737170721  MEMB      144             0.0000000000
     16576       144  SAPC      H3R             7.1932949477      -24.1184594739      -16.0875264459  MEMB      144             0.0000000000
     16577       144  SAPC      H3S             7.5713603269      -22.5383918375      -16.9120652670  MEMB      144             0.0000000000
     16578       144  SAPC      C24             9.2735100972      -23.6360820835      -16.1084238046  MEMB      144             0.0000000000
     16579       144  SAPC      H4R             9.2351847880      -23.2953730376      -15.0516502665  MEMB      144             0.0000000000
     16580       144  SAPC      H4S             9.8284612029      -22.8369605849      -16.6448519111  MEMB      144             0.0000000000
     16581       144  SAPC      C25             9.9302715984      -24.9432427569      -16.2695000712  MEMB      144             0.0000000000
     16582       144  SAPC      H5R            10.0674205207      -25.2925590882      -17.3035063029  MEMB      144             0.0000000000
     16583       144  SAPC      C26            10.4360807429      -25.6528535454      -15.2489143643  MEMB      144             0.0000000000
     16584       144  SAPC      H6R            11.0258984559      -26.5475893134      -15.4970323581  MEMB      144             0.0000000000
     16585       144  SAPC      C27            10.5255017920      -25.3594495504      -13.8027380590  MEMB      144             0.0000000000
     16586       144  SAPC      H7R            10.6800647753      -24.2631352392      -13.7103968061  MEMB      144             0.0000000000
     16587       144  SAPC      H7S            11.4277439179      -25.7543716829      -13.2886205641  MEMB      144             0.0000000000
     16588       144  SAPC      C28             9.3524836765      -25.9876590280      -13.0788773210  MEMB      144             0.0000000000
     16589       144  SAPC      H8R             8.5010182998      -26.3008931979      -13.7008833817  MEMB      144             0.0000000000
     16590       144  SAPC      C29             9.2799375278      -26.1491424519      -11.7186959426  MEMB      144             0.0000000000
     16591       144  SAPC      H9R             8.3513187757      -26.4690339707      -11.2233811141  MEMB      144             0.0000000000
     16592       144  SAPC      C210           10.4415387161      -25.7310993609      -10.8016583007  MEMB      144             0.0000000000
     16593       144  SAPC      H10R           10.2545415257      -24.9719423174      -10.0123326859  MEMB      144             0.0000000000
     16594       144  SAPC      H10S           11.2933540045      -25.2706202652      -11.3463511311  MEMB      144             0.0000000000
     16595       144  SAPC      C211           11.0857057068      -26.8397400502      -10.0006950510  MEMB      144             0.0000000000
     16596       144  SAPC      H11R           12.1157005081      -27.1380062976      -10.2459444673  MEMB      144             0.0000000000
     16597       144  SAPC      C212           10.5134829917      -27.5741606940       -9.0610201766  MEMB      144             0.0000000000
     16598       144  SAPC      H12R           11.0218035149      -28.4711999425       -8.6777052633  MEMB      144             0.0000000000
     16599       144  SAPC      C213            9.1122478749      -27.4968518260       -8.5620661348  MEMB      144             0.0000000000
     16600       144  SAPC      H13R            8.4875451634      -28.0212716046       -9.3164216345  MEMB      144             0.0000000000
     16601       144  SAPC      H13S            8.7545655896      -26.4454187696       -8.5325199736  MEMB      144             0.0000000000
     16602       144  SAPC      C214            8.8629537289      -28.1838681291       -7.2426521163  MEMB      144             0.0000000000
     16603       144  SAPC      H14R            9.1277806479      -29.2507380134       -7.2019658224  MEMB      144             0.0000000000
     16604       144  SAPC      C215            8.0548040006      -27.6951515524       -6.3097867778  MEMB      144             0.0000000000
     16605       144  SAPC      H15R            7.9321550490      -28.3134412835       -5.4083020839  MEMB      144             0.0000000000
     16606       144  SAPC      C216            7.2766674347      -26.4349206275       -6.3117097288  MEMB      144             0.0000000000
     16607       144  SAPC      H16R            6.3466593498      -26.5044873129       -5.7079165109  MEMB      144             0.0000000000
     16608       144  SAPC      H16S            7.1001586702      -26.1125993721       -7.3601721557  MEMB      144             0.0000000000
     16609       144  SAPC      C217            7.9962388502      -25.2940969706       -5.6505539137  MEMB      144             0.0000000000
     16610       144  SAPC      H17R            7.4027144113      -24.3941669884       -5.9192094821  MEMB      144             0.0000000000
     16611       144  SAPC      H17S            9.0031456893      -25.0196812113       -6.0315478409  MEMB      144             0.0000000000
     16612       144  SAPC      C218            8.0040144039      -25.3661096967       -4.1182589424  MEMB      144             0.0000000000
     16613       144  SAPC      H18R            8.6511025042      -26.2439544492       -3.9061585647  MEMB      144             0.0000000000
     16614       144  SAPC      H18S            7.0594636837      -25.6248106304       -3.5936472488  MEMB      144             0.0000000000
     16615       144  SAPC      C219            8.5921502179      -24.0913805261       -3.5320203096  MEMB      144             0.0000000000
     16616       144  SAPC      H19R            7.9705087906      -23.2429250441       -3.8897993682  MEMB      144             0.0000000000
     16617       144  SAPC      H19S            9.6199224784      -23.9321889355       -3.9227412227  MEMB      144             0.0000000000
     16618       144  SAPC      C220            8.5167568304      -23.8941255824       -1.9837843217  MEMB      144             0.0000000000
     16619       144  SAPC      H20R            9.2901378226      -23.1605935143       -1.6705216519  MEMB      144             0.0000000000
     16620       144  SAPC      H20S            8.6601782686      -24.8316568205       -1.4051766570  MEMB      144             0.0000000000
     16621       144  SAPC      H20T            7.5345484632      -23.4276984882       -1.7556748029  MEMB      144             0.0000000000
     16622       144  SAPC      C33             6.2808036081      -30.4534193961      -15.7964108367  MEMB      144             0.0000000000
     16623       144  SAPC      H3X             7.2079719564      -29.8556469355      -15.6646990920  MEMB      144             0.0000000000
     16624       144  SAPC      H3Y             6.4249128421      -31.3840740013      -16.3858476594  MEMB      144             0.0000000000
     16625       144  SAPC      C34             5.6711224380      -30.8716731884      -14.4129510914  MEMB      144             0.0000000000
     16626       144  SAPC      H4X             6.0454587806      -31.8618089492      -14.0755726102  MEMB      144             0.0000000000
     16627       144  SAPC      H4Y             4.5810309836      -31.0227006190      -14.5653068070  MEMB      144             0.0000000000
     16628       144  SAPC      C35             5.8592797947      -29.8212627647      -13.2887270264  MEMB      144             0.0000000000
     16629       144  SAPC      H5X             5.1767190122      -28.9648502912      -13.4757813455  MEMB      144             0.0000000000
     16630       144  SAPC      H5Y             6.9051399398      -29.4466367010      -13.2763629799  MEMB      144             0.0000000000
     16631       144  SAPC      C36             5.5840480715      -30.2334536150      -11.8747090183  MEMB      144             0.0000000000
     16632       144  SAPC      H6X             6.0712380520      -31.2105494540      -11.6691592020  MEMB      144             0.0000000000
     16633       144  SAPC      H6Y             4.5124552342      -30.4710899573      -11.7028406619  MEMB      144             0.0000000000
     16634       144  SAPC      C37             6.1127307669      -29.4067015021      -10.6528873763  MEMB      144             0.0000000000
     16635       144  SAPC      H7X             5.9708764669      -28.3813078291      -11.0563302439  MEMB      144             0.0000000000
     16636       144  SAPC      H7Y             7.1960891382      -29.5390970194      -10.4452169022  MEMB      144             0.0000000000
     16637       144  SAPC      C38             5.1492698832      -29.4419732571       -9.5149772925  MEMB      144             0.0000000000
     16638       144  SAPC      H8X             4.1018149387      -29.3043591103       -9.8588105437  MEMB      144             0.0000000000
     16639       144  SAPC      H8Y             5.3581712043      -28.7428878358       -8.6771459581  MEMB      144             0.0000000000
     16640       144  SAPC      C39             5.1699416395      -30.9300090769       -8.8217679925  MEMB      144             0.0000000000
     16641       144  SAPC      H9X             6.2267044238      -30.9741088328       -8.4817264085  MEMB      144             0.0000000000
     16642       144  SAPC      H9Y             4.9845841920      -31.7406325394       -9.5585534106  MEMB      144             0.0000000000
     16643       144  SAPC      C310            4.1386565775      -31.0381508069       -7.6634199045  MEMB      144             0.0000000000
     16644       144  SAPC      H10X            4.1458036236      -32.0826946639       -7.2850052740  MEMB      144             0.0000000000
     16645       144  SAPC      H10Y            3.1953248347      -30.7970856388       -8.1985219515  MEMB      144             0.0000000000
     16646       144  SAPC      C311            4.3356004293      -30.0996980921       -6.5138993762  MEMB      144             0.0000000000
     16647       144  SAPC      H11X            4.2150341973      -29.0693790091       -6.9116774989  MEMB      144             0.0000000000
     16648       144  SAPC      H11Y            5.4051811306      -30.1757450247       -6.2231501169  MEMB      144             0.0000000000
     16649       144  SAPC      C312            3.4516754105      -30.3703447909       -5.2289373012  MEMB      144             0.0000000000
     16650       144  SAPC      H12X            3.5939769740      -31.4293158040       -4.9245507071  MEMB      144             0.0000000000
     16651       144  SAPC      H12Y            2.4003939446      -30.2179563514       -5.5543699792  MEMB      144             0.0000000000
     16652       144  SAPC      C313            3.7885262084      -29.4957851011       -4.0348442267  MEMB      144             0.0000000000
     16653       144  SAPC      H13X            4.8441259189      -29.4733407550       -3.6891172244  MEMB      144             0.0000000000
     16654       144  SAPC      H13Y            3.1193541492      -29.9853499060       -3.2953471458  MEMB      144             0.0000000000
     16655       144  SAPC      C314            3.2077196320      -28.0504025690       -4.0829832371  MEMB      144             0.0000000000
     16656       144  SAPC      H14X            2.1393449230      -28.0383537862       -4.3875354194  MEMB      144             0.0000000000
     16657       144  SAPC      H14Y            3.7628718318      -27.5155833035       -4.8830434279  MEMB      144             0.0000000000
     16658       144  SAPC      C315            3.4190410515      -27.2108864237       -2.7756608217  MEMB      144             0.0000000000
     16659       144  SAPC      H15X            3.2867450224      -26.1512723201       -3.0823145717  MEMB      144             0.0000000000
     16660       144  SAPC      H15Y            4.4784114053      -27.3401622986       -2.4668844035  MEMB      144             0.0000000000
     16661       144  SAPC      C316            2.3844534422      -27.5935949765       -1.7259607553  MEMB      144             0.0000000000
     16662       144  SAPC      H16X            2.5445355636      -28.6069181340       -1.2994984191  MEMB      144             0.0000000000
     16663       144  SAPC      H16Y            1.3644214054      -27.6024580789       -2.1661618657  MEMB      144             0.0000000000
     16664       144  SAPC      C317            2.4272781057      -26.5370351182       -0.5457305268  MEMB      144             0.0000000000
     16665       144  SAPC      H17X            2.0385653945      -27.1291071804        0.3102336192  MEMB      144             0.0000000000
     16666       144  SAPC      H17Y            1.6855345625      -25.7815044667       -0.8823470665  MEMB      144             0.0000000000
     16667       144  SAPC      C318            3.7519545926      -25.8898268214       -0.1747047161  MEMB      144             0.0000000000
     16668       144  SAPC      H18X            4.4394529160      -26.6964969200        0.1583871802  MEMB      144             0.0000000000
     16669       144  SAPC      H18Y            3.6279558613      -25.1512967677        0.6459762477  MEMB      144             0.0000000000
     16670       144  SAPC      H18Z            4.3385250033      -25.3310774527       -0.9350051274  MEMB      144             0.0000000000
     16671       145  SLPC      N             -25.5607690198      -12.6953298831      -19.1807588677  MEMB      145             0.0000000000
     16672       145  SLPC      C13           -25.4625309027      -11.1639495966      -19.1749650147  MEMB      145             0.0000000000
     16673       145  SLPC      H13A          -26.2936577714      -10.9261252664      -19.8223192387  MEMB      145             0.0000000000
     16674       145  SLPC      H13B          -25.6354174271      -10.8128406663      -18.1683702322  MEMB      145             0.0000000000
     16675       145  SLPC      H13C          -24.4779846506      -10.8164017857      -19.4511517436  MEMB      145             0.0000000000
     16676       145  SLPC      C14           -24.3650732012      -13.2236793034      -18.3592950299  MEMB      145             0.0000000000
     16677       145  SLPC      H14A          -24.5988653261      -12.9823916294      -17.3328830567  MEMB      145             0.0000000000
     16678       145  SLPC      H14B          -24.3871974081      -14.2996044549      -18.2682149759  MEMB      145             0.0000000000
     16679       145  SLPC      H14C          -23.4264810992      -12.7960652568      -18.6795934131  MEMB      145             0.0000000000
     16680       145  SLPC      C15           -25.4467413593      -13.0074530099      -20.6614468807  MEMB      145             0.0000000000
     16681       145  SLPC      H15A          -26.3103386713      -12.5085625973      -21.0758236431  MEMB      145             0.0000000000
     16682       145  SLPC      H15B          -24.5384627446      -12.5199418170      -20.9835697357  MEMB      145             0.0000000000
     16683       145  SLPC      H15C          -25.5043667739      -14.0718695800      -20.8349309759  MEMB      145             0.0000000000
     16684       145  SLPC      C12           -26.8089766949      -13.1759482632      -18.6533358713  MEMB      145             0.0000000000
     16685       145  SLPC      H12A          -26.8942595825      -14.2524268809      -18.6354269789  MEMB      145             0.0000000000
     16686       145  SLPC      H12B          -27.5475791424      -12.6978701235      -19.2796805938  MEMB      145             0.0000000000
     16687       145  SLPC      C11           -27.1225689752      -12.9328642590      -17.1369024477  MEMB      145             0.0000000000
     16688       145  SLPC      H11A          -28.2034109953      -13.0781973348      -16.9248181944  MEMB      145             0.0000000000
     16689       145  SLPC      H11B          -27.0475326664      -11.8505441529      -16.8975829354  MEMB      145             0.0000000000
     16690       145  SLPC      P             -26.2998082252      -13.5127392812      -14.7256437027  MEMB      145             0.0000000000
     16691       145  SLPC      O13           -25.5612525661      -14.6744539836      -14.1401841059  MEMB      145             0.0000000000
     16692       145  SLPC      O14           -25.6823738524      -12.1841096932      -14.4105797607  MEMB      145             0.0000000000
     16693       145  SLPC      O12           -26.3199662107      -13.7694241759      -16.3163529221  MEMB      145             0.0000000000
     16694       145  SLPC      O11           -27.8459771684      -13.6695064619      -14.2405354282  MEMB      145             0.0000000000
     16695       145  SLPC      C1            -28.7210674795      -12.5172641463      -14.2056718840  MEMB      145             0.0000000000
     16696       145  SLPC      HA            -28.3958837608      -11.7062030274      -14.8917887727  MEMB      145             0.0000000000
     16697       145  SLPC      HB            -29.6716782038      -12.8170223285      -14.6963910026  MEMB      145             0.0000000000
     16698       145  SLPC      C2            -28.8115426764      -12.0719899930      -12.7134783244  MEMB      145             0.0000000000
     16699       145  SLPC      HS            -29.5235602666      -11.2192858149      -12.6977413793  MEMB      145             0.0000000000
     16700       145  SLPC      O21           -27.5031926597      -11.7955666654      -12.2252303013  MEMB      145             0.0000000000
     16701       145  SLPC      C21           -27.4896905025      -11.0884290660      -11.1278664458  MEMB      145             0.0000000000
     16702       145  SLPC      O22           -28.3817123218      -10.3547587744      -10.6821178871  MEMB      145             0.0000000000
     16703       145  SLPC      C22           -26.0871480202      -11.0724240018      -10.4985021937  MEMB      145             0.0000000000
     16704       145  SLPC      H2R           -25.3819131926      -11.3808391150      -11.2996546355  MEMB      145             0.0000000000
     16705       145  SLPC      H2S           -25.7166795100      -10.0535957735      -10.2554725466  MEMB      145             0.0000000000
     16706       145  SLPC      C3            -29.3741062239      -13.2415024710      -11.8771745879  MEMB      145             0.0000000000
     16707       145  SLPC      HX            -28.6458836407      -14.0794025616      -11.9211760386  MEMB      145             0.0000000000
     16708       145  SLPC      HY            -30.3022755342      -13.6684654497      -12.3136666818  MEMB      145             0.0000000000
     16709       145  SLPC      O31           -29.5540313237      -12.8895601076      -10.4587230219  MEMB      145             0.0000000000
     16710       145  SLPC      C31           -30.6418932515      -12.2949073800      -10.1268108286  MEMB      145             0.0000000000
     16711       145  SLPC      O32           -31.5461172104      -11.8244286515      -10.8614384867  MEMB      145             0.0000000000
     16712       145  SLPC      C32           -30.6323347840      -12.1045742060       -8.5757535303  MEMB      145             0.0000000000
     16713       145  SLPC      H2X           -29.6324913016      -11.6941916748       -8.3184204123  MEMB      145             0.0000000000
     16714       145  SLPC      H2Y           -30.8229852175      -13.0966496489       -8.1134124012  MEMB      145             0.0000000000
     16715       145  SLPC      C23           -26.0868100278      -11.8885800301       -9.2032713489  MEMB      145             0.0000000000
     16716       145  SLPC      H3R           -26.8620268499      -11.4960710367       -8.5109582158  MEMB      145             0.0000000000
     16717       145  SLPC      H3S           -25.1653744080      -11.6967727516       -8.6129430898  MEMB      145             0.0000000000
     16718       145  SLPC      C24           -26.2864075963      -13.4250706848       -9.2003461034  MEMB      145             0.0000000000
     16719       145  SLPC      H4R           -25.8112862256      -13.8074437129      -10.1289859449  MEMB      145             0.0000000000
     16720       145  SLPC      H4S           -27.3856581808      -13.5604449690       -9.2877703350  MEMB      145             0.0000000000
     16721       145  SLPC      C25           -25.8795577316      -14.0822242076       -7.8309643330  MEMB      145             0.0000000000
     16722       145  SLPC      H5R           -24.8099046364      -13.8771602378       -7.6116201108  MEMB      145             0.0000000000
     16723       145  SLPC      H5S           -26.1301878643      -15.1471783161       -8.0242989639  MEMB      145             0.0000000000
     16724       145  SLPC      C26           -26.5762880711      -13.6825164387       -6.4710976036  MEMB      145             0.0000000000
     16725       145  SLPC      H6R           -26.6251524494      -12.6063838954       -6.1993037700  MEMB      145             0.0000000000
     16726       145  SLPC      H6S           -25.8588256631      -14.0548406271       -5.7089015240  MEMB      145             0.0000000000
     16727       145  SLPC      C27           -28.0401829802      -14.1529209106       -6.3129287219  MEMB      145             0.0000000000
     16728       145  SLPC      H7R           -28.5469330131      -13.7355104178       -7.2091960859  MEMB      145             0.0000000000
     16729       145  SLPC      H7S           -28.4533720083      -13.8571245559       -5.3249509392  MEMB      145             0.0000000000
     16730       145  SLPC      C28           -28.2741290668      -15.7031854716       -6.4108118240  MEMB      145             0.0000000000
     16731       145  SLPC      H8R           -28.0575903496      -15.9777176947       -7.4653569191  MEMB      145             0.0000000000
     16732       145  SLPC      H8S           -29.3564886938      -15.8254975313       -6.1920479351  MEMB      145             0.0000000000
     16733       145  SLPC      C29           -27.4290897223      -16.5696908131       -5.4373476626  MEMB      145             0.0000000000
     16734       145  SLPC      H9R           -26.4173984287      -16.7615591366       -5.8242162405  MEMB      145             0.0000000000
     16735       145  SLPC      C210          -27.7542193561      -17.1845178475       -4.3021095494  MEMB      145             0.0000000000
     16736       145  SLPC      H10R          -26.9849150720      -17.7483010399       -3.7540952131  MEMB      145             0.0000000000
     16737       145  SLPC      C211          -29.0556555807      -17.1784111727       -3.5673657861  MEMB      145             0.0000000000
     16738       145  SLPC      H11R          -28.9127799278      -17.4565752691       -2.5012826727  MEMB      145             0.0000000000
     16739       145  SLPC      H11S          -29.7289215476      -17.9225920778       -4.0440510948  MEMB      145             0.0000000000
     16740       145  SLPC      C212          -30.0001013387      -16.0363092291       -3.5434224181  MEMB      145             0.0000000000
     16741       145  SLPC      H12R          -30.8317167097      -16.0774119536       -4.2622587361  MEMB      145             0.0000000000
     16742       145  SLPC      C213          -29.9254335541      -14.8462620282       -2.8392584716  MEMB      145             0.0000000000
     16743       145  SLPC      H13R          -30.7711157269      -14.1501253633       -2.9403294492  MEMB      145             0.0000000000
     16744       145  SLPC      C214          -28.8321726744      -14.4236476680       -1.9335293998  MEMB      145             0.0000000000
     16745       145  SLPC      H14R          -28.4386030419      -13.4064587685       -2.1450720805  MEMB      145             0.0000000000
     16746       145  SLPC      H14S          -27.9280713848      -15.0596318005       -1.8219681934  MEMB      145             0.0000000000
     16747       145  SLPC      C215          -29.3251151457      -14.4971516746       -0.4252432220  MEMB      145             0.0000000000
     16748       145  SLPC      H15R          -28.4133101972      -14.3658655229        0.1958009378  MEMB      145             0.0000000000
     16749       145  SLPC      H15S          -29.6778060991      -15.5369469003       -0.2556676088  MEMB      145             0.0000000000
     16750       145  SLPC      C216          -30.4178158180      -13.4639965515       -0.0479423145  MEMB      145             0.0000000000
     16751       145  SLPC      H16R          -31.3385564963      -13.6395661697       -0.6443757518  MEMB      145             0.0000000000
     16752       145  SLPC      H16S          -30.0664117992      -12.4315869690       -0.2599957563  MEMB      145             0.0000000000
     16753       145  SLPC      C217          -30.7069186701      -13.4217807472        1.4118332164  MEMB      145             0.0000000000
     16754       145  SLPC      H17R          -31.2738318345      -14.3209606298        1.7349535849  MEMB      145             0.0000000000
     16755       145  SLPC      H17S          -31.4323138872      -12.5935539228        1.5607084320  MEMB      145             0.0000000000
     16756       145  SLPC      C218          -29.5509889151      -13.2108263404        2.3005800338  MEMB      145             0.0000000000
     16757       145  SLPC      H18R          -29.2540760344      -12.1405267330        2.2756307372  MEMB      145             0.0000000000
     16758       145  SLPC      H18S          -28.6920395511      -13.8846436740        2.0944314422  MEMB      145             0.0000000000
     16759       145  SLPC      H18T          -29.9074189607      -13.4330737774        3.3291155227  MEMB      145             0.0000000000
     16760       145  SLPC      C33           -31.8241193714      -11.2940400131       -8.0267936745  MEMB      145             0.0000000000
     16761       145  SLPC      H3X           -32.0677045134      -11.6774405075       -7.0128945695  MEMB      145             0.0000000000
     16762       145  SLPC      H3Y           -32.7089304754      -11.4289106747       -8.6850044114  MEMB      145             0.0000000000
     16763       145  SLPC      C34           -31.6270088009       -9.7275996618       -8.0954906525  MEMB      145             0.0000000000
     16764       145  SLPC      H4X           -32.6556718207       -9.3710989965       -7.8739466808  MEMB      145             0.0000000000
     16765       145  SLPC      H4Y           -31.3283102232       -9.3906971953       -9.1111659810  MEMB      145             0.0000000000
     16766       145  SLPC      C35           -30.5462255867       -9.1037514047       -7.1713634652  MEMB      145             0.0000000000
     16767       145  SLPC      H5X           -30.5473843725       -7.9927585873       -7.1752372746  MEMB      145             0.0000000000
     16768       145  SLPC      H5Y           -29.4919774954       -9.3827570845       -7.3835851538  MEMB      145             0.0000000000
     16769       145  SLPC      C36           -30.8493418027       -9.2010714283       -5.6049085153  MEMB      145             0.0000000000
     16770       145  SLPC      H6X           -31.9421045460       -9.0998538749       -5.4318611670  MEMB      145             0.0000000000
     16771       145  SLPC      H6Y           -30.2499705971       -8.3349619322       -5.2514553538  MEMB      145             0.0000000000
     16772       145  SLPC      C37           -30.1962584231      -10.4695109135       -4.9579679861  MEMB      145             0.0000000000
     16773       145  SLPC      H7X           -29.1335002787      -10.4569544744       -5.2815541777  MEMB      145             0.0000000000
     16774       145  SLPC      H7Y           -30.5632559939      -11.4169898999       -5.4073206788  MEMB      145             0.0000000000
     16775       145  SLPC      C38           -30.1418936405      -10.5874658604       -3.4503461589  MEMB      145             0.0000000000
     16776       145  SLPC      H8X           -29.5460239212      -11.4848982573       -3.1785462434  MEMB      145             0.0000000000
     16777       145  SLPC      H8Y           -31.0780761167      -10.7771295793       -2.8829742871  MEMB      145             0.0000000000
     16778       145  SLPC      C39           -29.6853451778       -9.3422310682       -2.7018119148  MEMB      145             0.0000000000
     16779       145  SLPC      H9X           -29.5346525804       -9.5376497566       -1.6185656340  MEMB      145             0.0000000000
     16780       145  SLPC      H9Y           -30.3274647544       -8.4385430201       -2.7749648367  MEMB      145             0.0000000000
     16781       145  SLPC      C310          -28.2821271972       -8.6985595883       -3.0908670556  MEMB      145             0.0000000000
     16782       145  SLPC      H10X          -27.9559446303       -7.9019977920       -2.3884319011  MEMB      145             0.0000000000
     16783       145  SLPC      H10Y          -28.3880796717       -8.3904570335       -4.1530196176  MEMB      145             0.0000000000
     16784       145  SLPC      C311          -27.1599712235       -9.7629653513       -2.8809698651  MEMB      145             0.0000000000
     16785       145  SLPC      H11X          -26.2313256819       -9.3155851478       -3.2954445647  MEMB      145             0.0000000000
     16786       145  SLPC      H11Y          -27.2584502320      -10.5544878600       -3.6543487735  MEMB      145             0.0000000000
     16787       145  SLPC      C312          -26.9373567778      -10.2636615357       -1.4580860518  MEMB      145             0.0000000000
     16788       145  SLPC      H12X          -27.9499113796      -10.5160001499       -1.0767997244  MEMB      145             0.0000000000
     16789       145  SLPC      H12Y          -26.6468545890       -9.3547935087       -0.8889737150  MEMB      145             0.0000000000
     16790       145  SLPC      C313          -26.0343717838      -11.4359642935       -1.1945191973  MEMB      145             0.0000000000
     16791       145  SLPC      H13X          -24.9708466651      -11.1413930916       -1.3228277244  MEMB      145             0.0000000000
     16792       145  SLPC      H13Y          -26.3101781854      -12.3222297672       -1.8050809843  MEMB      145             0.0000000000
     16793       145  SLPC      C314          -26.1594751724      -11.9546999449        0.2356335966  MEMB      145             0.0000000000
     16794       145  SLPC      H14X          -27.2222650771      -12.2720978698        0.2993298963  MEMB      145             0.0000000000
     16795       145  SLPC      H14Y          -26.0348553129      -11.0681268631        0.8934944076  MEMB      145             0.0000000000
     16796       145  SLPC      C315          -25.2831133631      -13.2257885321        0.3577503903  MEMB      145             0.0000000000
     16797       145  SLPC      H15X          -24.2336357170      -12.8791762806        0.2447149800  MEMB      145             0.0000000000
     16798       145  SLPC      H15Y          -25.3656556194      -13.9659435778       -0.4666753786  MEMB      145             0.0000000000
     16799       145  SLPC      C316          -25.6145942623      -13.8769707132        1.7663860876  MEMB      145             0.0000000000
     16800       145  SLPC      H16X          -26.6132561718      -14.3457025024        1.6349088985  MEMB      145             0.0000000000
     16801       145  SLPC      H16Y          -25.7593457547      -13.0245739502        2.4640872232  MEMB      145             0.0000000000
     16802       145  SLPC      C317          -24.6323021326      -15.0176027018        2.2027620313  MEMB      145             0.0000000000
     16803       145  SLPC      H17X          -23.7252485172      -14.4961038249        2.5764111704  MEMB      145             0.0000000000
     16804       145  SLPC      H17Y          -24.3470993496      -15.4990967003        1.2429996723  MEMB      145             0.0000000000
     16805       145  SLPC      C318          -25.1037233771      -15.8777729578        3.3574253226  MEMB      145             0.0000000000
     16806       145  SLPC      H18X          -24.3455998149      -16.6823764530        3.4677983810  MEMB      145             0.0000000000
     16807       145  SLPC      H18Y          -26.0620230953      -16.3683704105        3.0830221240  MEMB      145             0.0000000000
     16808       145  SLPC      H18Z          -25.2164941272      -15.3798567401        4.3441787976  MEMB      145             0.0000000000
     16809       146  CHL1      C3             20.9774376486       19.9870431576      -17.3497050000  MEMB      146             0.0000000000
     16810       146  CHL1      H3             19.8665676421       19.9902935889      -17.3331350000  MEMB      146             0.0000000000
     16811       146  CHL1      O3             21.4297299514       20.1892632424      -18.6502950000  MEMB      146             0.0000000000
     16812       146  CHL1      H3'            20.9782372861       19.6267730102      -19.2838250000  MEMB      146             0.0000000000
     16813       146  CHL1      C4             21.4300501399       21.1597493604      -16.4537650000  MEMB      146             0.0000000000
     16814       146  CHL1      H4A            22.5189917262       21.2665691924      -16.6463850000  MEMB      146             0.0000000000
     16815       146  CHL1      H4B            20.9649383163       22.0911550470      -16.8416650000  MEMB      146             0.0000000000
     16816       146  CHL1      C5             21.2897658431       20.9577026537      -14.9834550000  MEMB      146             0.0000000000
     16817       146  CHL1      C6             20.7382359372       21.9247456810      -14.2315950000  MEMB      146             0.0000000000
     16818       146  CHL1      H6             20.3163946182       22.8381814617      -14.6762350000  MEMB      146             0.0000000000
     16819       146  CHL1      C7             20.5954874383       21.8911317215      -12.7151950000  MEMB      146             0.0000000000
     16820       146  CHL1      H7A            20.9366181764       22.8163915923      -12.2034950000  MEMB      146             0.0000000000
     16821       146  CHL1      H7B            19.5054911571       21.7338080983      -12.5686350000  MEMB      146             0.0000000000
     16822       146  CHL1      C8             21.3573706258       20.6263256988      -12.1487750000  MEMB      146             0.0000000000
     16823       146  CHL1      H8             22.4204052711       20.9487660571      -12.1315050000  MEMB      146             0.0000000000
     16824       146  CHL1      C14            20.8478799330       20.2664981894      -10.7752750000  MEMB      146             0.0000000000
     16825       146  CHL1      H14            19.7806210668       19.9766048089      -10.8812650000  MEMB      146             0.0000000000
     16826       146  CHL1      C15            20.9930095648       21.3481118722       -9.6998950000  MEMB      146             0.0000000000
     16827       146  CHL1      H15A           21.8986362181       21.9804383945       -9.8196050000  MEMB      146             0.0000000000
     16828       146  CHL1      H15B           20.1848264707       22.0914291446       -9.8691150000  MEMB      146             0.0000000000
     16829       146  CHL1      C16            20.7259599148       20.6045653154       -8.3415250000  MEMB      146             0.0000000000
     16830       146  CHL1      H16A           21.4436148345       20.9239256104       -7.5558450000  MEMB      146             0.0000000000
     16831       146  CHL1      H16B           19.7249302918       20.8858181322       -7.9501750000  MEMB      146             0.0000000000
     16832       146  CHL1      C17            21.0056156535       19.1028025611       -8.6038750000  MEMB      146             0.0000000000
     16833       146  CHL1      H17            19.9792636566       18.6794898171       -8.5624550000  MEMB      146             0.0000000000
     16834       146  CHL1      C13            21.5616723663       19.1756039776      -10.0160550000  MEMB      146             0.0000000000
     16835       146  CHL1      C18            23.1306367795       19.6044735295       -9.9907450000  MEMB      146             0.0000000000
     16836       146  CHL1      H18A           23.2357513320       20.3762240347       -9.1984850000  MEMB      146             0.0000000000
     16837       146  CHL1      H18B           23.6776431497       18.6910300714       -9.6733650000  MEMB      146             0.0000000000
     16838       146  CHL1      H18C           23.6369121048       19.9558818755      -10.9151450000  MEMB      146             0.0000000000
     16839       146  CHL1      C12            21.3488200032       17.9630947316      -10.8863550000  MEMB      146             0.0000000000
     16840       146  CHL1      H12A           21.8039743114       16.9944463506      -10.5882250000  MEMB      146             0.0000000000
     16841       146  CHL1      H12B           20.2547607003       17.7942418997      -10.9804850000  MEMB      146             0.0000000000
     16842       146  CHL1      C11            21.8453252100       18.1476918736      -12.3686950000  MEMB      146             0.0000000000
     16843       146  CHL1      H11A           22.9197747458       18.4268954099      -12.3248350000  MEMB      146             0.0000000000
     16844       146  CHL1      H11B           21.7420860764       17.2547812702      -13.0216650000  MEMB      146             0.0000000000
     16845       146  CHL1      C9             21.1854470977       19.3786533336      -13.0226850000  MEMB      146             0.0000000000
     16846       146  CHL1      H9             20.0993068236       19.1885864712      -13.1587050000  MEMB      146             0.0000000000
     16847       146  CHL1      C10            21.6639367295       19.5642184927      -14.4563850000  MEMB      146             0.0000000000
     16848       146  CHL1      C19            23.2053759919       19.5254553890      -14.3951950000  MEMB      146             0.0000000000
     16849       146  CHL1      H19A           23.7077387250       20.2233743433      -13.6917350000  MEMB      146             0.0000000000
     16850       146  CHL1      H19B           23.6012959923       18.5102068869      -14.1787950000  MEMB      146             0.0000000000
     16851       146  CHL1      H19C           23.5663537416       19.8498644491      -15.3945850000  MEMB      146             0.0000000000
     16852       146  CHL1      C1             21.1857875613       18.4040336410      -15.4182950000  MEMB      146             0.0000000000
     16853       146  CHL1      H1A            21.6003988782       17.4181286423      -15.1176150000  MEMB      146             0.0000000000
     16854       146  CHL1      H1B            20.0821578222       18.3394278145      -15.3080850000  MEMB      146             0.0000000000
     16855       146  CHL1      C2             21.5140825719       18.6953823993      -16.8862650000  MEMB      146             0.0000000000
     16856       146  CHL1      H2A            21.3647337642       17.8245332929      -17.5597950000  MEMB      146             0.0000000000
     16857       146  CHL1      H2B            22.6052454226       18.8454557594      -17.0317050000  MEMB      146             0.0000000000
     16858       146  CHL1      C20            21.7627731836       18.4330872148       -7.3370850000  MEMB      146             0.0000000000
     16859       146  CHL1      H20            22.7408532059       18.9557847909       -7.2702050000  MEMB      146             0.0000000000
     16860       146  CHL1      C21            22.0288716696       16.8959179554       -7.5294950000  MEMB      146             0.0000000000
     16861       146  CHL1      H21A           22.5254097178       16.4326390131       -6.6502050000  MEMB      146             0.0000000000
     16862       146  CHL1      H21B           22.6959476438       16.7799103472       -8.4103250000  MEMB      146             0.0000000000
     16863       146  CHL1      H21C           21.1109125284       16.2725172464       -7.5846450000  MEMB      146             0.0000000000
     16864       146  CHL1      C22            21.0568711408       18.6977949282       -6.0136050000  MEMB      146             0.0000000000
     16865       146  CHL1      H22A           20.8936811697       19.7947425015       -5.9473050000  MEMB      146             0.0000000000
     16866       146  CHL1      H22B           20.0269150990       18.3014373481       -6.1416350000  MEMB      146             0.0000000000
     16867       146  CHL1      C23            21.6944628054       18.2323571474       -4.6646250000  MEMB      146             0.0000000000
     16868       146  CHL1      H23A           21.0600207459       18.6922577820       -3.8770350000  MEMB      146             0.0000000000
     16869       146  CHL1      H23B           21.5181907969       17.1686815518       -4.3965950000  MEMB      146             0.0000000000
     16870       146  CHL1      C24            23.1265735971       18.8258071719       -4.3838850000  MEMB      146             0.0000000000
     16871       146  CHL1      H24A           23.7634824621       18.6127012629       -5.2689050000  MEMB      146             0.0000000000
     16872       146  CHL1      H24B           22.9681628988       19.9240474369       -4.4396150000  MEMB      146             0.0000000000
     16873       146  CHL1      C25            23.8400929943       18.6236801905       -3.0984350000  MEMB      146             0.0000000000
     16874       146  CHL1      H25            24.8295842428       19.1247180271       -3.1632350000  MEMB      146             0.0000000000
     16875       146  CHL1      C26            23.1637828146       19.1805383441       -1.8057850000  MEMB      146             0.0000000000
     16876       146  CHL1      H26A           22.1475182647       18.7812474467       -1.6006450000  MEMB      146             0.0000000000
     16877       146  CHL1      H26B           23.7042059919       18.6849345965       -0.9711350000  MEMB      146             0.0000000000
     16878       146  CHL1      H26C           22.9174722532       20.2576814846       -1.6899050000  MEMB      146             0.0000000000
     16879       146  CHL1      C27            24.3215196923       17.1431158745       -2.8816450000  MEMB      146             0.0000000000
     16880       146  CHL1      H27A           23.6435279884       16.3523234621       -3.2680350000  MEMB      146             0.0000000000
     16881       146  CHL1      H27B           25.2693131208       17.0951559804       -3.4593250000  MEMB      146             0.0000000000
     16882       146  CHL1      H27C           24.6078988580       16.8233109316       -1.8569350000  MEMB      146             0.0000000000
     16883       147  SOPE      N              27.1604009594      -12.9333939588      -22.9758850748  MEMB      147             0.0000000000
     16884       147  SOPE      HN1            28.1769780245      -12.9225258837      -23.1950950969  MEMB      147             0.0000000000
     16885       147  SOPE      HN2            26.7661119514      -12.2506457379      -23.6541114831  MEMB      147             0.0000000000
     16886       147  SOPE      HN3            27.1100678276      -12.3871708452      -22.0923090151  MEMB      147             0.0000000000
     16887       147  SOPE      C12            26.5781003920      -14.2922543864      -23.1226317223  MEMB      147             0.0000000000
     16888       147  SOPE      H12A           27.0421469200      -14.7951197350      -23.9979078322  MEMB      147             0.0000000000
     16889       147  SOPE      H12B           25.5007520467      -14.0905121967      -23.3041301236  MEMB      147             0.0000000000
     16890       147  SOPE      C11            26.6424390287      -15.1089736014      -21.8093677753  MEMB      147             0.0000000000
     16891       147  SOPE      H11A           27.6270768759      -15.6235420193      -21.8147255027  MEMB      147             0.0000000000
     16892       147  SOPE      H11B           25.9046669740      -15.9371875761      -21.8732037126  MEMB      147             0.0000000000
     16893       147  SOPE      P              24.9351761620      -14.1952795755      -20.0553268524  MEMB      147             0.0000000000
     16894       147  SOPE      O13            23.9701382624      -14.6209626311      -21.1091841178  MEMB      147             0.0000000000
     16895       147  SOPE      O14            24.7742770018      -12.7962363973      -19.5726473681  MEMB      147             0.0000000000
     16896       147  SOPE      O12            26.4858186747      -14.4115259861      -20.5782226212  MEMB      147             0.0000000000
     16897       147  SOPE      O11            24.7448839159      -15.0779502630      -18.7767344658  MEMB      147             0.0000000000
     16898       147  SOPE      C1             25.0756804948      -16.4116133103      -18.5551482155  MEMB      147             0.0000000000
     16899       147  SOPE      HA             26.1833681131      -16.4873951791      -18.5952255765  MEMB      147             0.0000000000
     16900       147  SOPE      HB             24.6298955901      -17.0934982567      -19.3105485851  MEMB      147             0.0000000000
     16901       147  SOPE      C2             24.6087389752      -16.8130410428      -17.2059200814  MEMB      147             0.0000000000
     16902       147  SOPE      HS             24.2003243194      -17.8428386360      -17.1220426297  MEMB      147             0.0000000000
     16903       147  SOPE      O21            23.5907148947      -15.8777566811      -16.8024859899  MEMB      147             0.0000000000
     16904       147  SOPE      C21            22.7159901225      -16.2942245290      -15.8535127637  MEMB      147             0.0000000000
     16905       147  SOPE      O22            22.7474828203      -17.3783263727      -15.2722506851  MEMB      147             0.0000000000
     16906       147  SOPE      C22            21.5398111893      -15.2916783313      -15.7534369662  MEMB      147             0.0000000000
     16907       147  SOPE      H2R            20.6512302638      -15.6729051256      -15.2062519762  MEMB      147             0.0000000000
     16908       147  SOPE      H2S            21.2118163740      -15.1780486808      -16.8088180967  MEMB      147             0.0000000000
     16909       147  SOPE      C3             25.7829015240      -16.7613794221      -16.2208947532  MEMB      147             0.0000000000
     16910       147  SOPE      HX             26.4778340902      -17.3680635162      -16.8400265426  MEMB      147             0.0000000000
     16911       147  SOPE      HY             25.5440325065      -17.3410117232      -15.3036764558  MEMB      147             0.0000000000
     16912       147  SOPE      O31            26.2740054089      -15.4315204468      -15.9371126667  MEMB      147             0.0000000000
     16913       147  SOPE      C31            27.6296019244      -15.3199080609      -15.6599523573  MEMB      147             0.0000000000
     16914       147  SOPE      O32            28.5095166485      -16.1333805961      -15.8588504788  MEMB      147             0.0000000000
     16915       147  SOPE      C32            27.7094240294      -13.8789093006      -15.1248993497  MEMB      147             0.0000000000
     16916       147  SOPE      H2X            26.7975079940      -13.5520940974      -14.5809122817  MEMB      147             0.0000000000
     16917       147  SOPE      H2Y            27.8939538650      -13.2330412210      -16.0098424363  MEMB      147             0.0000000000
     16918       147  SOPE      C23            21.9896805993      -13.9047973329      -15.2551917707  MEMB      147             0.0000000000
     16919       147  SOPE      H3R            21.2034620952      -13.1496057935      -15.4693575904  MEMB      147             0.0000000000
     16920       147  SOPE      H3S            22.9575688153      -13.6387387450      -15.7313492890  MEMB      147             0.0000000000
     16921       147  SOPE      C24            22.1746718816      -13.8039373929      -13.7304276155  MEMB      147             0.0000000000
     16922       147  SOPE      H4R            21.2360877662      -14.1144738308      -13.2235269372  MEMB      147             0.0000000000
     16923       147  SOPE      H4S            23.0382806236      -14.4629360136      -13.4975720058  MEMB      147             0.0000000000
     16924       147  SOPE      C25            22.4375911116      -12.3807742506      -13.1767742834  MEMB      147             0.0000000000
     16925       147  SOPE      H5R            21.8768611028      -11.5094514452      -13.5776478326  MEMB      147             0.0000000000
     16926       147  SOPE      H5S            22.1998960266      -12.3986593877      -12.0916462332  MEMB      147             0.0000000000
     16927       147  SOPE      C26            23.8956041074      -11.9077048157      -13.1986696583  MEMB      147             0.0000000000
     16928       147  SOPE      H6R            24.5321334186      -12.6748013995      -12.7080432593  MEMB      147             0.0000000000
     16929       147  SOPE      H6S            24.3554772810      -12.0296410737      -14.2026465463  MEMB      147             0.0000000000
     16930       147  SOPE      C27            24.2210924028      -10.5468573388      -12.7468875018  MEMB      147             0.0000000000
     16931       147  SOPE      H7R            25.3211200691      -10.5758708757      -12.5938570529  MEMB      147             0.0000000000
     16932       147  SOPE      H7S            23.9157650162       -9.8442198737      -13.5514970471  MEMB      147             0.0000000000
     16933       147  SOPE      C28            23.6021229287      -10.0869765122      -11.4072233578  MEMB      147             0.0000000000
     16934       147  SOPE      H8R            23.6788066330       -8.9862286840      -11.2776270229  MEMB      147             0.0000000000
     16935       147  SOPE      H8S            22.5195247835      -10.3146213720      -11.5095953306  MEMB      147             0.0000000000
     16936       147  SOPE      C29            24.1329521146      -10.8492549979      -10.1980821033  MEMB      147             0.0000000000
     16937       147  SOPE      H91            25.2080392525      -11.0817367888      -10.2099070811  MEMB      147             0.0000000000
     16938       147  SOPE      C210           23.4285612943      -11.4274603110       -9.2371168524  MEMB      147             0.0000000000
     16939       147  SOPE      H101           23.9814054486      -11.6629983891       -8.3157672307  MEMB      147             0.0000000000
     16940       147  SOPE      C211           21.9187583661      -11.5492478581       -9.0672838959  MEMB      147             0.0000000000
     16941       147  SOPE      H11R           21.7080041327      -12.6262577790       -8.8942138904  MEMB      147             0.0000000000
     16942       147  SOPE      H11S           21.3147960412      -11.0837275608       -9.8752698313  MEMB      147             0.0000000000
     16943       147  SOPE      C212           21.5131340812      -10.9252184129       -7.7176868742  MEMB      147             0.0000000000
     16944       147  SOPE      H12R           20.4100134266      -10.9640117810       -7.5914278515  MEMB      147             0.0000000000
     16945       147  SOPE      H12S           21.7390754082       -9.8374420403       -7.7139205407  MEMB      147             0.0000000000
     16946       147  SOPE      C213           22.1129702836      -11.5919303205       -6.4108234159  MEMB      147             0.0000000000
     16947       147  SOPE      H13R           23.1688797254      -11.2730611452       -6.2777869585  MEMB      147             0.0000000000
     16948       147  SOPE      H13S           22.0603527978      -12.6998409873       -6.4747483797  MEMB      147             0.0000000000
     16949       147  SOPE      C214           21.5430994681      -11.1655151787       -4.9667829634  MEMB      147             0.0000000000
     16950       147  SOPE      H14R           20.4467984959      -11.3126067891       -4.8628173458  MEMB      147             0.0000000000
     16951       147  SOPE      H14S           21.7194907665      -10.0721413474       -4.8787998027  MEMB      147             0.0000000000
     16952       147  SOPE      C215           22.3733414337      -11.9422050987       -3.9090004888  MEMB      147             0.0000000000
     16953       147  SOPE      H15R           22.2997370253      -11.3243680807       -2.9885751388  MEMB      147             0.0000000000
     16954       147  SOPE      H15S           23.4299309375      -11.9843938997       -4.2498205506  MEMB      147             0.0000000000
     16955       147  SOPE      C216           21.8525689066      -13.3463507775       -3.5086469638  MEMB      147             0.0000000000
     16956       147  SOPE      H16R           21.9118642565      -13.9744402495       -4.4231460292  MEMB      147             0.0000000000
     16957       147  SOPE      H16S           20.8132298053      -13.2616718474       -3.1253378799  MEMB      147             0.0000000000
     16958       147  SOPE      C217           22.7519751808      -14.1063520511       -2.4407146454  MEMB      147             0.0000000000
     16959       147  SOPE      H17R           22.9930946418      -13.5527091757       -1.5081570624  MEMB      147             0.0000000000
     16960       147  SOPE      H17S           23.7374174027      -14.3298582372       -2.9025259329  MEMB      147             0.0000000000
     16961       147  SOPE      C218           22.1544992882      -15.5057020542       -2.0069785478  MEMB      147             0.0000000000
     16962       147  SOPE      H18R           22.2230101656      -16.1977248863       -2.8734252521  MEMB      147             0.0000000000
     16963       147  SOPE      H18S           21.0956619828      -15.4390959214       -1.6772086006  MEMB      147             0.0000000000
     16964       147  SOPE      H18T           22.8926565560      -15.8773006293       -1.2644431166  MEMB      147             0.0000000000
     16965       147  SOPE      C33            28.8881604035      -13.7851016971      -14.1737352446  MEMB      147             0.0000000000
     16966       147  SOPE      H3X            29.8040456798      -13.5916086214      -14.7720958155  MEMB      147             0.0000000000
     16967       147  SOPE      H3Y            29.2342814065      -14.6863107558      -13.6238775606  MEMB      147             0.0000000000
     16968       147  SOPE      C34            28.6486534245      -12.5952883614      -13.2667684147  MEMB      147             0.0000000000
     16969       147  SOPE      H4X            27.7953495613      -12.8727259598      -12.6116184938  MEMB      147             0.0000000000
     16970       147  SOPE      H4Y            28.2915101570      -11.7234307355      -13.8555247788  MEMB      147             0.0000000000
     16971       147  SOPE      C35            29.9118647197      -12.2810449889      -12.4717241352  MEMB      147             0.0000000000
     16972       147  SOPE      H5X            30.7474624077      -12.0225083407      -13.1567471886  MEMB      147             0.0000000000
     16973       147  SOPE      H5Y            30.0579401873      -13.0118907070      -11.6478022442  MEMB      147             0.0000000000
     16974       147  SOPE      C36            29.6265168937      -11.0128693530      -11.6163106651  MEMB      147             0.0000000000
     16975       147  SOPE      H6X            29.0874728449      -10.2995341359      -12.2757833446  MEMB      147             0.0000000000
     16976       147  SOPE      H6Y            30.5884110966      -10.6182442593      -11.2247082984  MEMB      147             0.0000000000
     16977       147  SOPE      C37            28.6176024770      -11.1558361138      -10.4983470917  MEMB      147             0.0000000000
     16978       147  SOPE      H7X            27.6061121251      -11.4493459053      -10.8519853254  MEMB      147             0.0000000000
     16979       147  SOPE      H7Y            28.5580663215      -10.1351004623      -10.0637498934  MEMB      147             0.0000000000
     16980       147  SOPE      C38            29.0757972578      -12.1167597268       -9.4298732638  MEMB      147             0.0000000000
     16981       147  SOPE      H8X            30.1247657118      -12.4612674049       -9.5535660593  MEMB      147             0.0000000000
     16982       147  SOPE      H8Y            28.3512611345      -12.9589872636       -9.4252100682  MEMB      147             0.0000000000
     16983       147  SOPE      C39            28.9415161643      -11.5913497323       -7.9657165573  MEMB      147             0.0000000000
     16984       147  SOPE      H9X            27.9200485185      -11.1735838944       -8.0937636786  MEMB      147             0.0000000000
     16985       147  SOPE      H9Y            29.6997750948      -10.8974533128       -7.5439664854  MEMB      147             0.0000000000
     16986       147  SOPE      C310           28.9798945471      -12.7707201687       -6.9154711074  MEMB      147             0.0000000000
     16987       147  SOPE      H10X           30.0044909769      -13.1371217016       -7.1396877093  MEMB      147             0.0000000000
     16988       147  SOPE      H10Y           28.2115710506      -13.5345449348       -7.1615842167  MEMB      147             0.0000000000
     16989       147  SOPE      C311           28.9676663968      -12.3215886873       -5.4388862296  MEMB      147             0.0000000000
     16990       147  SOPE      H11X           29.8003933881      -11.6443871762       -5.1520348133  MEMB      147             0.0000000000
     16991       147  SOPE      H11Y           29.0871827083      -13.2922790235       -4.9118218300  MEMB      147             0.0000000000
     16992       147  SOPE      C312           27.6187359021      -11.6901936124       -5.1527422652  MEMB      147             0.0000000000
     16993       147  SOPE      H12X           26.7136420142      -12.2663835798       -5.4410668128  MEMB      147             0.0000000000
     16994       147  SOPE      H12Y           27.4843833347      -10.7076332437       -5.6535874158  MEMB      147             0.0000000000
     16995       147  SOPE      C313           27.4631657059      -11.3856363931       -3.6778367792  MEMB      147             0.0000000000
     16996       147  SOPE      H13X           27.3190137563      -12.2635619759       -3.0124141061  MEMB      147             0.0000000000
     16997       147  SOPE      H13Y           26.6398177467      -10.6730443721       -3.4573117627  MEMB      147             0.0000000000
     16998       147  SOPE      C314           28.7162751099      -10.7756748763       -3.0180060065  MEMB      147             0.0000000000
     16999       147  SOPE      H14X           29.1774198597      -10.0296454430       -3.6999933962  MEMB      147             0.0000000000
     17000       147  SOPE      H14Y           29.3852180851      -11.6235439239       -2.7573246872  MEMB      147             0.0000000000
     17001       147  SOPE      C315           28.5568991463       -9.9385768309       -1.7633568143  MEMB      147             0.0000000000
     17002       147  SOPE      H15X           27.9382370577       -9.0510562835       -2.0161130768  MEMB      147             0.0000000000
     17003       147  SOPE      H15Y           29.5996435405       -9.6516472744       -1.5090409386  MEMB      147             0.0000000000
     17004       147  SOPE      C316           27.7749323980      -10.5383719159       -0.6476391178  MEMB      147             0.0000000000
     17005       147  SOPE      H16X           26.8756744338      -10.9576723696       -1.1474811380  MEMB      147             0.0000000000
     17006       147  SOPE      H16Y           27.3705063213       -9.7627409333        0.0373116740  MEMB      147             0.0000000000
     17007       147  SOPE      C317           28.4018615968      -11.7227247715        0.1271508290  MEMB      147             0.0000000000
     17008       147  SOPE      H17X           29.4007959346      -11.4035445848        0.4939956898  MEMB      147             0.0000000000
     17009       147  SOPE      H17Y           28.4908766161      -12.5961489010       -0.5536784264  MEMB      147             0.0000000000
     17010       147  SOPE      C318           27.5709336667      -12.0285292073        1.3850830812  MEMB      147             0.0000000000
     17011       147  SOPE      H18X           28.2422321342      -12.5470667647        2.1025770000  MEMB      147             0.0000000000
     17012       147  SOPE      H18Y           26.6581905502      -12.5844668682        1.0815141650  MEMB      147             0.0000000000
     17013       147  SOPE      H18Z           27.1685385914      -11.0933846619        1.8299468040  MEMB      147             0.0000000000
     17014       148  SAPE      N             -31.2421624425       -0.1588493203      -23.0872847244  MEMB      148             0.0000000000
     17015       148  SAPE      HN1           -30.9037450125       -1.1365065424      -23.1933988836  MEMB      148             0.0000000000
     17016       148  SAPE      HN2           -32.1440871567       -0.0418620765      -23.5917109300  MEMB      148             0.0000000000
     17017       148  SAPE      HN3           -30.7017614802        0.4766944011      -23.7082925482  MEMB      148             0.0000000000
     17018       148  SAPE      C12           -31.2517462152        0.2526279256      -21.6534803039  MEMB      148             0.0000000000
     17019       148  SAPE      H12A          -30.1899284720        0.5087030722      -21.4502818167  MEMB      148             0.0000000000
     17020       148  SAPE      H12B          -31.5232763863       -0.7264330904      -21.2040007291  MEMB      148             0.0000000000
     17021       148  SAPE      C11           -32.2824374183        1.3172025348      -21.3335443247  MEMB      148             0.0000000000
     17022       148  SAPE      H11A          -33.2964297976        0.8835737174      -21.1989837870  MEMB      148             0.0000000000
     17023       148  SAPE      H11B          -32.4170484096        2.0743754690      -22.1353485348  MEMB      148             0.0000000000
     17024       148  SAPE      P             -31.8420772786        1.1995831136      -18.7629558238  MEMB      148             0.0000000000
     17025       148  SAPE      O13           -33.1836367284        0.6491605460      -18.5924965455  MEMB      148             0.0000000000
     17026       148  SAPE      O14           -30.7414270701        0.1992776853      -18.7045555574  MEMB      148             0.0000000000
     17027       148  SAPE      O12           -31.8443201932        1.9387095949      -20.1242964451  MEMB      148             0.0000000000
     17028       148  SAPE      O11           -31.6504497499        2.4497701131      -17.7413862833  MEMB      148             0.0000000000
     17029       148  SAPE      C1            -32.7566973977        3.3701167365      -17.5660833544  MEMB      148             0.0000000000
     17030       148  SAPE      HA            -32.8253892370        4.1441943026      -18.3600647503  MEMB      148             0.0000000000
     17031       148  SAPE      HB            -33.6582453861        2.7211557466      -17.5856240366  MEMB      148             0.0000000000
     17032       148  SAPE      C2            -32.5887749753        4.1358228478      -16.1414934057  MEMB      148             0.0000000000
     17033       148  SAPE      HS            -31.8642457423        4.9722643928      -16.2402058238  MEMB      148             0.0000000000
     17034       148  SAPE      O21           -32.1950417026        3.1643765806      -15.2307774348  MEMB      148             0.0000000000
     17035       148  SAPE      C21           -31.7845855998        3.5689957114      -14.0823273541  MEMB      148             0.0000000000
     17036       148  SAPE      O22           -31.5435487505        4.7092096279      -13.7509364102  MEMB      148             0.0000000000
     17037       148  SAPE      C22           -31.4651132436        2.3697063605      -13.2097383050  MEMB      148             0.0000000000
     17038       148  SAPE      H2R           -30.4314605590        2.1497838586      -13.5525464628  MEMB      148             0.0000000000
     17039       148  SAPE      H2S           -31.4283116420        2.6357039135      -12.1316789213  MEMB      148             0.0000000000
     17040       148  SAPE      C3            -33.9351638416        4.8594578501      -15.7960547855  MEMB      148             0.0000000000
     17041       148  SAPE      HX            -34.2815615626        5.6091923092      -16.5391750690  MEMB      148             0.0000000000
     17042       148  SAPE      HY            -33.6440575872        5.4624585411      -14.9095060415  MEMB      148             0.0000000000
     17043       148  SAPE      O31           -35.0131547822        3.9725108279      -15.5508357821  MEMB      148             0.0000000000
     17044       148  SAPE      C31           -35.8107888795        4.2753155607      -14.5462814741  MEMB      148             0.0000000000
     17045       148  SAPE      O32           -35.6663326629        5.1425396376      -13.7247568176  MEMB      148             0.0000000000
     17046       148  SAPE      C32           -37.0039760237        3.2297685391      -14.5975436348  MEMB      148             0.0000000000
     17047       148  SAPE      H2X           -36.5709491448        2.2088841133      -14.5296927285  MEMB      148             0.0000000000
     17048       148  SAPE      H2Y           -37.5307432293        3.3779854741      -15.5644301538  MEMB      148             0.0000000000
     17049       148  SAPE      C23           -32.5262341129        1.2253632650      -13.3376269908  MEMB      148             0.0000000000
     17050       148  SAPE      H3R           -32.0931995565        0.2625800925      -12.9914326887  MEMB      148             0.0000000000
     17051       148  SAPE      H3S           -32.6750093927        1.1154878274      -14.4331245572  MEMB      148             0.0000000000
     17052       148  SAPE      C24           -33.8897883804        1.5413628984      -12.6530436166  MEMB      148             0.0000000000
     17053       148  SAPE      H4R           -34.4272685882        2.4661652239      -12.9533379840  MEMB      148             0.0000000000
     17054       148  SAPE      H4S           -33.7318160567        1.6395288696      -11.5577220094  MEMB      148             0.0000000000
     17055       148  SAPE      C25           -34.9402874282        0.4776975487      -12.9497597898  MEMB      148             0.0000000000
     17056       148  SAPE      H5R           -35.1098868479        0.4427265210      -14.0360439805  MEMB      148             0.0000000000
     17057       148  SAPE      C26           -35.4776856491       -0.4609155849      -12.1304279470  MEMB      148             0.0000000000
     17058       148  SAPE      H6R           -36.1583808056       -1.2077162409      -12.5651034249  MEMB      148             0.0000000000
     17059       148  SAPE      C27           -35.1122711384       -0.6681762278      -10.6658943528  MEMB      148             0.0000000000
     17060       148  SAPE      H7R           -36.0090319808       -0.9247362535      -10.0623068635  MEMB      148             0.0000000000
     17061       148  SAPE      H7S           -34.7079092319        0.2175519436      -10.1308260745  MEMB      148             0.0000000000
     17062       148  SAPE      C28           -34.1381206097       -1.8219561299      -10.4763232545  MEMB      148             0.0000000000
     17063       148  SAPE      H8R           -34.7834019551       -2.7092072048      -10.5563070922  MEMB      148             0.0000000000
     17064       148  SAPE      C29           -32.9000737612       -1.8832791546      -10.0231348258  MEMB      148             0.0000000000
     17065       148  SAPE      H9R           -32.4582583909       -2.8779206317       -9.8634862934  MEMB      148             0.0000000000
     17066       148  SAPE      C210          -32.0881319649       -0.6787279241       -9.5745450976  MEMB      148             0.0000000000
     17067       148  SAPE      H10R          -32.6771940324        0.2511750385       -9.4241890597  MEMB      148             0.0000000000
     17068       148  SAPE      H10S          -31.5150577521       -0.4170171355      -10.4896489761  MEMB      148             0.0000000000
     17069       148  SAPE      C211          -31.1650212310       -1.0677519366       -8.4686305524  MEMB      148             0.0000000000
     17070       148  SAPE      H11R          -30.0705645477       -1.0784830045       -8.5784007144  MEMB      148             0.0000000000
     17071       148  SAPE      C212          -31.5564450172       -1.3456720902       -7.2184509744  MEMB      148             0.0000000000
     17072       148  SAPE      H12R          -30.8429868563       -1.6758318194       -6.4490541264  MEMB      148             0.0000000000
     17073       148  SAPE      C213          -33.0188522299       -1.3209474977       -6.6803494693  MEMB      148             0.0000000000
     17074       148  SAPE      H13R          -33.3638565015       -2.3757015713       -6.7331395413  MEMB      148             0.0000000000
     17075       148  SAPE      H13S          -33.7920681525       -0.8868141893       -7.3496668999  MEMB      148             0.0000000000
     17076       148  SAPE      C214          -33.1713827493       -0.9011192668       -5.1795423088  MEMB      148             0.0000000000
     17077       148  SAPE      H14R          -32.7173150153       -1.5574729560       -4.4225600184  MEMB      148             0.0000000000
     17078       148  SAPE      C215          -33.8582733759        0.1204939894       -4.6594505556  MEMB      148             0.0000000000
     17079       148  SAPE      H15R          -34.0345005996        0.2202941980       -3.5782554609  MEMB      148             0.0000000000
     17080       148  SAPE      C216          -34.6173385332        1.1735794663       -5.3774923018  MEMB      148             0.0000000000
     17081       148  SAPE      H16R          -34.5800203408        1.0707567975       -6.4830952115  MEMB      148             0.0000000000
     17082       148  SAPE      H16S          -34.1652976380        2.1721784827       -5.1964397599  MEMB      148             0.0000000000
     17083       148  SAPE      C217          -36.0337019133        1.4318483999       -4.8350592046  MEMB      148             0.0000000000
     17084       148  SAPE      H17R          -36.6437440256        0.5123704793       -4.7057142059  MEMB      148             0.0000000000
     17085       148  SAPE      H17S          -36.5230894184        2.1048180108       -5.5712195087  MEMB      148             0.0000000000
     17086       148  SAPE      C218          -36.0639842244        2.0156354310       -3.3991210222  MEMB      148             0.0000000000
     17087       148  SAPE      H18R          -35.3268790626        2.8465157816       -3.3739233935  MEMB      148             0.0000000000
     17088       148  SAPE      H18S          -35.6606006573        1.3704461373       -2.5895951297  MEMB      148             0.0000000000
     17089       148  SAPE      C219          -37.4683882421        2.3884357143       -2.8454638734  MEMB      148             0.0000000000
     17090       148  SAPE      H19R          -38.1511508606        1.5154834022       -2.9236320440  MEMB      148             0.0000000000
     17091       148  SAPE      H19S          -37.9479303945        3.1547669041       -3.4912940569  MEMB      148             0.0000000000
     17092       148  SAPE      C220          -37.4953708412        2.7859206975       -1.3217533534  MEMB      148             0.0000000000
     17093       148  SAPE      H20R          -37.1050974179        1.8759565392       -0.8177954505  MEMB      148             0.0000000000
     17094       148  SAPE      H20S          -38.4800244572        3.1495607352       -0.9576872972  MEMB      148             0.0000000000
     17095       148  SAPE      H20T          -36.7073227523        3.5442335788       -1.1261444699  MEMB      148             0.0000000000
     17096       148  SAPE      C33           -38.0216757144        3.4754760617      -13.4884344295  MEMB      148             0.0000000000
     17097       148  SAPE      H3X           -38.9380458772        3.0808316633      -13.9771494034  MEMB      148             0.0000000000
     17098       148  SAPE      H3Y           -38.2404130159        4.5646909405      -13.4791569086  MEMB      148             0.0000000000
     17099       148  SAPE      C34           -37.8664329032        2.9829167151      -12.0947607656  MEMB      148             0.0000000000
     17100       148  SAPE      H4X           -37.4283657723        1.9645505679      -12.0216268325  MEMB      148             0.0000000000
     17101       148  SAPE      H4Y           -38.7926855063        3.0990297338      -11.4923533569  MEMB      148             0.0000000000
     17102       148  SAPE      C35           -36.8730117389        3.6948201946      -11.1566880793  MEMB      148             0.0000000000
     17103       148  SAPE      H5X           -37.2094810655        4.7533779171      -11.1329297470  MEMB      148             0.0000000000
     17104       148  SAPE      H5Y           -35.8736463542        3.7472531354      -11.6392249143  MEMB      148             0.0000000000
     17105       148  SAPE      C36           -36.6105358578        3.1407656610       -9.7080237168  MEMB      148             0.0000000000
     17106       148  SAPE      H6X           -35.9340755528        2.2739033039       -9.8669953818  MEMB      148             0.0000000000
     17107       148  SAPE      H6Y           -37.5847752663        2.7000103896       -9.4065048643  MEMB      148             0.0000000000
     17108       148  SAPE      C37           -36.0876900551        4.2452582606       -8.7905653690  MEMB      148             0.0000000000
     17109       148  SAPE      H7X           -36.2826645920        4.0456452379       -7.7151766931  MEMB      148             0.0000000000
     17110       148  SAPE      H7Y           -36.5687832896        5.2010328364       -9.0895061834  MEMB      148             0.0000000000
     17111       148  SAPE      C38           -34.5995006746        4.5757824544       -8.8023836757  MEMB      148             0.0000000000
     17112       148  SAPE      H8X           -34.3512102635        5.2880201391       -7.9866689915  MEMB      148             0.0000000000
     17113       148  SAPE      H8Y           -34.3792121378        5.1098781172       -9.7513493484  MEMB      148             0.0000000000
     17114       148  SAPE      C39           -33.6215835745        3.4112085931       -8.6523778823  MEMB      148             0.0000000000
     17115       148  SAPE      H9X           -33.7469531503        2.6594065961       -9.4607075817  MEMB      148             0.0000000000
     17116       148  SAPE      H9Y           -33.9192873928        2.8230273371       -7.7580979037  MEMB      148             0.0000000000
     17117       148  SAPE      C310          -32.1516743088        3.8509221872       -8.5524022447  MEMB      148             0.0000000000
     17118       148  SAPE      H10X          -32.1562401122        4.7259911887       -7.8678924294  MEMB      148             0.0000000000
     17119       148  SAPE      H10Y          -31.7374017563        4.1466973370       -9.5399328017  MEMB      148             0.0000000000
     17120       148  SAPE      C311          -31.1998638133        2.8421399082       -7.9201374287  MEMB      148             0.0000000000
     17121       148  SAPE      H11X          -30.8684611337        2.0247680570       -8.5957085394  MEMB      148             0.0000000000
     17122       148  SAPE      H11Y          -31.6910425895        2.3429798051       -7.0576381025  MEMB      148             0.0000000000
     17123       148  SAPE      C312          -29.9089015164        3.5045212553       -7.3707956160  MEMB      148             0.0000000000
     17124       148  SAPE      H12X          -30.0786436822        4.5056122904       -6.9198803338  MEMB      148             0.0000000000
     17125       148  SAPE      H12Y          -29.3762517323        3.9040660855       -8.2601604873  MEMB      148             0.0000000000
     17126       148  SAPE      C313          -28.9733736753        2.5211475302       -6.6598756551  MEMB      148             0.0000000000
     17127       148  SAPE      H13X          -28.0631275425        3.0944546463       -6.3822214331  MEMB      148             0.0000000000
     17128       148  SAPE      H13Y          -28.7138859225        1.7024493185       -7.3646602391  MEMB      148             0.0000000000
     17129       148  SAPE      C314          -29.8121626839        1.9210754278       -5.4069455648  MEMB      148             0.0000000000
     17130       148  SAPE      H14X          -29.0777913025        1.2496318743       -4.9127969600  MEMB      148             0.0000000000
     17131       148  SAPE      H14Y          -30.6283659261        1.1737897407       -5.5054207983  MEMB      148             0.0000000000
     17132       148  SAPE      C315          -30.4079423974        3.0799829846       -4.5387203606  MEMB      148             0.0000000000
     17133       148  SAPE      H15X          -31.0510204047        3.8269673639       -5.0513477498  MEMB      148             0.0000000000
     17134       148  SAPE      H15Y          -29.5408762876        3.6515901541       -4.1440272912  MEMB      148             0.0000000000
     17135       148  SAPE      C316          -31.2412371700        2.6183567030       -3.3773107403  MEMB      148             0.0000000000
     17136       148  SAPE      H16X          -30.6542236448        1.8436567318       -2.8391874189  MEMB      148             0.0000000000
     17137       148  SAPE      H16Y          -32.2529601799        2.2801722521       -3.6877442452  MEMB      148             0.0000000000
     17138       148  SAPE      C317          -31.5274342684        3.7220404258       -2.4070545301  MEMB      148             0.0000000000
     17139       148  SAPE      H17X          -32.2303120763        4.4684787819       -2.8349731934  MEMB      148             0.0000000000
     17140       148  SAPE      H17Y          -30.6215261243        4.2687533610       -2.0682987262  MEMB      148             0.0000000000
     17141       148  SAPE      C318          -32.1724075539        3.1779463506       -1.0792672761  MEMB      148             0.0000000000
     17142       148  SAPE      H18X          -33.1902287199        2.7898354906       -1.2977410309  MEMB      148             0.0000000000
     17143       148  SAPE      H18Y          -32.3472461055        4.1121859721       -0.5039856043  MEMB      148             0.0000000000
     17144       148  SAPE      H18Z          -31.4568131547        2.4615956575       -0.6220058290  MEMB      148             0.0000000000
     17145       149  CHL1      C3            -27.9958957581       14.6879796614      -17.3300500000  MEMB      149             0.0000000000
     17146       149  CHL1      H3            -28.6054282542       13.7640642299      -17.2342900000  MEMB      149             0.0000000000
     17147       149  CHL1      O3            -27.5132044419       14.7739859386      -18.6699500000  MEMB      149             0.0000000000
     17148       149  CHL1      H3'           -27.3692756231       13.8891691096      -19.0134400000  MEMB      149             0.0000000000
     17149       149  CHL1      C4            -28.8141263344       15.8976009791      -16.8056100000  MEMB      149             0.0000000000
     17150       149  CHL1      H4A           -28.3130537829       16.8801384587      -16.9392500000  MEMB      149             0.0000000000
     17151       149  CHL1      H4B           -29.6739147103       16.0041768938      -17.5011200000  MEMB      149             0.0000000000
     17152       149  CHL1      C5            -29.1694180300       15.8738898796      -15.2760600000  MEMB      149             0.0000000000
     17153       149  CHL1      C6            -30.3782622470       16.0818935098      -14.7982000000  MEMB      149             0.0000000000
     17154       149  CHL1      H6            -31.1720679966       16.2526095137      -15.5403100000  MEMB      149             0.0000000000
     17155       149  CHL1      C7            -30.6714930863       16.0642153629      -13.3168400000  MEMB      149             0.0000000000
     17156       149  CHL1      H7A           -31.4674280852       16.7940746724      -13.0558700000  MEMB      149             0.0000000000
     17157       149  CHL1      H7B           -31.0103654188       15.0333736935      -13.0784000000  MEMB      149             0.0000000000
     17158       149  CHL1      C8            -29.3956348209       16.3595457058      -12.4675800000  MEMB      149             0.0000000000
     17159       149  CHL1      H8            -29.0093556958       17.3960866830      -12.5710600000  MEMB      149             0.0000000000
     17160       149  CHL1      C14           -29.8190217017       16.0146913380      -11.0687500000  MEMB      149             0.0000000000
     17161       149  CHL1      H14           -29.9935917247       14.9175443869      -11.0786100000  MEMB      149             0.0000000000
     17162       149  CHL1      C15           -31.0373480553       16.7699719919      -10.5573300000  MEMB      149             0.0000000000
     17163       149  CHL1      H15A          -31.0750505897       17.8308143446      -10.8852300000  MEMB      149             0.0000000000
     17164       149  CHL1      H15B          -31.9810409955       16.2168658252      -10.7518700000  MEMB      149             0.0000000000
     17165       149  CHL1      C16           -30.8138653323       16.7636930174       -9.0652500000  MEMB      149             0.0000000000
     17166       149  CHL1      H16A          -30.8156848671       17.7944801553       -8.6507400000  MEMB      149             0.0000000000
     17167       149  CHL1      H16B          -31.5290469889       16.2233963119       -8.4088100000  MEMB      149             0.0000000000
     17168       149  CHL1      C17           -29.4243244996       16.1201349087       -8.7536000000  MEMB      149             0.0000000000
     17169       149  CHL1      H17           -29.5785802810       15.0223942477       -8.6795700000  MEMB      149             0.0000000000
     17170       149  CHL1      C13           -28.7396962659       16.3581405233      -10.0673000000  MEMB      149             0.0000000000
     17171       149  CHL1      C18           -28.1182235825       17.7496889641      -10.1335000000  MEMB      149             0.0000000000
     17172       149  CHL1      H18A          -28.9609176451       18.4524619569       -9.9594700000  MEMB      149             0.0000000000
     17173       149  CHL1      H18B          -27.2994993769       17.8083890998       -9.3847900000  MEMB      149             0.0000000000
     17174       149  CHL1      H18C          -27.5419767983       17.9104616750      -11.0696700000  MEMB      149             0.0000000000
     17175       149  CHL1      C12           -27.6190132887       15.3648450926      -10.4184400000  MEMB      149             0.0000000000
     17176       149  CHL1      H12A          -26.8112856150       15.4621044552       -9.6618400000  MEMB      149             0.0000000000
     17177       149  CHL1      H12B          -28.0652622098       14.3610569484      -10.2523100000  MEMB      149             0.0000000000
     17178       149  CHL1      C11           -27.1242395241       15.4826808442      -11.9025900000  MEMB      149             0.0000000000
     17179       149  CHL1      H11A          -26.5115674133       16.4059695223      -11.9831800000  MEMB      149             0.0000000000
     17180       149  CHL1      H11B          -26.4942654913       14.5836920533      -12.0736700000  MEMB      149             0.0000000000
     17181       149  CHL1      C9            -28.2860619630       15.4582154802      -12.9759200000  MEMB      149             0.0000000000
     17182       149  CHL1      H9            -28.7551390269       14.4550215543      -12.8870900000  MEMB      149             0.0000000000
     17183       149  CHL1      C10           -27.9192837682       15.6753219052      -14.3728300000  MEMB      149             0.0000000000
     17184       149  CHL1      C19           -27.0222512548       16.8997131870      -14.4857100000  MEMB      149             0.0000000000
     17185       149  CHL1      H19A          -26.0869091445       16.6897403279      -13.9241200000  MEMB      149             0.0000000000
     17186       149  CHL1      H19B          -26.7301440207       17.0260964655      -15.5501500000  MEMB      149             0.0000000000
     17187       149  CHL1      H19C          -27.4485092816       17.7910941324      -13.9777200000  MEMB      149             0.0000000000
     17188       149  CHL1      C1            -27.1596992769       14.4877904431      -14.9253700000  MEMB      149             0.0000000000
     17189       149  CHL1      H1A           -26.2552726163       14.3266173193      -14.3005700000  MEMB      149             0.0000000000
     17190       149  CHL1      H1B           -27.8199020549       13.5985167700      -14.8379900000  MEMB      149             0.0000000000
     17191       149  CHL1      C2            -26.7045835541       14.5318619871      -16.4103800000  MEMB      149             0.0000000000
     17192       149  CHL1      H2A           -26.2830618704       13.5972115657      -16.8382600000  MEMB      149             0.0000000000
     17193       149  CHL1      H2B           -25.9814434338       15.3335430015      -16.6724800000  MEMB      149             0.0000000000
     17194       149  CHL1      C20           -28.8248351008       16.6057177398       -7.4078000000  MEMB      149             0.0000000000
     17195       149  CHL1      H20           -28.5928751613       17.6684160918       -7.6340600000  MEMB      149             0.0000000000
     17196       149  CHL1      C21           -27.5045825898       15.8506331074       -7.1006500000  MEMB      149             0.0000000000
     17197       149  CHL1      H21A          -26.7004437615       16.0950099900       -7.8272600000  MEMB      149             0.0000000000
     17198       149  CHL1      H21B          -27.5880940821       14.7504541774       -7.2308900000  MEMB      149             0.0000000000
     17199       149  CHL1      H21C          -27.1921614388       16.0241862458       -6.0487100000  MEMB      149             0.0000000000
     17200       149  CHL1      C22           -29.7398651846       16.5437286777       -6.1982200000  MEMB      149             0.0000000000
     17201       149  CHL1      H22A          -30.7619023921       16.9287206107       -6.4020600000  MEMB      149             0.0000000000
     17202       149  CHL1      H22B          -29.9621624239       15.4605249014       -6.0905600000  MEMB      149             0.0000000000
     17203       149  CHL1      C23           -29.1833360237       17.1097616607       -4.8520600000  MEMB      149             0.0000000000
     17204       149  CHL1      H23A          -28.3651388167       16.4170649007       -4.5604500000  MEMB      149             0.0000000000
     17205       149  CHL1      H23B          -28.8349797195       18.1564740320       -4.9839000000  MEMB      149             0.0000000000
     17206       149  CHL1      C24           -30.3879160668       17.0662243621       -3.8188800000  MEMB      149             0.0000000000
     17207       149  CHL1      H24A          -31.1409257272       17.8034869360       -4.1706400000  MEMB      149             0.0000000000
     17208       149  CHL1      H24B          -30.7266864638       16.0122827596       -3.7252500000  MEMB      149             0.0000000000
     17209       149  CHL1      C25           -29.9361192898       17.4210605282       -2.3291600000  MEMB      149             0.0000000000
     17210       149  CHL1      H25           -29.1706762255       16.6947146830       -1.9815300000  MEMB      149             0.0000000000
     17211       149  CHL1      C26           -29.0967237480       18.7517473928       -2.2760700000  MEMB      149             0.0000000000
     17212       149  CHL1      H26A          -28.8777809497       19.0005294695       -1.2156500000  MEMB      149             0.0000000000
     17213       149  CHL1      H26B          -28.2527161699       18.8029789558       -2.9967300000  MEMB      149             0.0000000000
     17214       149  CHL1      H26C          -29.7569574523       19.6024927958       -2.5492700000  MEMB      149             0.0000000000
     17215       149  CHL1      C27           -31.0747387608       17.5247801504       -1.2837400000  MEMB      149             0.0000000000
     17216       149  CHL1      H27A          -31.6150062897       16.5648526385       -1.1389000000  MEMB      149             0.0000000000
     17217       149  CHL1      H27B          -30.6697440304       17.8069874488       -0.2884200000  MEMB      149             0.0000000000
     17218       149  CHL1      H27C          -31.7378317897       18.3972403493       -1.4666300000  MEMB      149             0.0000000000
     17219       150  SAPC      N               1.6661807092       30.9884103444      -19.0839720960  MEMB      150             0.0000000000
     17220       150  SAPC      C12             2.4552429796       29.7226070844      -19.3051503826  MEMB      150             0.0000000000
     17221       150  SAPC      H12A            1.9455503901       29.0637219332      -19.9925249083  MEMB      150             0.0000000000
     17222       150  SAPC      H12B            2.4326051653       29.2547924627      -18.3319920778  MEMB      150             0.0000000000
     17223       150  SAPC      C13             0.4979895923       30.7152770069      -18.0887505318  MEMB      150             0.0000000000
     17224       150  SAPC      H13A           -0.2035414810       29.9433509297      -18.3687224376  MEMB      150             0.0000000000
     17225       150  SAPC      H13B            0.8383822574       30.5060086804      -17.0853862544  MEMB      150             0.0000000000
     17226       150  SAPC      H13C           -0.0716845409       31.6328122178      -18.0880787226  MEMB      150             0.0000000000
     17227       150  SAPC      C14             2.5454739650       31.9557081754      -18.2466391985  MEMB      150             0.0000000000
     17228       150  SAPC      H14A            3.3985945249       32.3069233113      -18.8080955014  MEMB      150             0.0000000000
     17229       150  SAPC      H14B            1.9401739564       32.8252955149      -18.0372835575  MEMB      150             0.0000000000
     17230       150  SAPC      H14C            2.9669943130       31.5908664686      -17.3216466510  MEMB      150             0.0000000000
     17231       150  SAPC      C15             1.1818820468       31.5569460822      -20.3565280966  MEMB      150             0.0000000000
     17232       150  SAPC      H15A            1.9325741311       31.5216107154      -21.1321650912  MEMB      150             0.0000000000
     17233       150  SAPC      H15B            0.2933748255       31.0248795708      -20.6628942428  MEMB      150             0.0000000000
     17234       150  SAPC      H15C            0.7866261638       32.5500636735      -20.2019639575  MEMB      150             0.0000000000
     17235       150  SAPC      C11             3.9794193883       29.9078527718      -19.7577083433  MEMB      150             0.0000000000
     17236       150  SAPC      H11A            4.4164165874       28.9048237167      -19.9508069339  MEMB      150             0.0000000000
     17237       150  SAPC      H11B            4.5128918919       30.3467974622      -18.8876189360  MEMB      150             0.0000000000
     17238       150  SAPC      P               5.0613137109       31.9351807363      -21.1056395197  MEMB      150             0.0000000000
     17239       150  SAPC      O13             6.3422062293       31.4253719817      -21.7060704192  MEMB      150             0.0000000000
     17240       150  SAPC      O14             4.2754924831       32.9725876869      -21.8671642171  MEMB      150             0.0000000000
     17241       150  SAPC      O12             4.1018126149       30.6937601842      -20.9260665657  MEMB      150             0.0000000000
     17242       150  SAPC      O11             5.2889631356       32.3410556446      -19.5563106508  MEMB      150             0.0000000000
     17243       150  SAPC      C1              6.5190242011       32.9599923595      -19.1782318177  MEMB      150             0.0000000000
     17244       150  SAPC      HA              7.2320139633       32.1099561542      -19.1198817823  MEMB      150             0.0000000000
     17245       150  SAPC      HB              6.9897726404       33.6494672784      -19.9112676082  MEMB      150             0.0000000000
     17246       150  SAPC      C2              6.4017211570       33.7573246026      -17.8594463256  MEMB      150             0.0000000000
     17247       150  SAPC      HS              7.3709537512       34.2238443085      -17.5814740004  MEMB      150             0.0000000000
     17248       150  SAPC      O21             5.9473100270       32.9699906715      -16.7545381791  MEMB      150             0.0000000000
     17249       150  SAPC      C21             6.7786250574       32.1160790366      -16.2235769660  MEMB      150             0.0000000000
     17250       150  SAPC      O22             7.8870638410       31.7337405555      -16.6159421145  MEMB      150             0.0000000000
     17251       150  SAPC      C22             6.0381460630       31.3479561500      -15.0385569746  MEMB      150             0.0000000000
     17252       150  SAPC      H2R             5.0547031187       31.8648073846      -15.0436354568  MEMB      150             0.0000000000
     17253       150  SAPC      H2S             5.8311968478       30.2817083621      -15.2722423384  MEMB      150             0.0000000000
     17254       150  SAPC      C3              5.3945095176       34.9037945311      -18.0570160077  MEMB      150             0.0000000000
     17255       150  SAPC      HX              4.4328970379       34.4289560938      -18.3471039823  MEMB      150             0.0000000000
     17256       150  SAPC      HY              5.8628085943       35.4838666157      -18.8807475492  MEMB      150             0.0000000000
     17257       150  SAPC      O31             5.3163809314       35.6834504163      -16.7437149273  MEMB      150             0.0000000000
     17258       150  SAPC      C31             4.2777540105       35.5159663840      -15.9575673386  MEMB      150             0.0000000000
     17259       150  SAPC      O32             3.3339737257       34.7740666198      -16.2118336241  MEMB      150             0.0000000000
     17260       150  SAPC      C32             4.5462848644       36.2484061587      -14.7305371039  MEMB      150             0.0000000000
     17261       150  SAPC      H2X             3.5929249509       36.5054342058      -14.2212601721  MEMB      150             0.0000000000
     17262       150  SAPC      H2Y             5.0899025559       37.2005701441      -14.9099374446  MEMB      150             0.0000000000
     17263       150  SAPC      C23             6.5525808239       31.6077377710      -13.6541264938  MEMB      150             0.0000000000
     17264       150  SAPC      H3R             6.2667322043       32.6183573705      -13.2918287149  MEMB      150             0.0000000000
     17265       150  SAPC      H3S             7.6463398642       31.4510690071      -13.7701749064  MEMB      150             0.0000000000
     17266       150  SAPC      C24             6.0206937915       30.7013125144      -12.5432436115  MEMB      150             0.0000000000
     17267       150  SAPC      H4R             6.3462984787       30.9150082162      -11.5027454735  MEMB      150             0.0000000000
     17268       150  SAPC      H4S             6.3279493934       29.6715393547      -12.8251693686  MEMB      150             0.0000000000
     17269       150  SAPC      C25             4.4697913114       30.7414029447      -12.6057540859  MEMB      150             0.0000000000
     17270       150  SAPC      H5R             4.0857517044       30.6480164497      -13.6322979435  MEMB      150             0.0000000000
     17271       150  SAPC      C26             3.6025523102       30.8969693855      -11.5792229616  MEMB      150             0.0000000000
     17272       150  SAPC      H6R             2.5305089327       30.7221822817      -11.7529242324  MEMB      150             0.0000000000
     17273       150  SAPC      C27             3.9252062134       31.0527476769      -10.1553222470  MEMB      150             0.0000000000
     17274       150  SAPC      H7R             3.2748357230       31.8746843956       -9.7868676179  MEMB      150             0.0000000000
     17275       150  SAPC      H7S             4.9764236276       31.4001934080      -10.0628873544  MEMB      150             0.0000000000
     17276       150  SAPC      C28             3.8658193569       29.7195117329       -9.3926152370  MEMB      150             0.0000000000
     17277       150  SAPC      H8R             4.4789978340       28.9110187609       -9.8172935591  MEMB      150             0.0000000000
     17278       150  SAPC      C29             3.0342424164       29.4716202283       -8.3137654951  MEMB      150             0.0000000000
     17279       150  SAPC      H9R             2.9361175509       28.4575951967       -7.8988867985  MEMB      150             0.0000000000
     17280       150  SAPC      C210            2.0393501199       30.4186242007       -7.6789751236  MEMB      150             0.0000000000
     17281       150  SAPC      H10R            1.0498325098       30.0965505899       -8.0681350756  MEMB      150             0.0000000000
     17282       150  SAPC      H10S            2.3238081621       31.4179003043       -8.0724875113  MEMB      150             0.0000000000
     17283       150  SAPC      C211            2.0366849896       30.4981253048       -6.1456824040  MEMB      150             0.0000000000
     17284       150  SAPC      H11R            1.5070171292       29.7339231229       -5.5579348298  MEMB      150             0.0000000000
     17285       150  SAPC      C212            2.6714049448       31.4298773576       -5.4243360467  MEMB      150             0.0000000000
     17286       150  SAPC      H12R            2.7372370244       31.3709573442       -4.3278893431  MEMB      150             0.0000000000
     17287       150  SAPC      C213            3.4583582979       32.5742167648       -6.0451698164  MEMB      150             0.0000000000
     17288       150  SAPC      H13R            3.9067091612       32.3486284020       -7.0363370544  MEMB      150             0.0000000000
     17289       150  SAPC      H13S            4.3234399989       32.7745765873       -5.3774786117  MEMB      150             0.0000000000
     17290       150  SAPC      C214            2.6247035792       33.8319892590       -6.1493917735  MEMB      150             0.0000000000
     17291       150  SAPC      H14R            1.5553343380       33.7365193650       -5.9099446327  MEMB      150             0.0000000000
     17292       150  SAPC      C215            2.9150256141       35.0850377789       -6.5378471835  MEMB      150             0.0000000000
     17293       150  SAPC      H15R            2.0643654133       35.7711063478       -6.4125986726  MEMB      150             0.0000000000
     17294       150  SAPC      C216            4.2806297439       35.6134432762       -6.9123893665  MEMB      150             0.0000000000
     17295       150  SAPC      H16R            4.1217912926       36.3646349690       -7.7153845801  MEMB      150             0.0000000000
     17296       150  SAPC      H16S            4.9993945970       34.7963821096       -7.1362410354  MEMB      150             0.0000000000
     17297       150  SAPC      C217            5.0306092142       36.3704282108       -5.7961276177  MEMB      150             0.0000000000
     17298       150  SAPC      H17R            4.5052524968       37.3000996811       -5.4894820344  MEMB      150             0.0000000000
     17299       150  SAPC      H17S            6.0519768153       36.4871858542       -6.2174313175  MEMB      150             0.0000000000
     17300       150  SAPC      C218            5.2986010514       35.5819036936       -4.4686896612  MEMB      150             0.0000000000
     17301       150  SAPC      H18R            5.8625308164       34.6662248878       -4.7476821982  MEMB      150             0.0000000000
     17302       150  SAPC      H18S            4.3393977629       35.2662249165       -4.0054446619  MEMB      150             0.0000000000
     17303       150  SAPC      C219            6.2047948954       36.2879739936       -3.4495685235  MEMB      150             0.0000000000
     17304       150  SAPC      H19R            6.0059111635       37.3687322310       -3.2860816556  MEMB      150             0.0000000000
     17305       150  SAPC      H19S            7.2267754827       36.2925991345       -3.8852922501  MEMB      150             0.0000000000
     17306       150  SAPC      C220            6.3743712753       35.6739260158       -2.0970741996  MEMB      150             0.0000000000
     17307       150  SAPC      H20R            5.4711184344       35.5916828137       -1.4554431446  MEMB      150             0.0000000000
     17308       150  SAPC      H20S            7.2135117978       36.1903747058       -1.5838064997  MEMB      150             0.0000000000
     17309       150  SAPC      H20T            6.7189533032       34.6294042486       -2.2537880291  MEMB      150             0.0000000000
     17310       150  SAPC      C33             5.2727050631       35.3190280788      -13.7672300335  MEMB      150             0.0000000000
     17311       150  SAPC      H3X             6.1955033694       34.9880618264      -14.2899398804  MEMB      150             0.0000000000
     17312       150  SAPC      H3Y             4.7201086186       34.3788732389      -13.5549396586  MEMB      150             0.0000000000
     17313       150  SAPC      C34             5.6699722737       35.8629646529      -12.3899026289  MEMB      150             0.0000000000
     17314       150  SAPC      H4X             4.8149502740       36.3454785536      -11.8698653761  MEMB      150             0.0000000000
     17315       150  SAPC      H4Y             6.5090043036       36.5771267562      -12.5324457767  MEMB      150             0.0000000000
     17316       150  SAPC      C35             6.2577328349       34.8787459703      -11.3875318007  MEMB      150             0.0000000000
     17317       150  SAPC      H5X             5.6969267051       33.9197029339      -11.3948831016  MEMB      150             0.0000000000
     17318       150  SAPC      H5Y             6.0856902356       35.3619695819      -10.4020290406  MEMB      150             0.0000000000
     17319       150  SAPC      C36             7.7645205013       34.4803612073      -11.6781700604  MEMB      150             0.0000000000
     17320       150  SAPC      H6X             8.0977446344       35.2424431103      -12.4147250379  MEMB      150             0.0000000000
     17321       150  SAPC      H6Y             7.7849186334       33.4826566098      -12.1665250802  MEMB      150             0.0000000000
     17322       150  SAPC      C37             8.7626827570       34.4187270537      -10.4810368490  MEMB      150             0.0000000000
     17323       150  SAPC      H7X             9.3358208840       35.3561735361      -10.3166351955  MEMB      150             0.0000000000
     17324       150  SAPC      H7Y             9.5174462878       33.6528516721      -10.7604795932  MEMB      150             0.0000000000
     17325       150  SAPC      C38             8.2093513534       33.9287261260       -9.1614291691  MEMB      150             0.0000000000
     17326       150  SAPC      H8X             7.3120359408       34.4635602694       -8.7831462714  MEMB      150             0.0000000000
     17327       150  SAPC      H8Y             8.9641223358       34.1546755634       -8.3781104990  MEMB      150             0.0000000000
     17328       150  SAPC      C39             7.9130437534       32.4341990073       -9.1595713797  MEMB      150             0.0000000000
     17329       150  SAPC      H9X             8.8812180374       31.9136293046       -9.3207129015  MEMB      150             0.0000000000
     17330       150  SAPC      H9Y             7.1392953469       32.1582725859       -9.9075681163  MEMB      150             0.0000000000
     17331       150  SAPC      C310            7.3843557774       31.9100285898       -7.7886977990  MEMB      150             0.0000000000
     17332       150  SAPC      H10X            6.3288656098       32.2388756369       -7.6786016408  MEMB      150             0.0000000000
     17333       150  SAPC      H10Y            7.9453914093       32.3795360634       -6.9525622835  MEMB      150             0.0000000000
     17334       150  SAPC      C311            7.5476504370       30.4328020028       -7.6334633967  MEMB      150             0.0000000000
     17335       150  SAPC      H11X            8.5291310051       30.1808288240       -8.0890150142  MEMB      150             0.0000000000
     17336       150  SAPC      H11Y            6.7094706602       29.9823908363       -8.2069667919  MEMB      150             0.0000000000
     17337       150  SAPC      C312            7.5213049146       29.9467400112       -6.1699084614  MEMB      150             0.0000000000
     17338       150  SAPC      H12X            8.3112320727       30.4701508314       -5.5899277823  MEMB      150             0.0000000000
     17339       150  SAPC      H12Y            7.8629114904       28.8933099148       -6.2588527380  MEMB      150             0.0000000000
     17340       150  SAPC      C313            6.2328320578       29.9604407631       -5.3440947047  MEMB      150             0.0000000000
     17341       150  SAPC      H13X            5.5382396587       29.3940835717       -6.0006782425  MEMB      150             0.0000000000
     17342       150  SAPC      H13Y            5.8881309979       31.0139888145       -5.2696727124  MEMB      150             0.0000000000
     17343       150  SAPC      C314            6.2735054928       29.1597875893       -3.9928054815  MEMB      150             0.0000000000
     17344       150  SAPC      H14X            7.1176804990       29.6029039035       -3.4224203101  MEMB      150             0.0000000000
     17345       150  SAPC      H14Y            6.5705856310       28.0994609571       -4.1403583274  MEMB      150             0.0000000000
     17346       150  SAPC      C315            4.8676592383       29.1337280605       -3.3198517378  MEMB      150             0.0000000000
     17347       150  SAPC      H15X            4.2361171807       28.8707037750       -4.1952339639  MEMB      150             0.0000000000
     17348       150  SAPC      H15Y            4.5690065927       30.1785905506       -3.0887890499  MEMB      150             0.0000000000
     17349       150  SAPC      C316            4.7286581063       28.1823092115       -2.0939154994  MEMB      150             0.0000000000
     17350       150  SAPC      H16X            5.1876831370       28.6428014061       -1.1930486384  MEMB      150             0.0000000000
     17351       150  SAPC      H16Y            5.1619692735       27.1953073968       -2.3629694596  MEMB      150             0.0000000000
     17352       150  SAPC      C317            3.2617537233       27.9059974170       -1.6205468480  MEMB      150             0.0000000000
     17353       150  SAPC      H17X            3.2853040814       27.0231750719       -0.9464608890  MEMB      150             0.0000000000
     17354       150  SAPC      H17Y            2.6675133167       27.5444456522       -2.4868498759  MEMB      150             0.0000000000
     17355       150  SAPC      C318            2.5302850488       29.2656963464       -1.1501340232  MEMB      150             0.0000000000
     17356       150  SAPC      H18X            3.2924776283       29.9466874348       -0.7146639769  MEMB      150             0.0000000000
     17357       150  SAPC      H18Y            1.8066513994       29.0185157534       -0.3441698641  MEMB      150             0.0000000000
     17358       150  SAPC      H18Z            2.1244858431       29.7871243382       -2.0433089083  MEMB      150             0.0000000000
     17359       151  CHL1      C3             10.8776321217       29.3084930153      -17.3690150000  MEMB      151             0.0000000000
     17360       151  CHL1      H3              9.9688881494       29.9287204657      -17.2145850000  MEMB      151             0.0000000000
     17361       151  CHL1      O3             11.4532306783       29.5506083847      -18.6309850000  MEMB      151             0.0000000000
     17362       151  CHL1      H3'            11.5499291515       30.4998826983      -18.7365150000  MEMB      151             0.0000000000
     17363       151  CHL1      C4             11.8546278237       29.6608997543      -16.2773250000  MEMB      151             0.0000000000
     17364       151  CHL1      H4A            12.8247373936       29.1233250644      -16.3423350000  MEMB      151             0.0000000000
     17365       151  CHL1      H4B            12.1606578264       30.6985994445      -16.5300350000  MEMB      151             0.0000000000
     17366       151  CHL1      C5             11.2503235296       29.5552826866      -14.8867650000  MEMB      151             0.0000000000
     17367       151  CHL1      C6             11.2293607712       30.6060000162      -14.0989850000  MEMB      151             0.0000000000
     17368       151  CHL1      H6             11.6628942394       31.5476832392      -14.4667750000  MEMB      151             0.0000000000
     17369       151  CHL1      C7             10.7804086431       30.5384999450      -12.6322550000  MEMB      151             0.0000000000
     17370       151  CHL1      H7A            11.5718781979       30.9478742817      -11.9686950000  MEMB      151             0.0000000000
     17371       151  CHL1      H7B             9.8265432957       31.0703746144      -12.4283350000  MEMB      151             0.0000000000
     17372       151  CHL1      C8             10.6756289777       29.0299369055      -12.1398650000  MEMB      151             0.0000000000
     17373       151  CHL1      H8             11.6220758951       28.4640896163      -12.0043650000  MEMB      151             0.0000000000
     17374       151  CHL1      C14             9.8232363215       29.0258781448      -10.7722850000  MEMB      151             0.0000000000
     17375       151  CHL1      H14             8.8086229434       29.4188614654      -10.9968750000  MEMB      151             0.0000000000
     17376       151  CHL1      C15            10.4270744641       29.9076461502       -9.6403450000  MEMB      151             0.0000000000
     17377       151  CHL1      H15A           11.5111792688       29.8304163798       -9.4099750000  MEMB      151             0.0000000000
     17378       151  CHL1      H15B           10.0934158202       30.9609274958       -9.7569050000  MEMB      151             0.0000000000
     17379       151  CHL1      C16             9.8214411083       29.2319434852       -8.4306450000  MEMB      151             0.0000000000
     17380       151  CHL1      H16A           10.5454877030       28.7455919913       -7.7425050000  MEMB      151             0.0000000000
     17381       151  CHL1      H16B            9.2201815591       29.9736782892       -7.8626350000  MEMB      151             0.0000000000
     17382       151  CHL1      C17             8.9310721567       28.0868675248       -8.9502550000  MEMB      151             0.0000000000
     17383       151  CHL1      H17             7.9272124540       28.4896861780       -9.2039150000  MEMB      151             0.0000000000
     17384       151  CHL1      C13             9.5804934840       27.6088401321      -10.2281250000  MEMB      151             0.0000000000
     17385       151  CHL1      C18            10.8944755365       26.8818753574       -9.8648650000  MEMB      151             0.0000000000
     17386       151  CHL1      H18A           11.5346544457       26.7355182832      -10.7610050000  MEMB      151             0.0000000000
     17387       151  CHL1      H18B           11.5206232033       27.4219182526       -9.1228350000  MEMB      151             0.0000000000
     17388       151  CHL1      H18C           10.6615234060       25.8722931490       -9.4638850000  MEMB      151             0.0000000000
     17389       151  CHL1      C12             8.7042274027       26.8824740130      -11.2252850000  MEMB      151             0.0000000000
     17390       151  CHL1      H12A            8.6635047610       25.8009516415      -10.9743450000  MEMB      151             0.0000000000
     17391       151  CHL1      H12B            7.6805304058       27.3086694379      -11.2938550000  MEMB      151             0.0000000000
     17392       151  CHL1      C11             9.3638448246       26.8994870583      -12.6504350000  MEMB      151             0.0000000000
     17393       151  CHL1      H11A           10.2799100044       26.2723015320      -12.6082350000  MEMB      151             0.0000000000
     17394       151  CHL1      H11B            8.6556241827       26.4435526904      -13.3749150000  MEMB      151             0.0000000000
     17395       151  CHL1      C9              9.9058846018       28.2728474385      -13.2277150000  MEMB      151             0.0000000000
     17396       151  CHL1      H9              8.9805286287       28.8342906195      -13.4783450000  MEMB      151             0.0000000000
     17397       151  CHL1      C10            10.6949536215       28.1620706034      -14.5863650000  MEMB      151             0.0000000000
     17398       151  CHL1      C19            11.8368130440       27.1310784450      -14.4599450000  MEMB      151             0.0000000000
     17399       151  CHL1      H19A           12.2757415987       26.9323063749      -15.4610250000  MEMB      151             0.0000000000
     17400       151  CHL1      H19B           12.5613023232       27.3403398157      -13.6440650000  MEMB      151             0.0000000000
     17401       151  CHL1      H19C           11.4141352271       26.1713804827      -14.0930050000  MEMB      151             0.0000000000
     17402       151  CHL1      C1              9.8253324724       27.6682196592      -15.7323350000  MEMB      151             0.0000000000
     17403       151  CHL1      H1A             9.4533681505       26.6273812512      -15.6199650000  MEMB      151             0.0000000000
     17404       151  CHL1      H1B             8.9430264170       28.3350199960      -15.8383350000  MEMB      151             0.0000000000
     17405       151  CHL1      C2             10.4715418386       27.8743459834      -17.1742250000  MEMB      151             0.0000000000
     17406       151  CHL1      H2A             9.6399893918       27.5807334381      -17.8499650000  MEMB      151             0.0000000000
     17407       151  CHL1      H2B            11.3834424440       27.2414012193      -17.1279850000  MEMB      151             0.0000000000
     17408       151  CHL1      C20             8.6244875900       27.1172304041       -7.6958750000  MEMB      151             0.0000000000
     17409       151  CHL1      H20             9.6247745043       26.7677460034       -7.3617950000  MEMB      151             0.0000000000
     17410       151  CHL1      C21             7.8460429038       25.9257726239       -8.1512150000  MEMB      151             0.0000000000
     17411       151  CHL1      H21A            7.0481798977       26.3117422474       -8.8211150000  MEMB      151             0.0000000000
     17412       151  CHL1      H21B            7.3162514444       25.4080918728       -7.3231750000  MEMB      151             0.0000000000
     17413       151  CHL1      H21C            8.3890037431       25.0879432144       -8.6385950000  MEMB      151             0.0000000000
     17414       151  CHL1      C22             7.9782874597       27.8815294601       -6.5201550000  MEMB      151             0.0000000000
     17415       151  CHL1      H22A            7.8481644237       27.1574952081       -5.6875850000  MEMB      151             0.0000000000
     17416       151  CHL1      H22B            8.7547192614       28.5981271485       -6.1766950000  MEMB      151             0.0000000000
     17417       151  CHL1      C23             6.7064043211       28.6037796250       -6.8493050000  MEMB      151             0.0000000000
     17418       151  CHL1      H23A            6.6149012763       29.2061211769       -7.7783550000  MEMB      151             0.0000000000
     17419       151  CHL1      H23B            6.0196035386       27.7315303421       -6.8919450000  MEMB      151             0.0000000000
     17420       151  CHL1      C24             6.1397497720       29.4724380649       -5.6929850000  MEMB      151             0.0000000000
     17421       151  CHL1      H24A            6.0055462825       28.8075866187       -4.8130550000  MEMB      151             0.0000000000
     17422       151  CHL1      H24B            6.7786455078       30.3403705667       -5.4231150000  MEMB      151             0.0000000000
     17423       151  CHL1      C25             4.7215403999       29.9998954374       -5.8830150000  MEMB      151             0.0000000000
     17424       151  CHL1      H25             4.1304304039       29.1976707158       -6.3742850000  MEMB      151             0.0000000000
     17425       151  CHL1      C26             3.9169829609       30.4530214237       -4.6070750000  MEMB      151             0.0000000000
     17426       151  CHL1      H26A            3.9942697946       29.6730674749       -3.8196550000  MEMB      151             0.0000000000
     17427       151  CHL1      H26B            4.2038576170       31.4486571045       -4.2061650000  MEMB      151             0.0000000000
     17428       151  CHL1      H26C            2.8354274446       30.4547680805       -4.8611450000  MEMB      151             0.0000000000
     17429       151  CHL1      C27             4.5776102314       31.1577419477       -6.8720850000  MEMB      151             0.0000000000
     17430       151  CHL1      H27A            4.9586217039       30.9048551644       -7.8846050000  MEMB      151             0.0000000000
     17431       151  CHL1      H27B            3.5234657263       31.4859426195       -6.9961050000  MEMB      151             0.0000000000
     17432       151  CHL1      H27C            5.1872819102       32.0229952338       -6.5344950000  MEMB      151             0.0000000000
     17433       152  CHL1      C3            -23.2504247974      -20.8490681220      -17.3033350000  MEMB      152             0.0000000000
     17434       152  CHL1      H3            -23.9647938965      -20.0976203175      -16.9041750000  MEMB      152             0.0000000000
     17435       152  CHL1      O3            -23.1532655933      -20.7556156657      -18.6966650000  MEMB      152             0.0000000000
     17436       152  CHL1      H3'           -22.3949057654      -21.3136919235      -18.8838350000  MEMB      152             0.0000000000
     17437       152  CHL1      C4            -21.9011992732      -20.4977640723      -16.5837650000  MEMB      152             0.0000000000
     17438       152  CHL1      H4A           -21.0383577921      -21.0442371471      -17.0210150000  MEMB      152             0.0000000000
     17439       152  CHL1      H4B           -21.6869328511      -19.4159923557      -16.7185850000  MEMB      152             0.0000000000
     17440       152  CHL1      C5            -21.9173197502      -20.8974063117      -15.1540450000  MEMB      152             0.0000000000
     17441       152  CHL1      C6            -21.5903972612      -20.0107269183      -14.1244450000  MEMB      152             0.0000000000
     17442       152  CHL1      H6            -21.4193894392      -18.9523116253      -14.3704250000  MEMB      152             0.0000000000
     17443       152  CHL1      C7            -21.5707994980      -20.3227188536      -12.6746450000  MEMB      152             0.0000000000
     17444       152  CHL1      H7A           -20.6400150009      -19.9934195886      -12.1652150000  MEMB      152             0.0000000000
     17445       152  CHL1      H7B           -22.5095297273      -19.8805118102      -12.2777050000  MEMB      152             0.0000000000
     17446       152  CHL1      C8            -21.6225786623      -21.8520555045      -12.4014650000  MEMB      152             0.0000000000
     17447       152  CHL1      H8            -20.6208428847      -22.3263516266      -12.4782450000  MEMB      152             0.0000000000
     17448       152  CHL1      C14           -21.9946069899      -22.0383474835      -10.9550950000  MEMB      152             0.0000000000
     17449       152  CHL1      H14           -23.0529955766      -21.7022594426      -10.9209650000  MEMB      152             0.0000000000
     17450       152  CHL1      C15           -21.2454114157      -21.2943207520       -9.7999650000  MEMB      152             0.0000000000
     17451       152  CHL1      H15A          -20.1472138941      -21.3663520173       -9.9519250000  MEMB      152             0.0000000000
     17452       152  CHL1      H15B          -21.6055271413      -20.2467616624       -9.8850850000  MEMB      152             0.0000000000
     17453       152  CHL1      C16           -21.6538225238      -22.0704494067       -8.5537050000  MEMB      152             0.0000000000
     17454       152  CHL1      H16A          -20.8068251843      -22.2654831721       -7.8616850000  MEMB      152             0.0000000000
     17455       152  CHL1      H16B          -22.2953968848      -21.4069017575       -7.9353250000  MEMB      152             0.0000000000
     17456       152  CHL1      C17           -22.4427702609      -23.3156096246       -9.0380350000  MEMB      152             0.0000000000
     17457       152  CHL1      H17           -23.4742768498      -22.9169453462       -8.9313950000  MEMB      152             0.0000000000
     17458       152  CHL1      C13           -22.0160687145      -23.5388862708      -10.4709150000  MEMB      152             0.0000000000
     17459       152  CHL1      C18           -20.5898993697      -24.1926340375      -10.3944650000  MEMB      152             0.0000000000
     17460       152  CHL1      H18A          -20.1109344045      -24.1377813697      -11.3954250000  MEMB      152             0.0000000000
     17461       152  CHL1      H18B          -20.0770139667      -23.7815399309       -9.4987650000  MEMB      152             0.0000000000
     17462       152  CHL1      H18C          -20.6529000033      -25.2889579280      -10.2259250000  MEMB      152             0.0000000000
     17463       152  CHL1      C12           -22.9865645882      -24.3411160979      -11.4275950000  MEMB      152             0.0000000000
     17464       152  CHL1      H12A          -22.8982872886      -25.4246735908      -11.1986050000  MEMB      152             0.0000000000
     17465       152  CHL1      H12B          -23.9798536749      -23.9651305546      -11.1015150000  MEMB      152             0.0000000000
     17466       152  CHL1      C11           -22.6536171605      -24.0580723021      -12.8830850000  MEMB      152             0.0000000000
     17467       152  CHL1      H11A          -21.7983526015      -24.6819185651      -13.2202150000  MEMB      152             0.0000000000
     17468       152  CHL1      H11B          -23.4929917883      -24.4988376169      -13.4623150000  MEMB      152             0.0000000000
     17469       152  CHL1      C9            -22.5564129284      -22.5992044082      -13.3356950000  MEMB      152             0.0000000000
     17470       152  CHL1      H9            -23.5669464653      -22.1516780588      -13.2223250000  MEMB      152             0.0000000000
     17471       152  CHL1      C10           -22.3737256187      -22.3529898663      -14.8423450000  MEMB      152             0.0000000000
     17472       152  CHL1      C19           -21.1577402824      -23.2287800968      -15.3755950000  MEMB      152             0.0000000000
     17473       152  CHL1      H19A          -20.2397597272      -22.8502094013      -14.8772750000  MEMB      152             0.0000000000
     17474       152  CHL1      H19B          -21.3302214090      -24.3021709791      -15.1466850000  MEMB      152             0.0000000000
     17475       152  CHL1      H19C          -21.0288811848      -23.1340258153      -16.4750150000  MEMB      152             0.0000000000
     17476       152  CHL1      C1            -23.7398363520      -22.6329627424      -15.5523050000  MEMB      152             0.0000000000
     17477       152  CHL1      H1A           -24.0050546680      -23.7098898644      -15.4874350000  MEMB      152             0.0000000000
     17478       152  CHL1      H1B           -24.5574349150      -22.0402978223      -15.0890650000  MEMB      152             0.0000000000
     17479       152  CHL1      C2            -23.8354963530      -22.2387869396      -17.0180850000  MEMB      152             0.0000000000
     17480       152  CHL1      H2A           -24.9321956090      -22.2876894534      -17.1888450000  MEMB      152             0.0000000000
     17481       152  CHL1      H2B           -23.3359497041      -22.9438266736      -17.7164350000  MEMB      152             0.0000000000
     17482       152  CHL1      C20           -22.2870688160      -24.4265253399       -7.9529550000  MEMB      152             0.0000000000
     17483       152  CHL1      H20           -21.1908315440      -24.5867351758       -7.8697150000  MEMB      152             0.0000000000
     17484       152  CHL1      C21           -22.9685051860      -25.6959942634       -8.3314150000  MEMB      152             0.0000000000
     17485       152  CHL1      H21A          -23.0286674542      -26.3751966694       -7.4542650000  MEMB      152             0.0000000000
     17486       152  CHL1      H21B          -22.3308694490      -26.2237463083       -9.0725050000  MEMB      152             0.0000000000
     17487       152  CHL1      H21C          -24.0083895713      -25.5673392838       -8.7007450000  MEMB      152             0.0000000000
     17488       152  CHL1      C22           -22.9292128977      -23.9729062468       -6.6019050000  MEMB      152             0.0000000000
     17489       152  CHL1      H22A          -22.7969162893      -22.8892919114       -6.3954850000  MEMB      152             0.0000000000
     17490       152  CHL1      H22B          -24.0259184951      -24.0707872044       -6.7501750000  MEMB      152             0.0000000000
     17491       152  CHL1      C23           -22.6094776356      -24.7937430643       -5.4046950000  MEMB      152             0.0000000000
     17492       152  CHL1      H23A          -23.2626097970      -25.6916684456       -5.4433050000  MEMB      152             0.0000000000
     17493       152  CHL1      H23B          -21.5403504802      -25.0931853941       -5.4450750000  MEMB      152             0.0000000000
     17494       152  CHL1      C24           -22.8759913927      -23.9217989615       -4.1413650000  MEMB      152             0.0000000000
     17495       152  CHL1      H24A          -22.2151898931      -23.0327279210       -4.2262750000  MEMB      152             0.0000000000
     17496       152  CHL1      H24B          -23.9739957533      -23.7674627870       -4.0714350000  MEMB      152             0.0000000000
     17497       152  CHL1      C25           -22.6612718679      -24.6248357288       -2.8465250000  MEMB      152             0.0000000000
     17498       152  CHL1      H25           -21.6198932190      -24.9971121741       -2.7403850000  MEMB      152             0.0000000000
     17499       152  CHL1      C26           -22.9345732044      -23.6632384745       -1.6650450000  MEMB      152             0.0000000000
     17500       152  CHL1      H26A          -24.0238952918      -23.4941057960       -1.5268950000  MEMB      152             0.0000000000
     17501       152  CHL1      H26B          -22.5051406035      -24.0717119585       -0.7253250000  MEMB      152             0.0000000000
     17502       152  CHL1      H26C          -22.4508730277      -22.6777204852       -1.8356550000  MEMB      152             0.0000000000
     17503       152  CHL1      C27           -23.6455160133      -25.7679617117       -2.6749150000  MEMB      152             0.0000000000
     17504       152  CHL1      H27A          -23.5276162435      -26.2428041736       -1.6774450000  MEMB      152             0.0000000000
     17505       152  CHL1      H27B          -24.7026121872      -25.4356636931       -2.7553250000  MEMB      152             0.0000000000
     17506       152  CHL1      H27C          -23.4921201074      -26.5659663702       -3.4325350000  MEMB      152             0.0000000000
     17507       153  SAPE      N              19.1916277587      -26.4330958886      -20.4551898772  MEMB      153             0.0000000000
     17508       153  SAPE      HN1            19.2122910348      -25.7247862278      -19.6939602241  MEMB      153             0.0000000000
     17509       153  SAPE      HN2            18.1952297067      -26.6022270896      -20.7005169849  MEMB      153             0.0000000000
     17510       153  SAPE      HN3            19.6067662630      -27.3129716870      -20.0876595812  MEMB      153             0.0000000000
     17511       153  SAPE      C12            20.0142750346      -25.7835347082      -21.6240284991  MEMB      153             0.0000000000
     17512       153  SAPE      H12A           19.7356968590      -26.0979079993      -22.6525637291  MEMB      153             0.0000000000
     17513       153  SAPE      H12B           21.0423291553      -26.1843364370      -21.4944765662  MEMB      153             0.0000000000
     17514       153  SAPE      C11            19.9018332801      -24.2538318705      -21.5167108534  MEMB      153             0.0000000000
     17515       153  SAPE      H11A           19.0802232375      -23.8176103337      -22.1241552575  MEMB      153             0.0000000000
     17516       153  SAPE      H11B           20.8366925567      -23.8285353523      -21.9403638405  MEMB      153             0.0000000000
     17517       153  SAPE      P              21.1132961264      -23.6339424621      -19.2984258023  MEMB      153             0.0000000000
     17518       153  SAPE      O13            21.7312800045      -24.9374472273      -19.1446165952  MEMB      153             0.0000000000
     17519       153  SAPE      O14            22.0317866005      -22.6002022901      -19.8274608796  MEMB      153             0.0000000000
     17520       153  SAPE      O12            19.7840593853      -23.7493601722      -20.1342685614  MEMB      153             0.0000000000
     17521       153  SAPE      O11            20.4755874256      -23.1894197868      -17.9992989130  MEMB      153             0.0000000000
     17522       153  SAPE      C1             19.2469122121      -22.5019932337      -17.9773816682  MEMB      153             0.0000000000
     17523       153  SAPE      HA             19.2932210229      -21.5109977868      -18.4774861853  MEMB      153             0.0000000000
     17524       153  SAPE      HB             18.4655280797      -23.1396844727      -18.4433321055  MEMB      153             0.0000000000
     17525       153  SAPE      C2             18.9305515443      -22.2208802093      -16.5333355831  MEMB      153             0.0000000000
     17526       153  SAPE      HS             18.0583137394      -21.5365853786      -16.6058812510  MEMB      153             0.0000000000
     17527       153  SAPE      O21            19.9125997553      -21.4591519324      -15.8330830328  MEMB      153             0.0000000000
     17528       153  SAPE      C21            19.8883386584      -20.0763308636      -15.8477275815  MEMB      153             0.0000000000
     17529       153  SAPE      O22            19.1833895785      -19.4215381911      -16.6174406035  MEMB      153             0.0000000000
     17530       153  SAPE      C22            20.8695188721      -19.5423811581      -14.8641110782  MEMB      153             0.0000000000
     17531       153  SAPE      H2R            20.4200224431      -18.6117484343      -14.4564385189  MEMB      153             0.0000000000
     17532       153  SAPE      H2S            20.9845517818      -20.1085370330      -13.9151348978  MEMB      153             0.0000000000
     17533       153  SAPE      C3             18.7203126020      -23.4862089434      -15.6939075336  MEMB      153             0.0000000000
     17534       153  SAPE      HX             19.5276441256      -24.2215537215      -15.8983703824  MEMB      153             0.0000000000
     17535       153  SAPE      HY             17.7599055821      -23.9375611241      -16.0228765757  MEMB      153             0.0000000000
     17536       153  SAPE      O31            18.6134869322      -23.1094755655      -14.2812934410  MEMB      153             0.0000000000
     17537       153  SAPE      C31            17.4696773409      -23.2172692219      -13.6300669710  MEMB      153             0.0000000000
     17538       153  SAPE      O32            16.3642560163      -23.3654697101      -14.0828236099  MEMB      153             0.0000000000
     17539       153  SAPE      C32            17.7870879549      -23.0658922796      -12.1231088862  MEMB      153             0.0000000000
     17540       153  SAPE      H2X            18.6808106454      -22.4076818025      -12.0747391742  MEMB      153             0.0000000000
     17541       153  SAPE      H2Y            18.1299455117      -24.0156633329      -11.6597461188  MEMB      153             0.0000000000
     17542       153  SAPE      C23            22.1375877374      -19.0933005018      -15.5368945847  MEMB      153             0.0000000000
     17543       153  SAPE      H3R            22.4979166671      -18.1588921976      -15.0558895197  MEMB      153             0.0000000000
     17544       153  SAPE      H3S            22.0846845131      -19.0066173502      -16.6432437415  MEMB      153             0.0000000000
     17545       153  SAPE      C24            23.3811265372      -20.0067336339      -15.3446793463  MEMB      153             0.0000000000
     17546       153  SAPE      H4R            23.7416631440      -20.0287917809      -14.2940378065  MEMB      153             0.0000000000
     17547       153  SAPE      H4S            24.2802630865      -19.5196597684      -15.7789995047  MEMB      153             0.0000000000
     17548       153  SAPE      C25            23.2506969966      -21.4615736266      -15.8330822580  MEMB      153             0.0000000000
     17549       153  SAPE      H5R            23.2216620975      -21.5052505780      -16.9318313804  MEMB      153             0.0000000000
     17550       153  SAPE      C26            23.2845179548      -22.6769867000      -15.2283164310  MEMB      153             0.0000000000
     17551       153  SAPE      H6R            23.2211781904      -23.6504358708      -15.7366321242  MEMB      153             0.0000000000
     17552       153  SAPE      C27            23.3828059031      -22.8881417000      -13.7306791889  MEMB      153             0.0000000000
     17553       153  SAPE      H7R            23.8817083246      -22.0215693114      -13.2464587506  MEMB      153             0.0000000000
     17554       153  SAPE      H7S            23.9655546286      -23.8032402238      -13.4912631714  MEMB      153             0.0000000000
     17555       153  SAPE      C28            22.0949613223      -22.8334086189      -12.9957801112  MEMB      153             0.0000000000
     17556       153  SAPE      H8R            21.1549768086      -22.7438326427      -13.5600542694  MEMB      153             0.0000000000
     17557       153  SAPE      C29            22.0470488916      -23.0192683907      -11.6220992574  MEMB      153             0.0000000000
     17558       153  SAPE      H9R            21.0351975687      -23.0059304794      -11.1908469418  MEMB      153             0.0000000000
     17559       153  SAPE      C210           23.1404639271      -23.3159820025      -10.6312993920  MEMB      153             0.0000000000
     17560       153  SAPE      H10R           23.2614292462      -22.5349352871       -9.8504951862  MEMB      153             0.0000000000
     17561       153  SAPE      H10S           24.1484252285      -23.3754447564      -11.0947632649  MEMB      153             0.0000000000
     17562       153  SAPE      C211           22.8136584207      -24.6337230488       -9.9594115183  MEMB      153             0.0000000000
     17563       153  SAPE      H11R           23.1407985905      -25.5731749577      -10.4288889096  MEMB      153             0.0000000000
     17564       153  SAPE      C212           22.2318174981      -24.6976249887       -8.7097033136  MEMB      153             0.0000000000
     17565       153  SAPE      H12R           22.3218830067      -25.6754342258       -8.2139439882  MEMB      153             0.0000000000
     17566       153  SAPE      C213           21.7736894207      -23.5745940502       -7.8055882526  MEMB      153             0.0000000000
     17567       153  SAPE      H13R           22.2852027520      -22.5888303308       -7.7748501565  MEMB      153             0.0000000000
     17568       153  SAPE      H13S           22.0237504416      -23.7985225481       -6.7465099778  MEMB      153             0.0000000000
     17569       153  SAPE      C214           20.3021651645      -23.1600279591       -7.9211226307  MEMB      153             0.0000000000
     17570       153  SAPE      H14R           19.9837162704      -22.3836485915       -8.6323368961  MEMB      153             0.0000000000
     17571       153  SAPE      C215           19.2739199652      -23.8539448631       -7.3924442841  MEMB      153             0.0000000000
     17572       153  SAPE      H15R           18.2587726939      -23.5891182911       -7.7231146707  MEMB      153             0.0000000000
     17573       153  SAPE      C216           19.2863672794      -25.1637196267       -6.6841667554  MEMB      153             0.0000000000
     17574       153  SAPE      H16R           20.1999457355      -25.7639011656       -6.8828559273  MEMB      153             0.0000000000
     17575       153  SAPE      H16S           18.4955466367      -25.8347018146       -7.0825468253  MEMB      153             0.0000000000
     17576       153  SAPE      C217           19.0760922330      -25.0366409845       -5.1469858996  MEMB      153             0.0000000000
     17577       153  SAPE      H17R           18.7374938553      -26.0071207347       -4.7252735730  MEMB      153             0.0000000000
     17578       153  SAPE      H17S           18.2012642394      -24.3887361190       -4.9251384365  MEMB      153             0.0000000000
     17579       153  SAPE      C218           20.1817739745      -24.3336555429       -4.2975062170  MEMB      153             0.0000000000
     17580       153  SAPE      H18R           20.0452405995      -23.2721572645       -4.5956689384  MEMB      153             0.0000000000
     17581       153  SAPE      H18S           21.1970400602      -24.5824433580       -4.6738834008  MEMB      153             0.0000000000
     17582       153  SAPE      C219           20.0668910421      -24.6042125339       -2.8211883821  MEMB      153             0.0000000000
     17583       153  SAPE      H19R           20.2329909617      -25.6754014995       -2.5777017895  MEMB      153             0.0000000000
     17584       153  SAPE      H19S           18.9881223636      -24.4836293616       -2.5844653687  MEMB      153             0.0000000000
     17585       153  SAPE      C220           20.9229148700      -23.7049445621       -1.9237647378  MEMB      153             0.0000000000
     17586       153  SAPE      H20R           20.4994593983      -23.6510667560       -0.8980425952  MEMB      153             0.0000000000
     17587       153  SAPE      H20S           21.0126828745      -22.6654978729       -2.3056199111  MEMB      153             0.0000000000
     17588       153  SAPE      H20T           21.9962474108      -23.9704760929       -1.8152696816  MEMB      153             0.0000000000
     17589       153  SAPE      C33            16.5151182280      -22.5584325843      -11.4142321619  MEMB      153             0.0000000000
     17590       153  SAPE      H3X            15.7131252154      -23.3267712697      -11.4422293738  MEMB      153             0.0000000000
     17591       153  SAPE      H3Y            15.9859751959      -21.7597012977      -11.9766885234  MEMB      153             0.0000000000
     17592       153  SAPE      C34            16.6731411741      -22.1552459822       -9.9201071814  MEMB      153             0.0000000000
     17593       153  SAPE      H4X            17.2729744960      -22.9728578879       -9.4662000156  MEMB      153             0.0000000000
     17594       153  SAPE      H4Y            15.7796999103      -21.9595318169       -9.2894096499  MEMB      153             0.0000000000
     17595       153  SAPE      C35            17.5806382878      -20.9157995769       -9.8060317596  MEMB      153             0.0000000000
     17596       153  SAPE      H5X            17.0765845973      -20.0680397384      -10.3174555254  MEMB      153             0.0000000000
     17597       153  SAPE      H5Y            18.5756619117      -21.1433136094      -10.2447644845  MEMB      153             0.0000000000
     17598       153  SAPE      C36            17.7059019798      -20.4236238717       -8.4160404079  MEMB      153             0.0000000000
     17599       153  SAPE      H6X            17.9834914356      -21.3316592756       -7.8392072373  MEMB      153             0.0000000000
     17600       153  SAPE      H6Y            16.6552561256      -20.1442786515       -8.1870636085  MEMB      153             0.0000000000
     17601       153  SAPE      C37            18.6545366780      -19.2370521848       -8.2606208971  MEMB      153             0.0000000000
     17602       153  SAPE      H7X            18.2220408025      -18.3225927693       -8.7200036335  MEMB      153             0.0000000000
     17603       153  SAPE      H7Y            19.6346847354      -19.5176776580       -8.7020740055  MEMB      153             0.0000000000
     17604       153  SAPE      C38            19.0959840204      -19.0831575062       -6.7941921817  MEMB      153             0.0000000000
     17605       153  SAPE      H8X            20.0077133315      -18.4533723357       -6.7139340142  MEMB      153             0.0000000000
     17606       153  SAPE      H8Y            19.3464212098      -20.1310639308       -6.5230942073  MEMB      153             0.0000000000
     17607       153  SAPE      C39            17.9739278377      -18.5236455043       -5.8785481709  MEMB      153             0.0000000000
     17608       153  SAPE      H9X            16.9379604944      -18.7169872174       -6.2302750572  MEMB      153             0.0000000000
     17609       153  SAPE      H9Y            18.2269974051      -17.4429351581       -5.8301593827  MEMB      153             0.0000000000
     17610       153  SAPE      C310           18.0368103414      -19.1097109075       -4.4671102644  MEMB      153             0.0000000000
     17611       153  SAPE      H10X           17.3010316595      -18.4515503609       -3.9574275606  MEMB      153             0.0000000000
     17612       153  SAPE      H10Y           19.0137788048      -18.9241792759       -3.9716997267  MEMB      153             0.0000000000
     17613       153  SAPE      C311           17.6845219536      -20.6392387623       -4.4003326773  MEMB      153             0.0000000000
     17614       153  SAPE      H11X           18.5017073905      -21.2434259839       -4.8492067653  MEMB      153             0.0000000000
     17615       153  SAPE      H11Y           16.7177776984      -20.7690497228       -4.9321935421  MEMB      153             0.0000000000
     17616       153  SAPE      C312           17.5972209952      -21.1953736745       -2.9467049638  MEMB      153             0.0000000000
     17617       153  SAPE      H12X           18.3086573011      -20.6185291616       -2.3178727993  MEMB      153             0.0000000000
     17618       153  SAPE      H12Y           17.9785693420      -22.2368341275       -3.0119326160  MEMB      153             0.0000000000
     17619       153  SAPE      C313           16.1850154035      -21.1363886853       -2.3456879518  MEMB      153             0.0000000000
     17620       153  SAPE      H13X           15.5789379630      -21.9078187381       -2.8671154427  MEMB      153             0.0000000000
     17621       153  SAPE      H13Y           15.7243225390      -20.1778393451       -2.6670386449  MEMB      153             0.0000000000
     17622       153  SAPE      C314           16.0769260624      -21.3401462089       -0.8052273062  MEMB      153             0.0000000000
     17623       153  SAPE      H14X           14.9887029975      -21.3633458074       -0.5826207800  MEMB      153             0.0000000000
     17624       153  SAPE      H14Y           16.5332880220      -20.4958357331       -0.2455901710  MEMB      153             0.0000000000
     17625       153  SAPE      C315           16.8516043417      -22.6573302761       -0.3497989337  MEMB      153             0.0000000000
     17626       153  SAPE      H15X           16.7341445437      -22.6871678862        0.7545720178  MEMB      153             0.0000000000
     17627       153  SAPE      H15Y           17.9324086223      -22.6876446574       -0.6052661042  MEMB      153             0.0000000000
     17628       153  SAPE      C316           16.1864121663      -23.9066076870       -0.9986846165  MEMB      153             0.0000000000
     17629       153  SAPE      H16X           16.6819041790      -24.0518124897       -1.9824156541  MEMB      153             0.0000000000
     17630       153  SAPE      H16Y           15.1158803917      -23.6128619906       -1.0433663297  MEMB      153             0.0000000000
     17631       153  SAPE      C317           16.4676169130      -25.1918437202       -0.1609077568  MEMB      153             0.0000000000
     17632       153  SAPE      H17X           15.7489154768      -25.9873143181       -0.4524818386  MEMB      153             0.0000000000
     17633       153  SAPE      H17Y           16.4265025616      -24.9258144718        0.9169874236  MEMB      153             0.0000000000
     17634       153  SAPE      C318           17.8579038822      -25.6969863090       -0.4562498599  MEMB      153             0.0000000000
     17635       153  SAPE      H18X           18.5848717466      -24.8789942597       -0.2646052001  MEMB      153             0.0000000000
     17636       153  SAPE      H18Y           18.0945110792      -26.0355792179       -1.4876047556  MEMB      153             0.0000000000
     17637       153  SAPE      H18Z           18.2143499699      -26.6320338273        0.0264025391  MEMB      153             0.0000000000
     17638       154  SAPI      C12           -24.7620539336       23.5066370564      -23.6663768954  MEMB      154             0.0000000000
     17639       154  SAPI      H2            -25.4430292212       23.7312041527      -22.8177525294  MEMB      154             0.0000000000
     17640       154  SAPI      O2            -24.9374503224       22.0934867365      -23.9206069163  MEMB      154             0.0000000000
     17641       154  SAPI      HO2           -25.0243058385       21.6107883176      -23.0953441855  MEMB      154             0.0000000000
     17642       154  SAPI      C13           -25.2196188445       24.2912500151      -24.9082700387  MEMB      154             0.0000000000
     17643       154  SAPI      H3            -25.1738761268       25.3920738055      -24.7653869842  MEMB      154             0.0000000000
     17644       154  SAPI      O3            -26.5650061238       23.8933391551      -25.2652006631  MEMB      154             0.0000000000
     17645       154  SAPI      HO3           -26.8555342526       23.0995615499      -24.8101068102  MEMB      154             0.0000000000
     17646       154  SAPI      C14           -24.2792761767       23.9854391187      -26.0394698982  MEMB      154             0.0000000000
     17647       154  SAPI      H4            -24.3541550456       22.9235097886      -26.3573068694  MEMB      154             0.0000000000
     17648       154  SAPI      O4            -24.6578105154       24.6923844221      -27.2227291154  MEMB      154             0.0000000000
     17649       154  SAPI      HO4           -24.5381178264       24.1012695883      -27.9696274878  MEMB      154             0.0000000000
     17650       154  SAPI      C15           -22.7963821549       24.3164365635      -25.6884116821  MEMB      154             0.0000000000
     17651       154  SAPI      H5            -22.7021566688       25.3941872238      -25.4356347080  MEMB      154             0.0000000000
     17652       154  SAPI      O5            -21.9449508831       24.0493314315      -26.7726211211  MEMB      154             0.0000000000
     17653       154  SAPI      HO5           -21.4770925809       24.8614674029      -26.9803316287  MEMB      154             0.0000000000
     17654       154  SAPI      C16           -22.3645643316       23.5697711344      -24.4435450071  MEMB      154             0.0000000000
     17655       154  SAPI      H6            -22.4130863248       22.4676360872      -24.5749415408  MEMB      154             0.0000000000
     17656       154  SAPI      O6            -21.0308133898       23.9213413084      -24.0973603988  MEMB      154             0.0000000000
     17657       154  SAPI      HO6           -20.6389781528       24.0566106751      -24.9632516854  MEMB      154             0.0000000000
     17658       154  SAPI      C11           -23.3309381455       23.8850088037      -23.2812898955  MEMB      154             0.0000000000
     17659       154  SAPI      H1            -23.2531704841       24.9709249814      -23.0597962070  MEMB      154             0.0000000000
     17660       154  SAPI      P             -23.3861651431       23.6582422652      -20.6429574915  MEMB      154             0.0000000000
     17661       154  SAPI      O13           -24.8392927165       23.4253218329      -20.5569419689  MEMB      154             0.0000000000
     17662       154  SAPI      O14           -22.9586553237       25.0229151655      -20.3030285750  MEMB      154             0.0000000000
     17663       154  SAPI      O12           -22.9355913538       23.1062175014      -22.1391354496  MEMB      154             0.0000000000
     17664       154  SAPI      O11           -22.6911416463       22.6663826099      -19.6398532950  MEMB      154             0.0000000000
     17665       154  SAPI      C1            -22.6961569670       21.3002517042      -19.8909727551  MEMB      154             0.0000000000
     17666       154  SAPI      HA            -23.6236410976       20.8062963122      -20.2516696807  MEMB      154             0.0000000000
     17667       154  SAPI      HB            -21.8402652956       21.0807181619      -20.5644528403  MEMB      154             0.0000000000
     17668       154  SAPI      C2            -22.4028348761       20.4836400310      -18.5947029095  MEMB      154             0.0000000000
     17669       154  SAPI      HS            -22.7203244856       19.4210953026      -18.6619333776  MEMB      154             0.0000000000
     17670       154  SAPI      O21           -23.1175776318       20.9561530407      -17.5384089168  MEMB      154             0.0000000000
     17671       154  SAPI      C21           -24.4227935885       20.8281661441      -17.5121555263  MEMB      154             0.0000000000
     17672       154  SAPI      O22           -25.2163915032       20.2791100986      -18.2807870209  MEMB      154             0.0000000000
     17673       154  SAPI      C22           -24.7926664923       21.7500232769      -16.4043922208  MEMB      154             0.0000000000
     17674       154  SAPI      H2R           -25.7738400604       21.5280953622      -15.9328333230  MEMB      154             0.0000000000
     17675       154  SAPI      H2S           -24.0651377395       21.7288259274      -15.5650033825  MEMB      154             0.0000000000
     17676       154  SAPI      C3            -20.8796515588       20.4842280695      -18.2324075668  MEMB      154             0.0000000000
     17677       154  SAPI      HX            -20.2342910880       20.0367953975      -19.0183050553  MEMB      154             0.0000000000
     17678       154  SAPI      HY            -20.7483590063       19.8831829923      -17.3072978210  MEMB      154             0.0000000000
     17679       154  SAPI      O31           -20.3737525715       21.8322315481      -18.0845677461  MEMB      154             0.0000000000
     17680       154  SAPI      C31           -20.2072843062       22.2361359405      -16.8482754705  MEMB      154             0.0000000000
     17681       154  SAPI      O32           -20.5076557408       21.6213125461      -15.7870170652  MEMB      154             0.0000000000
     17682       154  SAPI      C32           -19.5976578902       23.6768785290      -16.8080501335  MEMB      154             0.0000000000
     17683       154  SAPI      H2X           -20.1148518522       24.4377812591      -17.4308333052  MEMB      154             0.0000000000
     17684       154  SAPI      H2Y           -18.5354259713       23.5888931045      -17.1214879141  MEMB      154             0.0000000000
     17685       154  SAPI      C23           -24.8436954619       23.1414303310      -17.0359410915  MEMB      154             0.0000000000
     17686       154  SAPI      H3R           -25.5220180268       23.1893559578      -17.9145209777  MEMB      154             0.0000000000
     17687       154  SAPI      H3S           -23.8033186309       23.3342082159      -17.3747236918  MEMB      154             0.0000000000
     17688       154  SAPI      C24           -25.2421565668       24.1629704369      -15.9995860014  MEMB      154             0.0000000000
     17689       154  SAPI      H4R           -25.3497874567       25.0545077686      -16.6537249342  MEMB      154             0.0000000000
     17690       154  SAPI      H4S           -24.3413894976       24.3729714487      -15.3840869831  MEMB      154             0.0000000000
     17691       154  SAPI      C25           -26.5413862379       24.0320575779      -15.2943902595  MEMB      154             0.0000000000
     17692       154  SAPI      H5R           -27.4051712561       23.7399257665      -15.9096424418  MEMB      154             0.0000000000
     17693       154  SAPI      C26           -26.8465516414       24.4099078602      -14.0119590070  MEMB      154             0.0000000000
     17694       154  SAPI      H6R           -27.8704881033       24.3280961402      -13.6184357769  MEMB      154             0.0000000000
     17695       154  SAPI      C27           -25.8331150499       25.0056787128      -13.0809666829  MEMB      154             0.0000000000
     17696       154  SAPI      H7R           -25.3372169725       25.9645103166      -13.3437366162  MEMB      154             0.0000000000
     17697       154  SAPI      H7S           -25.0346630097       24.2669355687      -12.8550157899  MEMB      154             0.0000000000
     17698       154  SAPI      C28           -26.5423697085       25.4361213231      -11.8622318316  MEMB      154             0.0000000000
     17699       154  SAPI      H8R           -27.4013341153       26.1205256462      -11.9236406765  MEMB      154             0.0000000000
     17700       154  SAPI      C29           -26.0313092189       25.3266655521      -10.5982892077  MEMB      154             0.0000000000
     17701       154  SAPI      H9R           -26.7325575686       25.6538524095       -9.8164959858  MEMB      154             0.0000000000
     17702       154  SAPI      C210          -24.7048685274       24.8205007353      -10.1494391110  MEMB      154             0.0000000000
     17703       154  SAPI      H10R          -24.5199031418       23.9804264604      -10.8525635288  MEMB      154             0.0000000000
     17704       154  SAPI      H10S          -24.7679348968       24.4063895230       -9.1204317215  MEMB      154             0.0000000000
     17705       154  SAPI      C211          -23.5976680205       25.8444272196      -10.2167557745  MEMB      154             0.0000000000
     17706       154  SAPI      H11R          -23.4855644825       26.2602312707      -11.2289513621  MEMB      154             0.0000000000
     17707       154  SAPI      C212          -22.9274167052       26.3751342420       -9.1665661884  MEMB      154             0.0000000000
     17708       154  SAPI      H12R          -22.1233930443       27.0927030758       -9.3871133962  MEMB      154             0.0000000000
     17709       154  SAPI      C213          -23.1079523190       26.0654110695       -7.7013852781  MEMB      154             0.0000000000
     17710       154  SAPI      H13R          -24.1742146246       25.9235267456       -7.4234024747  MEMB      154             0.0000000000
     17711       154  SAPI      H13S          -22.6663971232       26.8968613231       -7.1114360183  MEMB      154             0.0000000000
     17712       154  SAPI      C214          -22.4408806929       24.7434664355       -7.3306052290  MEMB      154             0.0000000000
     17713       154  SAPI      H14R          -23.1013188099       23.8646552332       -7.2917146084  MEMB      154             0.0000000000
     17714       154  SAPI      C215          -21.1265269931       24.6899609610       -6.9727541238  MEMB      154             0.0000000000
     17715       154  SAPI      H15R          -20.7130345751       23.6713445440       -6.9347438965  MEMB      154             0.0000000000
     17716       154  SAPI      C216          -20.1000930787       25.7985770726       -6.8648606244  MEMB      154             0.0000000000
     17717       154  SAPI      H16R          -20.5012065776       26.7874817198       -7.1738857070  MEMB      154             0.0000000000
     17718       154  SAPI      H16S          -19.2284530704       25.5755323917       -7.5166389744  MEMB      154             0.0000000000
     17719       154  SAPI      C217          -19.5509333078       25.9889012812       -5.4411909990  MEMB      154             0.0000000000
     17720       154  SAPI      H17R          -18.8754389726       26.8704490817       -5.4111561753  MEMB      154             0.0000000000
     17721       154  SAPI      H17S          -18.9342676948       25.0952554838       -5.2057299237  MEMB      154             0.0000000000
     17722       154  SAPI      C218          -20.5976319077       26.2161356477       -4.3011490730  MEMB      154             0.0000000000
     17723       154  SAPI      H18R          -20.0052574581       26.3270423432       -3.3678141632  MEMB      154             0.0000000000
     17724       154  SAPI      H18S          -21.3651840795       25.4151531869       -4.2410532048  MEMB      154             0.0000000000
     17725       154  SAPI      C219          -21.4997175119       27.5316126412       -4.3196258387  MEMB      154             0.0000000000
     17726       154  SAPI      H19R          -22.0834184443       27.5125890265       -5.2647460192  MEMB      154             0.0000000000
     17727       154  SAPI      H19S          -20.8979754548       28.4622748585       -4.3976986692  MEMB      154             0.0000000000
     17728       154  SAPI      C220          -22.4375700739       27.8049562834       -3.0906196746  MEMB      154             0.0000000000
     17729       154  SAPI      H20R          -23.1280677107       28.6603596204       -3.2513034589  MEMB      154             0.0000000000
     17730       154  SAPI      H20S          -21.8586744880       28.1306544731       -2.2000463478  MEMB      154             0.0000000000
     17731       154  SAPI      H20T          -22.9922992052       26.8756004151       -2.8398327482  MEMB      154             0.0000000000
     17732       154  SAPI      C33           -19.6181232136       24.2098631512      -15.3559992724  MEMB      154             0.0000000000
     17733       154  SAPI      H3X           -19.0412815649       25.1560953653      -15.2771352102  MEMB      154             0.0000000000
     17734       154  SAPI      H3Y           -19.0089861230       23.5154630016      -14.7386809791  MEMB      154             0.0000000000
     17735       154  SAPI      C34           -21.0548190926       24.3257840502      -14.7499293078  MEMB      154             0.0000000000
     17736       154  SAPI      H4X           -21.6593638442       23.4357613422      -15.0268878455  MEMB      154             0.0000000000
     17737       154  SAPI      H4Y           -21.4455852260       25.2801242361      -15.1632787780  MEMB      154             0.0000000000
     17738       154  SAPI      C35           -21.1123634736       24.4732152131      -13.1875890054  MEMB      154             0.0000000000
     17739       154  SAPI      H5X           -22.1780813683       24.2964391880      -12.9281341569  MEMB      154             0.0000000000
     17740       154  SAPI      H5Y           -20.8309638396       25.4666430932      -12.7774227041  MEMB      154             0.0000000000
     17741       154  SAPI      C36           -20.1502653446       23.5037231444      -12.4362057692  MEMB      154             0.0000000000
     17742       154  SAPI      H6X           -19.1122640553       23.8974634593      -12.4791311806  MEMB      154             0.0000000000
     17743       154  SAPI      H6Y           -20.2296787375       22.4329036053      -12.7214423841  MEMB      154             0.0000000000
     17744       154  SAPI      C37           -20.5093628690       23.5249282656      -10.8819873573  MEMB      154             0.0000000000
     17745       154  SAPI      H7X           -21.5419953573       23.1252040343      -10.7913703784  MEMB      154             0.0000000000
     17746       154  SAPI      H7Y           -20.5926214583       24.6057551843      -10.6386723377  MEMB      154             0.0000000000
     17747       154  SAPI      C38           -19.5203131861       22.7870217166      -10.0143776120  MEMB      154             0.0000000000
     17748       154  SAPI      H8X           -19.1931585614       23.3986631830       -9.1465153043  MEMB      154             0.0000000000
     17749       154  SAPI      H8Y           -18.5736766310       22.5833530015      -10.5590968107  MEMB      154             0.0000000000
     17750       154  SAPI      C39           -19.9594980394       21.5789218165       -9.2184551536  MEMB      154             0.0000000000
     17751       154  SAPI      H9X           -20.8114028340       22.0014911092       -8.6439867948  MEMB      154             0.0000000000
     17752       154  SAPI      H9Y           -19.2163548627       21.3317243545       -8.4304501147  MEMB      154             0.0000000000
     17753       154  SAPI      C310          -20.6115420508       20.4376573921      -10.0727405435  MEMB      154             0.0000000000
     17754       154  SAPI      H10X          -19.8543270949       19.7365322642      -10.4842863668  MEMB      154             0.0000000000
     17755       154  SAPI      H10Y          -21.0328697285       20.9067322590      -10.9874931528  MEMB      154             0.0000000000
     17756       154  SAPI      C311          -21.6960013232       19.7531004853       -9.2108270464  MEMB      154             0.0000000000
     17757       154  SAPI      H11X          -21.2799957168       19.4415256561       -8.2289001317  MEMB      154             0.0000000000
     17758       154  SAPI      H11Y          -21.8437185255       18.8115740067       -9.7818167336  MEMB      154             0.0000000000
     17759       154  SAPI      C312          -23.1062085801       20.4359775427       -9.1404592621  MEMB      154             0.0000000000
     17760       154  SAPI      H12X          -23.3703846140       20.6718129801      -10.1935087167  MEMB      154             0.0000000000
     17761       154  SAPI      H12Y          -22.9710464856       21.4219163775       -8.6465185399  MEMB      154             0.0000000000
     17762       154  SAPI      C313          -24.1351166064       19.5623521644       -8.3961755493  MEMB      154             0.0000000000
     17763       154  SAPI      H13X          -24.1789129243       18.6403988213       -9.0145651543  MEMB      154             0.0000000000
     17764       154  SAPI      H13Y          -25.0709371659       20.1559414898       -8.3173543922  MEMB      154             0.0000000000
     17765       154  SAPI      C314          -23.6768587487       19.1715130602       -6.9789617657  MEMB      154             0.0000000000
     17766       154  SAPI      H14X          -22.6660481349       18.7243009323       -7.0911415715  MEMB      154             0.0000000000
     17767       154  SAPI      H14Y          -24.2650285728       18.3156337142       -6.5841865088  MEMB      154             0.0000000000
     17768       154  SAPI      C315          -23.5308840904       20.3539399165       -5.9558949436  MEMB      154             0.0000000000
     17769       154  SAPI      H15X          -24.5589978501       20.7420268780       -5.7925194367  MEMB      154             0.0000000000
     17770       154  SAPI      H15Y          -23.0407317723       21.2162858651       -6.4563259987  MEMB      154             0.0000000000
     17771       154  SAPI      C316          -22.8767152564       20.0664517396       -4.5826982073  MEMB      154             0.0000000000
     17772       154  SAPI      H16X          -22.0617558318       19.3611210165       -4.8522739118  MEMB      154             0.0000000000
     17773       154  SAPI      H16Y          -23.5581445574       19.6409743819       -3.8152714531  MEMB      154             0.0000000000
     17774       154  SAPI      C317          -22.2325310090       21.2076526599       -3.8922736572  MEMB      154             0.0000000000
     17775       154  SAPI      H17X          -23.0370366108       21.8119846056       -3.4212374096  MEMB      154             0.0000000000
     17776       154  SAPI      H17Y          -21.7473510720       21.8588820201       -4.6504434259  MEMB      154             0.0000000000
     17777       154  SAPI      C318          -21.2753821468       20.8623512979       -2.7166684309  MEMB      154             0.0000000000
     17778       154  SAPI      H18X          -21.7953508684       20.2609187873       -1.9406314498  MEMB      154             0.0000000000
     17779       154  SAPI      H18Y          -20.7653119909       21.7135107191       -2.2169907189  MEMB      154             0.0000000000
     17780       154  SAPI      H18Z          -20.5335252431       20.1911800826       -3.1998856646  MEMB      154             0.0000000000
     17781       155  CHL1      C3             31.4318771753       -8.7763187313      -17.2922600000  MEMB      155             0.0000000000
     17782       155  CHL1      H3             30.6584902397       -8.0258251769      -17.0221500000  MEMB      155             0.0000000000
     17783       155  CHL1      O3             31.3776296247       -8.9229002487      -18.7077400000  MEMB      155             0.0000000000
     17784       155  CHL1      H3'            31.8584296110       -8.1233621945      -18.9339400000  MEMB      155             0.0000000000
     17785       155  CHL1      C4             32.8599369180       -8.2719510453      -16.9431800000  MEMB      155             0.0000000000
     17786       155  CHL1      H4A            33.5746973388       -9.0173716939      -17.3527900000  MEMB      155             0.0000000000
     17787       155  CHL1      H4B            33.0434131259       -7.3631504172      -17.5553400000  MEMB      155             0.0000000000
     17788       155  CHL1      C5             32.9887542234       -8.2034720768      -15.4311000000  MEMB      155             0.0000000000
     17789       155  CHL1      C6             33.2473798809       -7.0982376954      -14.7612800000  MEMB      155             0.0000000000
     17790       155  CHL1      H6             33.5329930617       -6.1624298151      -15.2639600000  MEMB      155             0.0000000000
     17791       155  CHL1      C7             33.3982911394       -6.9700197167      -13.2864600000  MEMB      155             0.0000000000
     17792       155  CHL1      H7A            34.2330106060       -6.2690293398      -13.0715700000  MEMB      155             0.0000000000
     17793       155  CHL1      H7B            32.4515636248       -6.5420080100      -12.8929700000  MEMB      155             0.0000000000
     17794       155  CHL1      C8             33.5721930789       -8.2968307513      -12.6279700000  MEMB      155             0.0000000000
     17795       155  CHL1      H8             34.5139699252       -8.7708324361      -12.9782500000  MEMB      155             0.0000000000
     17796       155  CHL1      C14            33.4779475785       -8.2649413384      -11.1010000000  MEMB      155             0.0000000000
     17797       155  CHL1      H14            32.4256121178       -7.9518058268      -10.9310800000  MEMB      155             0.0000000000
     17798       155  CHL1      C15            34.3563806246       -7.1734034875      -10.3579400000  MEMB      155             0.0000000000
     17799       155  CHL1      H15A           35.4098511415       -7.3234329349      -10.6773200000  MEMB      155             0.0000000000
     17800       155  CHL1      H15B           34.1234676257       -6.1119072091      -10.5888500000  MEMB      155             0.0000000000
     17801       155  CHL1      C16            34.2541033804       -7.4743597539       -8.8557400000  MEMB      155             0.0000000000
     17802       155  CHL1      H16A           35.2638827649       -7.4503640108       -8.3930400000  MEMB      155             0.0000000000
     17803       155  CHL1      H16B           33.5154110678       -6.8571323811       -8.3010500000  MEMB      155             0.0000000000
     17804       155  CHL1      C17            33.7179118484       -8.9552753982       -8.8685300000  MEMB      155             0.0000000000
     17805       155  CHL1      H17            32.6340058341       -8.7431928042       -8.7481600000  MEMB      155             0.0000000000
     17806       155  CHL1      C13            33.6894373029       -9.4901540869      -10.3069700000  MEMB      155             0.0000000000
     17807       155  CHL1      C18            35.1125935228      -10.1087841591      -10.5395900000  MEMB      155             0.0000000000
     17808       155  CHL1      H18A           35.8632385686       -9.3494434312      -10.2326000000  MEMB      155             0.0000000000
     17809       155  CHL1      H18B           35.3335210191      -10.9331768096       -9.8283300000  MEMB      155             0.0000000000
     17810       155  CHL1      H18C           35.3763657695      -10.3164425419      -11.5986500000  MEMB      155             0.0000000000
     17811       155  CHL1      C12            32.5361638641      -10.4455895900      -10.7540500000  MEMB      155             0.0000000000
     17812       155  CHL1      H12A           32.5856611192      -11.3519818046      -10.1134900000  MEMB      155             0.0000000000
     17813       155  CHL1      H12B           31.5845858069       -9.9650723955      -10.4411200000  MEMB      155             0.0000000000
     17814       155  CHL1      C11            32.5224952573      -10.6629267421      -12.3038000000  MEMB      155             0.0000000000
     17815       155  CHL1      H11A           33.4945677970      -11.1834637464      -12.4396300000  MEMB      155             0.0000000000
     17816       155  CHL1      H11B           31.7246914173      -11.3709119607      -12.6145700000  MEMB      155             0.0000000000
     17817       155  CHL1      C9             32.5633980212       -9.3671536178      -13.1558600000  MEMB      155             0.0000000000
     17818       155  CHL1      H9             31.5693902316       -8.9236264318      -12.9332500000  MEMB      155             0.0000000000
     17819       155  CHL1      C10            32.6680867791       -9.5258387664      -14.7081400000  MEMB      155             0.0000000000
     17820       155  CHL1      C19            33.6178368097      -10.6599248056      -15.0185100000  MEMB      155             0.0000000000
     17821       155  CHL1      H19A           33.9261551747      -10.5267323509      -16.0775300000  MEMB      155             0.0000000000
     17822       155  CHL1      H19B           34.4293284682      -10.6988132946      -14.2606900000  MEMB      155             0.0000000000
     17823       155  CHL1      H19C           33.0377403250      -11.6042477164      -14.9405700000  MEMB      155             0.0000000000
     17824       155  CHL1      C1             31.3143743082      -10.0694814325      -15.0958300000  MEMB      155             0.0000000000
     17825       155  CHL1      H1A            31.0651778915      -11.0064004791      -14.5532300000  MEMB      155             0.0000000000
     17826       155  CHL1      H1B            30.5750605232       -9.3268077832      -14.7268200000  MEMB      155             0.0000000000
     17827       155  CHL1      C2             31.0714030546      -10.1435523688      -16.6446000000  MEMB      155             0.0000000000
     17828       155  CHL1      H2A            30.0416659376      -10.4767454997      -16.8955000000  MEMB      155             0.0000000000
     17829       155  CHL1      H2B            31.8015378464      -10.8921626909      -17.0198400000  MEMB      155             0.0000000000
     17830       155  CHL1      C20            34.1895190802       -9.8818865841       -7.6982400000  MEMB      155             0.0000000000
     17831       155  CHL1      H20            35.2620977822      -10.1457511257       -7.8176600000  MEMB      155             0.0000000000
     17832       155  CHL1      C21            33.4182880390      -11.2692889282       -7.4430000000  MEMB      155             0.0000000000
     17833       155  CHL1      H21A           32.3149297662      -11.1543988989       -7.3821600000  MEMB      155             0.0000000000
     17834       155  CHL1      H21B           33.6987571550      -11.7108305158       -6.4628400000  MEMB      155             0.0000000000
     17835       155  CHL1      H21C           33.6995310314      -11.9782016631       -8.2508700000  MEMB      155             0.0000000000
     17836       155  CHL1      C22            34.1748640855       -9.0956808949       -6.4113200000  MEMB      155             0.0000000000
     17837       155  CHL1      H22A           34.6806033849       -9.7165150475       -5.6411900000  MEMB      155             0.0000000000
     17838       155  CHL1      H22B           34.7687321440       -8.1631473459       -6.5209600000  MEMB      155             0.0000000000
     17839       155  CHL1      C23            32.7698574431       -8.7242875341       -5.9207000000  MEMB      155             0.0000000000
     17840       155  CHL1      H23A           32.4125648052       -7.8410341168       -6.4921400000  MEMB      155             0.0000000000
     17841       155  CHL1      H23B           32.0529215155       -9.5329134052       -6.1784900000  MEMB      155             0.0000000000
     17842       155  CHL1      C24            32.6904613793       -8.3335029606       -4.3844300000  MEMB      155             0.0000000000
     17843       155  CHL1      H24A           32.8657375539       -9.3078332050       -3.8801700000  MEMB      155             0.0000000000
     17844       155  CHL1      H24B           33.4745917891       -7.6086775814       -4.0777000000  MEMB      155             0.0000000000
     17845       155  CHL1      C25            31.3779491971       -7.8012740586       -3.8629600000  MEMB      155             0.0000000000
     17846       155  CHL1      H25            31.3532191912       -6.7203196219       -4.1183700000  MEMB      155             0.0000000000
     17847       155  CHL1      C26            30.0606033413       -8.2781936454       -4.5674400000  MEMB      155             0.0000000000
     17848       155  CHL1      H26A           29.2299870872       -7.6904895714       -4.1213300000  MEMB      155             0.0000000000
     17849       155  CHL1      H26B           29.9993448714       -8.2092254377       -5.6746100000  MEMB      155             0.0000000000
     17850       155  CHL1      H26C           30.0242597173       -9.3553690571       -4.2978700000  MEMB      155             0.0000000000
     17851       155  CHL1      C27            31.0223560543       -7.9794106673       -2.3461700000  MEMB      155             0.0000000000
     17852       155  CHL1      H27A           31.2416468279       -9.0386420888       -2.0927000000  MEMB      155             0.0000000000
     17853       155  CHL1      H27B           31.6152657905       -7.2718806886       -1.7279600000  MEMB      155             0.0000000000
     17854       155  CHL1      H27C           29.9253092212       -7.9044924998       -2.1874400000  MEMB      155             0.0000000000
     17855       156  SAPI      C12            -5.6894393465      -31.2005958389      -24.1230680451  MEMB      156             0.0000000000
     17856       156  SAPI      H2             -4.8051676552      -30.7310315628      -23.6415142545  MEMB      156             0.0000000000
     17857       156  SAPI      O2             -6.6032151432      -30.1808876720      -23.9032969888  MEMB      156             0.0000000000
     17858       156  SAPI      HO2            -6.2026909653      -29.3471761779      -24.1604064299  MEMB      156             0.0000000000
     17859       156  SAPI      C13            -5.4322114184      -31.4146939251      -25.5426762457  MEMB      156             0.0000000000
     17860       156  SAPI      H3             -4.6541610553      -32.2050381723      -25.6083621508  MEMB      156             0.0000000000
     17861       156  SAPI      O3             -5.0201765538      -30.1948239185      -26.1863730296  MEMB      156             0.0000000000
     17862       156  SAPI      HO3            -5.5495663233      -29.4969075596      -25.7936144212  MEMB      156             0.0000000000
     17863       156  SAPI      C14            -6.6879989044      -31.9064333726      -26.2002873027  MEMB      156             0.0000000000
     17864       156  SAPI      H4             -7.4499330063      -31.1011716084      -26.1272725231  MEMB      156             0.0000000000
     17865       156  SAPI      O4             -6.5976033856      -32.0577919828      -27.5994747855  MEMB      156             0.0000000000
     17866       156  SAPI      HO4            -7.2811804736      -31.5094907000      -27.9915054185  MEMB      156             0.0000000000
     17867       156  SAPI      C15            -7.2244220293      -33.2246853984      -25.5688234848  MEMB      156             0.0000000000
     17868       156  SAPI      H5             -6.4630624256      -34.0225264745      -25.7033679025  MEMB      156             0.0000000000
     17869       156  SAPI      O5             -8.4146718729      -33.5765275727      -26.2354569974  MEMB      156             0.0000000000
     17870       156  SAPI      HO5            -8.1938560547      -33.8758679236      -27.1204630237  MEMB      156             0.0000000000
     17871       156  SAPI      C16            -7.4837978451      -33.0338589872      -24.1005954324  MEMB      156             0.0000000000
     17872       156  SAPI      H6             -8.2536206498      -32.2401059556      -23.9926602618  MEMB      156             0.0000000000
     17873       156  SAPI      O6             -8.0103142879      -34.2530659867      -23.5526347708  MEMB      156             0.0000000000
     17874       156  SAPI      HO6            -7.3350997122      -34.9192051028      -23.7007700248  MEMB      156             0.0000000000
     17875       156  SAPI      C11            -6.1554302843      -32.5341042944      -23.4743241396  MEMB      156             0.0000000000
     17876       156  SAPI      H1             -5.3351234920      -33.2556463341      -23.6763015742  MEMB      156             0.0000000000
     17877       156  SAPI      P              -5.3743502980      -32.5852996843      -20.9585503166  MEMB      156             0.0000000000
     17878       156  SAPI      O13            -4.1573337724      -31.7495103839      -21.1228657251  MEMB      156             0.0000000000
     17879       156  SAPI      O14            -5.1327612053      -34.0754501223      -20.9627154854  MEMB      156             0.0000000000
     17880       156  SAPI      O12            -6.5238673882      -32.3669382127      -22.1163405440  MEMB      156             0.0000000000
     17881       156  SAPI      O11            -6.1626320629      -32.2040486274      -19.5947882029  MEMB      156             0.0000000000
     17882       156  SAPI      C1             -7.5034408927      -31.7846891388      -19.5851074400  MEMB      156             0.0000000000
     17883       156  SAPI      HA             -7.6077271585      -30.9055477749      -20.2563419833  MEMB      156             0.0000000000
     17884       156  SAPI      HB             -8.1616342287      -32.6193661248      -19.9082435939  MEMB      156             0.0000000000
     17885       156  SAPI      C2             -7.9798665254      -31.4961091850      -18.1881258775  MEMB      156             0.0000000000
     17886       156  SAPI      HS             -8.8910920840      -30.8611692573      -18.1591322656  MEMB      156             0.0000000000
     17887       156  SAPI      O21            -6.9370765290      -30.8887762108      -17.4052670141  MEMB      156             0.0000000000
     17888       156  SAPI      C21            -7.2607516359      -30.2032764444      -16.3104207012  MEMB      156             0.0000000000
     17889       156  SAPI      O22            -8.4220389734      -29.9412088808      -15.9489009322  MEMB      156             0.0000000000
     17890       156  SAPI      C22            -6.0486350675      -29.6777473728      -15.5856348979  MEMB      156             0.0000000000
     17891       156  SAPI      H2R            -5.3291301074      -30.4969935791      -15.3723996959  MEMB      156             0.0000000000
     17892       156  SAPI      H2S            -5.4721488583      -28.8237125345      -16.0010972155  MEMB      156             0.0000000000
     17893       156  SAPI      C3             -8.3990308171      -32.8070794465      -17.4715064074  MEMB      156             0.0000000000
     17894       156  SAPI      HX             -9.3512240249      -33.0300479006      -17.9987008164  MEMB      156             0.0000000000
     17895       156  SAPI      HY             -8.7028005611      -32.7052353338      -16.4077054768  MEMB      156             0.0000000000
     17896       156  SAPI      O31            -7.3720095818      -33.8488741765      -17.5787979530  MEMB      156             0.0000000000
     17897       156  SAPI      C31            -7.8596087951      -35.0921075935      -17.7934755655  MEMB      156             0.0000000000
     17898       156  SAPI      O32            -9.0195565721      -35.3741105959      -17.9438775622  MEMB      156             0.0000000000
     17899       156  SAPI      C32            -6.5607879093      -35.9359411999      -17.9606783623  MEMB      156             0.0000000000
     17900       156  SAPI      H2X            -5.7010730841      -35.3306319891      -18.3195827881  MEMB      156             0.0000000000
     17901       156  SAPI      H2Y            -6.7838991737      -36.6676064462      -18.7664129300  MEMB      156             0.0000000000
     17902       156  SAPI      C23            -6.6099031981      -29.3135719006      -14.2709295712  MEMB      156             0.0000000000
     17903       156  SAPI      H3R            -7.4008503228      -29.8651809383      -13.7191587344  MEMB      156             0.0000000000
     17904       156  SAPI      H3S            -7.1453114117      -28.3421084145      -14.3335176866  MEMB      156             0.0000000000
     17905       156  SAPI      C24            -5.5310553898      -29.1777998349      -13.2197672691  MEMB      156             0.0000000000
     17906       156  SAPI      H4R            -5.9235686656      -28.7941214108      -12.2538248203  MEMB      156             0.0000000000
     17907       156  SAPI      H4S            -4.8147345919      -28.3630022851      -13.4591623339  MEMB      156             0.0000000000
     17908       156  SAPI      C25            -4.7551084530      -30.4464552044      -12.8355675686  MEMB      156             0.0000000000
     17909       156  SAPI      H5R            -4.8064597098      -31.3124990210      -13.5118302251  MEMB      156             0.0000000000
     17910       156  SAPI      C26            -4.0748076869      -30.6134576200      -11.6126417763  MEMB      156             0.0000000000
     17911       156  SAPI      H6R            -3.5176806352      -31.5461868041      -11.4405210715  MEMB      156             0.0000000000
     17912       156  SAPI      C27            -3.9639102217      -29.6165650251      -10.4575330127  MEMB      156             0.0000000000
     17913       156  SAPI      H7R            -4.1047213223      -28.5600364778      -10.7709662234  MEMB      156             0.0000000000
     17914       156  SAPI      H7S            -2.9124295789      -29.7435985452      -10.1220159337  MEMB      156             0.0000000000
     17915       156  SAPI      C28            -4.9285205949      -29.9842553435       -9.3649928542  MEMB      156             0.0000000000
     17916       156  SAPI      H8R            -5.7615718109      -29.2942106769       -9.1653335204  MEMB      156             0.0000000000
     17917       156  SAPI      C29            -4.8666837450      -31.0213748217       -8.5465668649  MEMB      156             0.0000000000
     17918       156  SAPI      H9R            -5.7291211680      -31.1332123279       -7.8729988617  MEMB      156             0.0000000000
     17919       156  SAPI      C210           -3.9266728598      -32.1039735246       -8.4120223200  MEMB      156             0.0000000000
     17920       156  SAPI      H10R           -3.8027875640      -32.2194423660       -7.3140054882  MEMB      156             0.0000000000
     17921       156  SAPI      H10S           -2.9051152261      -31.8671555033       -8.7789798026  MEMB      156             0.0000000000
     17922       156  SAPI      C211           -4.3743128704      -33.5004487131       -8.8844864717  MEMB      156             0.0000000000
     17923       156  SAPI      H11R           -4.1595949204      -33.7206479783       -9.9406161946  MEMB      156             0.0000000000
     17924       156  SAPI      C212           -4.9878758440      -34.4427082754       -8.1037115027  MEMB      156             0.0000000000
     17925       156  SAPI      H12R           -5.4646264559      -35.2553136826       -8.6714976874  MEMB      156             0.0000000000
     17926       156  SAPI      C213           -5.2496579624      -34.2405639620       -6.6023669434  MEMB      156             0.0000000000
     17927       156  SAPI      H13R           -6.2530371564      -34.5619989553       -6.2499031496  MEMB      156             0.0000000000
     17928       156  SAPI      H13S           -5.2294688179      -33.2134257882       -6.1794008246  MEMB      156             0.0000000000
     17929       156  SAPI      C214           -4.1208825846      -35.1029588847       -5.9956281496  MEMB      156             0.0000000000
     17930       156  SAPI      H14R           -4.2599019290      -36.1585693765       -6.2719611211  MEMB      156             0.0000000000
     17931       156  SAPI      C215           -3.1072853255      -34.7093761543       -5.2495860243  MEMB      156             0.0000000000
     17932       156  SAPI      H15R           -2.6202767201      -35.5003099616       -4.6603101572  MEMB      156             0.0000000000
     17933       156  SAPI      C216           -2.7657602848      -33.3320944287       -4.7157182995  MEMB      156             0.0000000000
     17934       156  SAPI      H16R           -2.7526479064      -32.6007491437       -5.5519497757  MEMB      156             0.0000000000
     17935       156  SAPI      H16S           -1.7068917067      -33.3961964245       -4.3855526496  MEMB      156             0.0000000000
     17936       156  SAPI      C217           -3.5332894227      -32.8487617777       -3.3977870536  MEMB      156             0.0000000000
     17937       156  SAPI      H17R           -4.6292135634      -33.0309165517       -3.4073152942  MEMB      156             0.0000000000
     17938       156  SAPI      H17S           -3.3242806678      -31.7624873598       -3.5009557452  MEMB      156             0.0000000000
     17939       156  SAPI      C218           -2.9002379159      -33.3279905658       -2.0687016710  MEMB      156             0.0000000000
     17940       156  SAPI      H18R           -2.1954963480      -32.6327199559       -1.5644612941  MEMB      156             0.0000000000
     17941       156  SAPI      H18S           -2.4310806746      -34.3331891134       -2.1302512064  MEMB      156             0.0000000000
     17942       156  SAPI      C219           -4.0456390400      -33.5370044363       -1.0404179327  MEMB      156             0.0000000000
     17943       156  SAPI      H19R           -4.5359835531      -34.5198087188       -1.2076867638  MEMB      156             0.0000000000
     17944       156  SAPI      H19S           -4.8659916503      -32.7923219868       -1.1228220475  MEMB      156             0.0000000000
     17945       156  SAPI      C220           -3.7439305617      -33.6513248111        0.4800794283  MEMB      156             0.0000000000
     17946       156  SAPI      H20R           -3.2467492310      -32.7953959410        0.9845771247  MEMB      156             0.0000000000
     17947       156  SAPI      H20S           -3.0777672736      -34.5292685635        0.6206588655  MEMB      156             0.0000000000
     17948       156  SAPI      H20T           -4.7513154872      -33.8121498862        0.9201157996  MEMB      156             0.0000000000
     17949       156  SAPI      C33            -6.1081954607      -36.5017275233      -16.5856522327  MEMB      156             0.0000000000
     17950       156  SAPI      H3X            -5.4935716024      -37.4272098348      -16.5920584815  MEMB      156             0.0000000000
     17951       156  SAPI      H3Y            -7.0099307456      -36.8887573274      -16.0646893222  MEMB      156             0.0000000000
     17952       156  SAPI      C34            -5.3096640381      -35.4461340770      -15.7894078838  MEMB      156             0.0000000000
     17953       156  SAPI      H4X            -5.6345823214      -34.4764086735      -16.2234373675  MEMB      156             0.0000000000
     17954       156  SAPI      H4Y            -4.2030601515      -35.5346892748      -15.8330768961  MEMB      156             0.0000000000
     17955       156  SAPI      C35            -5.6582777675      -35.5203020641      -14.2855576091  MEMB      156             0.0000000000
     17956       156  SAPI      H5X            -4.7006045924      -35.2648240627      -13.7836472927  MEMB      156             0.0000000000
     17957       156  SAPI      H5Y            -5.9087911578      -36.5403408793      -13.9235010563  MEMB      156             0.0000000000
     17958       156  SAPI      C36            -6.8617258985      -34.6034141390      -14.0082881645  MEMB      156             0.0000000000
     17959       156  SAPI      H6X            -7.8037178471      -35.0636963314      -14.3758641825  MEMB      156             0.0000000000
     17960       156  SAPI      H6Y            -6.8056795818      -33.5966830568      -14.4748419887  MEMB      156             0.0000000000
     17961       156  SAPI      C37            -7.1337718573      -34.4798158314      -12.4736612547  MEMB      156             0.0000000000
     17962       156  SAPI      H7X            -6.1745333772      -34.3915920963      -11.9201280811  MEMB      156             0.0000000000
     17963       156  SAPI      H7Y            -7.6116037625      -35.4532050592      -12.2317707095  MEMB      156             0.0000000000
     17964       156  SAPI      C38            -7.9460720253      -33.2627086581      -12.1406018747  MEMB      156             0.0000000000
     17965       156  SAPI      H8X            -8.8218342460      -33.1503636364      -12.8149463844  MEMB      156             0.0000000000
     17966       156  SAPI      H8Y            -7.4553542507      -32.2883430609      -12.3506705421  MEMB      156             0.0000000000
     17967       156  SAPI      C39            -8.5317886036      -33.2204153258      -10.7530575820  MEMB      156             0.0000000000
     17968       156  SAPI      H9X            -7.7667288303      -33.4767004134       -9.9893017939  MEMB      156             0.0000000000
     17969       156  SAPI      H9Y            -9.1755898303      -34.1247307574      -10.7077296219  MEMB      156             0.0000000000
     17970       156  SAPI      C310           -9.3033151637      -31.9282752891      -10.4186744416  MEMB      156             0.0000000000
     17971       156  SAPI      H10X          -10.3473642295      -32.0112616547      -10.7893446213  MEMB      156             0.0000000000
     17972       156  SAPI      H10Y           -8.8173019013      -31.1184742616      -11.0037683182  MEMB      156             0.0000000000
     17973       156  SAPI      C311           -9.2737144932      -31.6021415176       -8.9245407409  MEMB      156             0.0000000000
     17974       156  SAPI      H11X           -9.7914048249      -30.6583972617       -8.6494689606  MEMB      156             0.0000000000
     17975       156  SAPI      H11Y           -8.2220081723      -31.4637905688       -8.5942469673  MEMB      156             0.0000000000
     17976       156  SAPI      C312           -9.8873225648      -32.7599688638       -8.0491109336  MEMB      156             0.0000000000
     17977       156  SAPI      H12X           -9.2686228613      -33.6819296162       -8.0880968235  MEMB      156             0.0000000000
     17978       156  SAPI      H12Y          -10.8214261988      -33.1667904693       -8.4921316170  MEMB      156             0.0000000000
     17979       156  SAPI      C313           -9.9808352743      -32.4258346002       -6.5753467407  MEMB      156             0.0000000000
     17980       156  SAPI      H13X          -10.4650288683      -33.2444832551       -6.0011591245  MEMB      156             0.0000000000
     17981       156  SAPI      H13Y          -10.7087434843      -31.5867449362       -6.5953264785  MEMB      156             0.0000000000
     17982       156  SAPI      C314           -8.6792643616      -31.9760467712       -5.9847566064  MEMB      156             0.0000000000
     17983       156  SAPI      H14X           -8.2000069614      -31.1213791303       -6.5083753488  MEMB      156             0.0000000000
     17984       156  SAPI      H14Y           -7.9949934531      -32.8316837130       -6.1690929139  MEMB      156             0.0000000000
     17985       156  SAPI      C315           -8.6754682163      -31.7952936421       -4.4367691167  MEMB      156             0.0000000000
     17986       156  SAPI      H15X           -9.6161413877      -31.2503016364       -4.2077750476  MEMB      156             0.0000000000
     17987       156  SAPI      H15Y           -7.8158462886      -31.2550608545       -3.9856380777  MEMB      156             0.0000000000
     17988       156  SAPI      C316           -8.8657786128      -33.1031451790       -3.6011784460  MEMB      156             0.0000000000
     17989       156  SAPI      H16X           -9.6851358030      -33.6713344461       -4.0912147610  MEMB      156             0.0000000000
     17990       156  SAPI      H16Y           -9.1205153834      -32.9366795643       -2.5326642664  MEMB      156             0.0000000000
     17991       156  SAPI      C317           -7.6400448152      -33.9843153797       -3.4590355620  MEMB      156             0.0000000000
     17992       156  SAPI      H17X           -6.7957248209      -33.3341318073       -3.1448604221  MEMB      156             0.0000000000
     17993       156  SAPI      H17Y           -7.4234493691      -34.4712340675       -4.4338790702  MEMB      156             0.0000000000
     17994       156  SAPI      C318           -7.7507621938      -35.0432394978       -2.4231028062  MEMB      156             0.0000000000
     17995       156  SAPI      H18X           -6.8933592164      -35.7497558117       -2.4270825658  MEMB      156             0.0000000000
     17996       156  SAPI      H18Y           -8.7242088255      -35.5718618815       -2.5084305397  MEMB      156             0.0000000000
     17997       156  SAPI      H18Z           -7.7709877023      -34.5343466212       -1.4357125656  MEMB      156             0.0000000000
     17998       157  SAPE      N              -1.3246758135       33.6906420149      -18.3360014501  MEMB      157             0.0000000000
     17999       157  SAPE      HN1            -1.1812797178       34.6080271195      -18.8044481493  MEMB      157             0.0000000000
     18000       157  SAPE      HN2            -1.6435322507       33.8488219321      -17.3588067382  MEMB      157             0.0000000000
     18001       157  SAPE      HN3            -0.4929900189       33.0940865173      -18.1515557280  MEMB      157             0.0000000000
     18002       157  SAPE      C12            -2.2139822147       32.7725370629      -19.0820909169  MEMB      157             0.0000000000
     18003       157  SAPE      H12A           -2.0339451230       31.7199223616      -18.7756436864  MEMB      157             0.0000000000
     18004       157  SAPE      H12B           -1.8233483266       32.8658709416      -20.1179552855  MEMB      157             0.0000000000
     18005       157  SAPE      C11            -3.6253318742       33.3470629231      -19.0721773084  MEMB      157             0.0000000000
     18006       157  SAPE      H11A           -3.4399026221       34.2729015586      -19.6576343285  MEMB      157             0.0000000000
     18007       157  SAPE      H11B           -3.9331093946       33.7051167064      -18.0664977042  MEMB      157             0.0000000000
     18008       157  SAPE      P              -5.6086956004       33.1756857584      -20.7725269215  MEMB      157             0.0000000000
     18009       157  SAPE      O13            -4.8756926861       34.0424458606      -21.7381652096  MEMB      157             0.0000000000
     18010       157  SAPE      O14            -6.4516211539       32.1520161444      -21.4145716406  MEMB      157             0.0000000000
     18011       157  SAPE      O12            -4.5840678021       32.5177354494      -19.7619110131  MEMB      157             0.0000000000
     18012       157  SAPE      O11            -6.4328256554       34.0156659826      -19.8225555278  MEMB      157             0.0000000000
     18013       157  SAPE      C1             -6.9950145651       33.4329541289      -18.6139733571  MEMB      157             0.0000000000
     18014       157  SAPE      HA             -7.9977252804       33.0356518294      -18.8805130489  MEMB      157             0.0000000000
     18015       157  SAPE      HB             -6.3258895135       32.6291293021      -18.2391957390  MEMB      157             0.0000000000
     18016       157  SAPE      C2             -7.1431558434       34.5141122886      -17.5742474888  MEMB      157             0.0000000000
     18017       157  SAPE      HS             -7.5958458874       35.3638515016      -18.1286262589  MEMB      157             0.0000000000
     18018       157  SAPE      O21            -5.8411638968       34.8112325131      -17.0484786515  MEMB      157             0.0000000000
     18019       157  SAPE      C21            -5.8340113871       36.0062451497      -16.4452142694  MEMB      157             0.0000000000
     18020       157  SAPE      O22            -6.7543680652       36.7800019568      -16.2608427451  MEMB      157             0.0000000000
     18021       157  SAPE      C22            -4.4408046193       36.3882285887      -16.0751117240  MEMB      157             0.0000000000
     18022       157  SAPE      H2R            -3.8611073940       35.7969078330      -16.8157950948  MEMB      157             0.0000000000
     18023       157  SAPE      H2S            -4.3199885781       37.4755661522      -16.2685576922  MEMB      157             0.0000000000
     18024       157  SAPE      C3             -8.1174752375       34.0196234676      -16.4919460495  MEMB      157             0.0000000000
     18025       157  SAPE      HX             -9.1228922368       34.0321420393      -16.9644935724  MEMB      157             0.0000000000
     18026       157  SAPE      HY             -8.1861361882       34.7313852107      -15.6416511453  MEMB      157             0.0000000000
     18027       157  SAPE      O31            -7.9060949278       32.7390728768      -16.0906763405  MEMB      157             0.0000000000
     18028       157  SAPE      C31            -7.1092557339       32.5201113861      -15.0712440941  MEMB      157             0.0000000000
     18029       157  SAPE      O32            -6.5533351679       33.3378528783      -14.4526798227  MEMB      157             0.0000000000
     18030       157  SAPE      C32            -6.9740067525       31.0358426660      -14.9705785924  MEMB      157             0.0000000000
     18031       157  SAPE      H2X            -6.4317384481       30.4771948412      -15.7631558297  MEMB      157             0.0000000000
     18032       157  SAPE      H2Y            -8.0153081863       30.6485595656      -14.9754549091  MEMB      157             0.0000000000
     18033       157  SAPE      C23            -4.1017935257       35.8864718148      -14.6759242703  MEMB      157             0.0000000000
     18034       157  SAPE      H3R            -4.1916912471       34.7791193803      -14.6727776397  MEMB      157             0.0000000000
     18035       157  SAPE      H3S            -4.7548604050       36.1996737425      -13.8334700412  MEMB      157             0.0000000000
     18036       157  SAPE      C24            -2.5920402738       36.0441810291      -14.4523345044  MEMB      157             0.0000000000
     18037       157  SAPE      H4R            -2.3836353968       37.1286304199      -14.3304421865  MEMB      157             0.0000000000
     18038       157  SAPE      H4S            -2.1565851603       35.7893911726      -15.4421738643  MEMB      157             0.0000000000
     18039       157  SAPE      C25            -1.8219280479       35.2962072223      -13.3771487397  MEMB      157             0.0000000000
     18040       157  SAPE      H5R            -1.2642258933       34.4222493091      -13.7447982440  MEMB      157             0.0000000000
     18041       157  SAPE      C26            -1.8971171657       35.5376841325      -12.0420377168  MEMB      157             0.0000000000
     18042       157  SAPE      H6R            -1.2788577277       34.8955621156      -11.3974957480  MEMB      157             0.0000000000
     18043       157  SAPE      C27            -2.7097417997       36.6281831929      -11.3815516603  MEMB      157             0.0000000000
     18044       157  SAPE      H7R            -2.8795565405       37.4391958591      -12.1216478937  MEMB      157             0.0000000000
     18045       157  SAPE      H7S            -2.0801474104       37.0520543819      -10.5702168633  MEMB      157             0.0000000000
     18046       157  SAPE      C28            -3.8956739535       36.0389594571      -10.6360778323  MEMB      157             0.0000000000
     18047       157  SAPE      H8R            -4.3576575725       35.1562729142      -11.1023785539  MEMB      157             0.0000000000
     18048       157  SAPE      C29            -4.3168859289       36.5392229362       -9.4677286020  MEMB      157             0.0000000000
     18049       157  SAPE      H9R            -5.2044632747       36.0857804989       -9.0023292606  MEMB      157             0.0000000000
     18050       157  SAPE      C210           -3.7848928867       37.7486616780       -8.6919124446  MEMB      157             0.0000000000
     18051       157  SAPE      H10R           -4.6766123711       38.3884219823       -8.5191002908  MEMB      157             0.0000000000
     18052       157  SAPE      H10S           -3.1530214346       38.4412080848       -9.2880998556  MEMB      157             0.0000000000
     18053       157  SAPE      C211           -2.9469177754       37.4027842469       -7.4157762288  MEMB      157             0.0000000000
     18054       157  SAPE      H11R           -1.8809913176       37.4721202472       -7.6784419413  MEMB      157             0.0000000000
     18055       157  SAPE      C212           -3.3006127181       37.0423041753       -6.1377494881  MEMB      157             0.0000000000
     18056       157  SAPE      H12R           -2.5797524569       36.8860493692       -5.3216950538  MEMB      157             0.0000000000
     18057       157  SAPE      C213           -4.7006422431       36.9268897830       -5.6134927405  MEMB      157             0.0000000000
     18058       157  SAPE      H13R           -5.2320725321       37.6541787901       -6.2638409660  MEMB      157             0.0000000000
     18059       157  SAPE      H13S           -4.7356126310       37.3974203093       -4.6076595333  MEMB      157             0.0000000000
     18060       157  SAPE      C214           -5.3545021262       35.5499234303       -5.5865427401  MEMB      157             0.0000000000
     18061       157  SAPE      H14R           -5.3869404881       34.9653570962       -6.5177949333  MEMB      157             0.0000000000
     18062       157  SAPE      C215           -5.9482648030       35.0526895080       -4.4995909542  MEMB      157             0.0000000000
     18063       157  SAPE      H15R           -6.2738396828       34.0020095590       -4.4910683650  MEMB      157             0.0000000000
     18064       157  SAPE      C216           -6.1667284217       35.6257901245       -3.1515458086  MEMB      157             0.0000000000
     18065       157  SAPE      H16R           -5.9921287727       36.7111840306       -2.9910584105  MEMB      157             0.0000000000
     18066       157  SAPE      H16S           -5.4486745834       35.0824347851       -2.5007877010  MEMB      157             0.0000000000
     18067       157  SAPE      C217           -7.5497490635       35.3339763357       -2.4741263653  MEMB      157             0.0000000000
     18068       157  SAPE      H17R           -7.7082432419       34.2409509937       -2.3537256553  MEMB      157             0.0000000000
     18069       157  SAPE      H17S           -8.2754756463       35.9015273418       -3.0950344305  MEMB      157             0.0000000000
     18070       157  SAPE      C218           -7.5962142326       35.8488759633       -1.0355123167  MEMB      157             0.0000000000
     18071       157  SAPE      H18R           -7.5370824955       36.9517750315       -0.9153537467  MEMB      157             0.0000000000
     18072       157  SAPE      H18S           -6.7686786031       35.2711402403       -0.5710483391  MEMB      157             0.0000000000
     18073       157  SAPE      C219           -8.8960692372       35.3555400429       -0.3276751805  MEMB      157             0.0000000000
     18074       157  SAPE      H19R           -9.1239147140       34.3483055293       -0.7374141709  MEMB      157             0.0000000000
     18075       157  SAPE      H19S           -9.7333317792       36.0323872546       -0.6018839395  MEMB      157             0.0000000000
     18076       157  SAPE      C220           -8.7289525664       35.2696378862        1.1821549651  MEMB      157             0.0000000000
     18077       157  SAPE      H20R           -9.6683991340       34.9093784549        1.6532967667  MEMB      157             0.0000000000
     18078       157  SAPE      H20S           -8.6815667139       36.2230891656        1.7504924945  MEMB      157             0.0000000000
     18079       157  SAPE      H20T           -7.7970763946       34.7134190786        1.4199544333  MEMB      157             0.0000000000
     18080       157  SAPE      C33            -6.3582091514       30.5195450424      -13.6440771842  MEMB      157             0.0000000000
     18081       157  SAPE      H3X            -6.6785850829       29.5053941837      -13.3228639181  MEMB      157             0.0000000000
     18082       157  SAPE      H3Y            -6.5651352692       31.1888024360      -12.7817564902  MEMB      157             0.0000000000
     18083       157  SAPE      C34            -4.7794931117       30.4180692018      -13.7797795058  MEMB      157             0.0000000000
     18084       157  SAPE      H4X            -4.3797239635       31.3791576211      -14.1681277412  MEMB      157             0.0000000000
     18085       157  SAPE      H4Y            -4.4538434276       29.6006537832      -14.4580901248  MEMB      157             0.0000000000
     18086       157  SAPE      C35            -4.0426217950       30.0193848535      -12.4780387651  MEMB      157             0.0000000000
     18087       157  SAPE      H5X            -3.0413554512       29.7203466674      -12.8553483019  MEMB      157             0.0000000000
     18088       157  SAPE      H5Y            -4.5084682253       29.1399705710      -11.9841369158  MEMB      157             0.0000000000
     18089       157  SAPE      C36            -4.0091817661       31.1540121424      -11.4009037582  MEMB      157             0.0000000000
     18090       157  SAPE      H6X            -4.8434703653       31.1538567112      -10.6672249356  MEMB      157             0.0000000000
     18091       157  SAPE      H6Y            -4.0089992443       32.1054150932      -11.9746223405  MEMB      157             0.0000000000
     18092       157  SAPE      C37            -2.7879593113       31.1265010453      -10.4607249704  MEMB      157             0.0000000000
     18093       157  SAPE      H7X            -1.9040082025       31.3933354378      -11.0785848837  MEMB      157             0.0000000000
     18094       157  SAPE      H7Y            -2.6574359639       30.1638504423       -9.9216623367  MEMB      157             0.0000000000
     18095       157  SAPE      C38            -2.8357730771       32.1833209383       -9.3263154550  MEMB      157             0.0000000000
     18096       157  SAPE      H8X            -3.5325841021       32.0215606288       -8.4762516272  MEMB      157             0.0000000000
     18097       157  SAPE      H8Y            -3.1364537320       33.0944320708       -9.8864844238  MEMB      157             0.0000000000
     18098       157  SAPE      C39            -1.5103341746       32.4828335688       -8.6718647664  MEMB      157             0.0000000000
     18099       157  SAPE      H9X            -1.0480002405       33.4338873747       -9.0125475607  MEMB      157             0.0000000000
     18100       157  SAPE      H9Y            -0.7784506504       31.7500551995       -9.0739882399  MEMB      157             0.0000000000
     18101       157  SAPE      C310           -1.6024810779       32.4266000256       -7.1544991167  MEMB      157             0.0000000000
     18102       157  SAPE      H10X           -0.5887794840       32.4667455021       -6.7015997417  MEMB      157             0.0000000000
     18103       157  SAPE      H10Y           -2.0039693105       31.4301010599       -6.8714480350  MEMB      157             0.0000000000
     18104       157  SAPE      C311           -2.3969513975       33.5571982498       -6.4216721897  MEMB      157             0.0000000000
     18105       157  SAPE      H11X           -3.4471149680       33.4618955798       -6.7715209739  MEMB      157             0.0000000000
     18106       157  SAPE      H11Y           -2.0119057170       34.5306206317       -6.7938408943  MEMB      157             0.0000000000
     18107       157  SAPE      C312           -2.2715306944       33.4662740477       -4.9020325122  MEMB      157             0.0000000000
     18108       157  SAPE      H12X           -2.5381266937       34.5136450851       -4.6446190524  MEMB      157             0.0000000000
     18109       157  SAPE      H12Y           -1.2571780422       33.2115811926       -4.5271442564  MEMB      157             0.0000000000
     18110       157  SAPE      C313           -3.3661873168       32.4978513725       -4.2541828667  MEMB      157             0.0000000000
     18111       157  SAPE      H13X           -3.1350537162       31.5213751738       -4.7310401909  MEMB      157             0.0000000000
     18112       157  SAPE      H13Y           -4.3950790385       32.8433478798       -4.4915334270  MEMB      157             0.0000000000
     18113       157  SAPE      C314           -3.0526302623       32.2357810216       -2.7780069984  MEMB      157             0.0000000000
     18114       157  SAPE      H14X           -3.3628876152       33.1271556169       -2.1919066973  MEMB      157             0.0000000000
     18115       157  SAPE      H14Y           -1.9669842695       32.2588324330       -2.5431386548  MEMB      157             0.0000000000
     18116       157  SAPE      C315           -3.5381043752       30.9263918733       -2.2134065826  MEMB      157             0.0000000000
     18117       157  SAPE      H15X           -3.3522181755       30.7446982001       -1.1332419725  MEMB      157             0.0000000000
     18118       157  SAPE      H15Y           -2.8819904359       30.2200641923       -2.7656170399  MEMB      157             0.0000000000
     18119       157  SAPE      C316           -5.0732976390       30.7232410736       -2.3636884140  MEMB      157             0.0000000000
     18120       157  SAPE      H16X           -5.2985016213       29.7146695199       -1.9557824186  MEMB      157             0.0000000000
     18121       157  SAPE      H16Y           -5.3813556749       30.6665605307       -3.4296206962  MEMB      157             0.0000000000
     18122       157  SAPE      C317           -5.9660671863       31.8556383133       -1.7824578561  MEMB      157             0.0000000000
     18123       157  SAPE      H17X           -6.9946144410       31.7173263599       -2.1790447760  MEMB      157             0.0000000000
     18124       157  SAPE      H17Y           -5.6334436879       32.8069920557       -2.2500136823  MEMB      157             0.0000000000
     18125       157  SAPE      C318           -6.1788916526       32.0885587066       -0.3257262787  MEMB      157             0.0000000000
     18126       157  SAPE      H18X           -6.5874207081       33.1099702827       -0.1703442212  MEMB      157             0.0000000000
     18127       157  SAPE      H18Y           -5.1770956853       32.1619550284        0.1489732502  MEMB      157             0.0000000000
     18128       157  SAPE      H18Z           -6.8666648367       31.3668944516        0.1646722716  MEMB      157             0.0000000000
     18129       158  OSM       N              20.6441422973       29.1425919680      -21.2476198295  MEMB      158             0.0000000000
     18130       158  OSM       C15            21.8924644763       30.0158635573      -21.0163430138  MEMB      158             0.0000000000
     18131       158  OSM       H15A           21.7936738925       30.8613402980      -21.6810303706  MEMB      158             0.0000000000
     18132       158  OSM       H15B           22.7064746652       29.3566546160      -21.2794608697  MEMB      158             0.0000000000
     18133       158  OSM       H15C           21.8921059220       30.3268323354      -19.9820808262  MEMB      158             0.0000000000
     18134       158  OSM       C14            19.4202627022       30.0094156511      -20.9526950795  MEMB      158             0.0000000000
     18135       158  OSM       H14A           18.5714135984       29.3766699211      -21.1659747924  MEMB      158             0.0000000000
     18136       158  OSM       H14B           19.4542758549       30.8298106447      -21.6542612482  MEMB      158             0.0000000000
     18137       158  OSM       H14C           19.5052670173       30.2682056782      -19.9076104344  MEMB      158             0.0000000000
     18138       158  OSM       C13            20.6529146919       28.8312539464      -22.6888329135  MEMB      158             0.0000000000
     18139       158  OSM       H13A           21.6655262128       28.6494062953      -23.0173896600  MEMB      158             0.0000000000
     18140       158  OSM       H13B           20.0739056333       29.5130171925      -23.2940993233  MEMB      158             0.0000000000
     18141       158  OSM       H13C           20.2430475534       27.8360733401      -22.7784118990  MEMB      158             0.0000000000
     18142       158  OSM       C12            20.6434632255       27.9699292877      -20.4293223538  MEMB      158             0.0000000000
     18143       158  OSM       H12A           20.2657071915       28.3159817269      -19.4785604583  MEMB      158             0.0000000000
     18144       158  OSM       H12B           21.6440371567       27.5671427945      -20.3744138205  MEMB      158             0.0000000000
     18145       158  OSM       C11            19.7094981812       26.8821599613      -20.7701427884  MEMB      158             0.0000000000
     18146       158  OSM       H11A           19.8379098965       26.2057034025      -19.8982265500  MEMB      158             0.0000000000
     18147       158  OSM       H11B           20.1360611827       26.4137354380      -21.6828001898  MEMB      158             0.0000000000
     18148       158  OSM       P              17.3076506400       26.1982348776      -20.7974021938  MEMB      158             0.0000000000
     18149       158  OSM       O13            15.9984061463       26.7744350637      -21.1486012413  MEMB      158             0.0000000000
     18150       158  OSM       O14            17.6724231876       25.0497199288      -21.6717711878  MEMB      158             0.0000000000
     18151       158  OSM       O11            17.3887256620       25.7624695370      -19.3443388707  MEMB      158             0.0000000000
     18152       158  OSM       O12            18.3743193721       27.3601176277      -20.9329305298  MEMB      158             0.0000000000
     18153       158  OSM       C1S            16.9100969130       26.5048288631      -18.2503271508  MEMB      158             0.0000000000
     18154       158  OSM       H1S            15.8090420514       26.3642445974      -18.2976073936  MEMB      158             0.0000000000
     18155       158  OSM       H1T            17.1315792499       27.5935280565      -18.2495735888  MEMB      158             0.0000000000
     18156       158  OSM       NF             17.0116527873       26.7679564938      -15.9212407905  MEMB      158             0.0000000000
     18157       158  OSM       HNF            17.7824771094       27.3387100735      -15.6490654161  MEMB      158             0.0000000000
     18158       158  OSM       C2S            17.2910958387       25.8247419544      -16.8953031449  MEMB      158             0.0000000000
     18159       158  OSM       H2S            16.5469977981       25.0213023033      -16.7078907211  MEMB      158             0.0000000000
     18160       158  OSM       C3S            18.7987249714       25.4157461020      -16.8792939978  MEMB      158             0.0000000000
     18161       158  OSM       H3S            19.3679666296       26.2778480083      -17.2880301123  MEMB      158             0.0000000000
     18162       158  OSM       O3             19.1473780992       24.2822744920      -17.7412002248  MEMB      158             0.0000000000
     18163       158  OSM       HO3            18.2992457012       24.0272645157      -18.1116611407  MEMB      158             0.0000000000
     18164       158  OSM       C4S            19.1947520224       25.1793909880      -15.3828985416  MEMB      158             0.0000000000
     18165       158  OSM       H4S            19.8383580479       25.9651634028      -14.9606034799  MEMB      158             0.0000000000
     18166       158  OSM       C5S            18.8319633773       24.0873951254      -14.6304735881  MEMB      158             0.0000000000
     18167       158  OSM       H5S            18.2900894959       23.3197060165      -15.2023354950  MEMB      158             0.0000000000
     18168       158  OSM       C6S            19.2390164333       23.8384092734      -13.1779045462  MEMB      158             0.0000000000
     18169       158  OSM       H6S            20.3074536036       23.5346217062      -13.1560821793  MEMB      158             0.0000000000
     18170       158  OSM       H6T            18.5430315598       23.0488358306      -12.8222365692  MEMB      158             0.0000000000
     18171       158  OSM       C7S            19.1290982457       24.9765068430      -12.1640821804  MEMB      158             0.0000000000
     18172       158  OSM       H7S            18.0863468747       25.3572734082      -12.1192771453  MEMB      158             0.0000000000
     18173       158  OSM       H7T            19.8560388815       25.7437871768      -12.5063672863  MEMB      158             0.0000000000
     18174       158  OSM       C8S            19.4215500132       24.3917142635      -10.7423009522  MEMB      158             0.0000000000
     18175       158  OSM       H8S            20.4307051412       23.9296340871      -10.7913829125  MEMB      158             0.0000000000
     18176       158  OSM       H8T            18.7141274804       23.5411922419      -10.6398979575  MEMB      158             0.0000000000
     18177       158  OSM       C9S            19.4179616246       25.5132561966       -9.6776247884  MEMB      158             0.0000000000
     18178       158  OSM       H9S            18.4459074270       26.0003318067       -9.9060733891  MEMB      158             0.0000000000
     18179       158  OSM       H9T            20.1854006988       26.3026382388       -9.8267358461  MEMB      158             0.0000000000
     18180       158  OSM       C10S           19.4853384915       24.9442281403       -8.2310069725  MEMB      158             0.0000000000
     18181       158  OSM       H10S           20.4231614683       25.3536904646       -7.7983984806  MEMB      158             0.0000000000
     18182       158  OSM       H10T           19.5114760642       23.8363427999       -8.3099251799  MEMB      158             0.0000000000
     18183       158  OSM       C11S           18.4415549930       25.5830966337       -7.2305630972  MEMB      158             0.0000000000
     18184       158  OSM       H11S           17.3755725076       25.3607499920       -7.4509358805  MEMB      158             0.0000000000
     18185       158  OSM       H11T           18.5691110089       26.6733489081       -7.4020284786  MEMB      158             0.0000000000
     18186       158  OSM       C12S           18.5624999548       25.3033229752       -5.7121035087  MEMB      158             0.0000000000
     18187       158  OSM       H12S           19.5547140374       25.7555638751       -5.4992418631  MEMB      158             0.0000000000
     18188       158  OSM       H12T           18.5223902339       24.2063668790       -5.5406408027  MEMB      158             0.0000000000
     18189       158  OSM       C13S           17.4398493743       25.9109375473       -4.8555392423  MEMB      158             0.0000000000
     18190       158  OSM       H13S           16.4320839795       25.7788468836       -5.3041835826  MEMB      158             0.0000000000
     18191       158  OSM       H13T           17.5615991110       27.0150707709       -4.8358399310  MEMB      158             0.0000000000
     18192       158  OSM       C14S           17.3556992824       25.4770244297       -3.3274717707  MEMB      158             0.0000000000
     18193       158  OSM       H14S           16.8532718398       24.4910051547       -3.2292178294  MEMB      158             0.0000000000
     18194       158  OSM       H14T           16.7792134097       26.3244835904       -2.8987533714  MEMB      158             0.0000000000
     18195       158  OSM       C15S           18.7251150236       25.3951699273       -2.5978142852  MEMB      158             0.0000000000
     18196       158  OSM       H15S           19.3456107860       24.5661460576       -3.0003396313  MEMB      158             0.0000000000
     18197       158  OSM       H15T           18.5331700379       25.0824416176       -1.5491584030  MEMB      158             0.0000000000
     18198       158  OSM       C16S           19.5490554490       26.6559634711       -2.5811986211  MEMB      158             0.0000000000
     18199       158  OSM       H16S           19.0012634387       27.4648329915       -2.0520732111  MEMB      158             0.0000000000
     18200       158  OSM       H16T           19.7524873348       26.8506470262       -3.6559246106  MEMB      158             0.0000000000
     18201       158  OSM       C17S           20.9477184586       26.5528514481       -1.8869230325  MEMB      158             0.0000000000
     18202       158  OSM       H17S           20.8955643676       26.0672825475       -0.8890139772  MEMB      158             0.0000000000
     18203       158  OSM       H17T           21.1383038001       27.6221881982       -1.6534343234  MEMB      158             0.0000000000
     18204       158  OSM       C18S           22.1045292014       26.1134842759       -2.7440435870  MEMB      158             0.0000000000
     18205       158  OSM       H18S           21.9129326958       25.1867009155       -3.3260101309  MEMB      158             0.0000000000
     18206       158  OSM       H18T           23.0987086468       26.1795270286       -2.2525484293  MEMB      158             0.0000000000
     18207       158  OSM       H18U           22.2763880884       26.8804372834       -3.5292616604  MEMB      158             0.0000000000
     18208       158  OSM       C1F            15.7958920638       27.0708897174      -15.4577460156  MEMB      158             0.0000000000
     18209       158  OSM       OF             14.8064729524       26.4943748810      -15.8516776062  MEMB      158             0.0000000000
     18210       158  OSM       C2F            15.7576795333       28.1888110775      -14.4801640732  MEMB      158             0.0000000000
     18211       158  OSM       H2F            15.6555505970       29.1866836324      -14.9578049004  MEMB      158             0.0000000000
     18212       158  OSM       H2G            16.6556266980       28.1814651596      -13.8259789308  MEMB      158             0.0000000000
     18213       158  OSM       C3F            14.5209360434       28.1296981800      -13.5555344033  MEMB      158             0.0000000000
     18214       158  OSM       H3F            14.5893944337       27.2169026912      -12.9259001252  MEMB      158             0.0000000000
     18215       158  OSM       H3G            13.6728258415       28.0953058475      -14.2723657157  MEMB      158             0.0000000000
     18216       158  OSM       C4F            14.3073307610       29.3106391381      -12.6593731638  MEMB      158             0.0000000000
     18217       158  OSM       H4F            13.2674190617       29.2989708083      -12.2685163945  MEMB      158             0.0000000000
     18218       158  OSM       H4G            14.4399405926       30.1964299932      -13.3167241472  MEMB      158             0.0000000000
     18219       158  OSM       C5F            15.2334253856       29.2970510321      -11.3951342854  MEMB      158             0.0000000000
     18220       158  OSM       H5F            16.2422084699       28.9062225354      -11.6479793285  MEMB      158             0.0000000000
     18221       158  OSM       H5G            14.8891939847       28.6911188962      -10.5298758993  MEMB      158             0.0000000000
     18222       158  OSM       C6F            15.3091773447       30.7550583962      -10.8044258675  MEMB      158             0.0000000000
     18223       158  OSM       H6F            14.3093172987       30.9251062339      -10.3509004505  MEMB      158             0.0000000000
     18224       158  OSM       H6G            15.4740803251       31.4525482284      -11.6533279335  MEMB      158             0.0000000000
     18225       158  OSM       C7F            16.4897273943       30.9594893602       -9.7610656042  MEMB      158             0.0000000000
     18226       158  OSM       H7F            16.2680840243       32.0283483750       -9.5543392211  MEMB      158             0.0000000000
     18227       158  OSM       H7G            17.4530572241       30.9176155354      -10.3129380725  MEMB      158             0.0000000000
     18228       158  OSM       C8F            16.3146938696       30.1822175649       -8.4417790599  MEMB      158             0.0000000000
     18229       158  OSM       H8F            16.1638479733       29.0921297284       -8.5943399731  MEMB      158             0.0000000000
     18230       158  OSM       H8G            15.3946961172       30.6026292163       -7.9822367868  MEMB      158             0.0000000000
     18231       158  OSM       C9F            17.5821334987       30.0380698606       -7.5980552832  MEMB      158             0.0000000000
     18232       158  OSM       H9F            18.5136192592       29.8846453232       -8.1626751284  MEMB      158             0.0000000000
     18233       158  OSM       C10F           17.5882132142       30.0049480021       -6.2512819801  MEMB      158             0.0000000000
     18234       158  OSM       H10F           18.5491847246       29.8853029988       -5.7295361667  MEMB      158             0.0000000000
     18235       158  OSM       C11F           16.4006665704       30.1311326664       -5.2847317541  MEMB      158             0.0000000000
     18236       158  OSM       H11F           15.5346639042       29.4612492764       -5.4734562891  MEMB      158             0.0000000000
     18237       158  OSM       H11G           16.1990567259       31.2178773530       -5.1722139636  MEMB      158             0.0000000000
     18238       158  OSM       C12F           16.8151979425       29.7455541538       -3.7863516165  MEMB      158             0.0000000000
     18239       158  OSM       H12F           17.0829022009       28.6673608729       -3.7739149064  MEMB      158             0.0000000000
     18240       158  OSM       H12G           15.9269141024       29.9644051428       -3.1559727921  MEMB      158             0.0000000000
     18241       158  OSM       C13F           17.9727930330       30.5613094888       -3.1846831938  MEMB      158             0.0000000000
     18242       158  OSM       H13F           18.0786910667       31.5021736046       -3.7659587132  MEMB      158             0.0000000000
     18243       158  OSM       H13G           18.9022642275       29.9597115086       -3.2767919694  MEMB      158             0.0000000000
     18244       158  OSM       C14F           17.7193484850       30.8946704249       -1.7140958111  MEMB      158             0.0000000000
     18245       158  OSM       H14F           16.6991435912       31.2999240960       -1.5430050270  MEMB      158             0.0000000000
     18246       158  OSM       H14G           18.4405705164       31.7014612731       -1.4626043285  MEMB      158             0.0000000000
     18247       158  OSM       C15F           18.1198148179       29.7438291162       -0.8838944488  MEMB      158             0.0000000000
     18248       158  OSM       H15F           19.1890325446       29.5476569081       -1.1132655129  MEMB      158             0.0000000000
     18249       158  OSM       H15G           17.5657685841       28.7933218026       -1.0384564379  MEMB      158             0.0000000000
     18250       158  OSM       C16F           18.0633650613       29.9855654276        0.6147325802  MEMB      158             0.0000000000
     18251       158  OSM       H16F           18.2691079097       29.1040849507        1.2589253829  MEMB      158             0.0000000000
     18252       158  OSM       H16G           17.1130439788       30.4631023387        0.9359314561  MEMB      158             0.0000000000
     18253       158  OSM       C17F           19.1723890834       31.0449535850        0.9962809436  MEMB      158             0.0000000000
     18254       158  OSM       H17F           19.9253205612       31.1010933054        0.1812578171  MEMB      158             0.0000000000
     18255       158  OSM       H17G           19.7323070048       30.6041953442        1.8486571184  MEMB      158             0.0000000000
     18256       158  OSM       C18F           18.6739992458       32.4260844007        1.3785188795  MEMB      158             0.0000000000
     18257       158  OSM       H18F           17.7674751089       32.7178672185        0.8063327875  MEMB      158             0.0000000000
     18258       158  OSM       H18G           19.4725271951       33.1717227293        1.1767829290  MEMB      158             0.0000000000
     18259       158  OSM       H18H           18.4331039075       32.3749902059        2.4618840599  MEMB      158             0.0000000000
     18260       159  OSM       N              14.0973435624      -31.9127306739      -21.9865889430  MEMB      159             0.0000000000
     18261       159  OSM       C15            13.7652159935      -33.2407413695      -21.4996966067  MEMB      159             0.0000000000
     18262       159  OSM       H15A           14.3037756154      -34.0492810068      -21.9715199958  MEMB      159             0.0000000000
     18263       159  OSM       H15B           12.7147606160      -33.4367101293      -21.6563490862  MEMB      159             0.0000000000
     18264       159  OSM       H15C           13.9791900007      -33.3016841123      -20.4428611450  MEMB      159             0.0000000000
     18265       159  OSM       C14            15.5757014220      -31.8420049149      -21.8067665703  MEMB      159             0.0000000000
     18266       159  OSM       H14A           15.9932712724      -30.9413276273      -22.2319910688  MEMB      159             0.0000000000
     18267       159  OSM       H14B           16.0380617318      -32.7436523615      -22.1804708752  MEMB      159             0.0000000000
     18268       159  OSM       H14C           15.8187657348      -31.8705324566      -20.7548607109  MEMB      159             0.0000000000
     18269       159  OSM       C13            13.7536019549      -31.7260033935      -23.4280680826  MEMB      159             0.0000000000
     18270       159  OSM       H13A           12.6867165447      -31.5987053438      -23.5373870819  MEMB      159             0.0000000000
     18271       159  OSM       H13B           14.0554403197      -32.5667575361      -24.0350494673  MEMB      159             0.0000000000
     18272       159  OSM       H13C           14.3201792045      -30.8686632906      -23.7602703476  MEMB      159             0.0000000000
     18273       159  OSM       C12            13.4282629919      -30.7822479319      -21.2261575352  MEMB      159             0.0000000000
     18274       159  OSM       H12A           13.7410777570      -30.9562835031      -20.2072078337  MEMB      159             0.0000000000
     18275       159  OSM       H12B           12.3703980450      -30.9996324900      -21.2342713911  MEMB      159             0.0000000000
     18276       159  OSM       C11            13.7551274943      -29.3023042608      -21.6111896716  MEMB      159             0.0000000000
     18277       159  OSM       H11A           13.1093016905      -28.5623873318      -21.0918121173  MEMB      159             0.0000000000
     18278       159  OSM       H11B           13.3944103441      -29.1182277315      -22.6457523259  MEMB      159             0.0000000000
     18279       159  OSM       P              15.6418174052      -28.6274032321      -19.8537904539  MEMB      159             0.0000000000
     18280       159  OSM       O13            16.0379297051      -29.9658475260      -19.3617804432  MEMB      159             0.0000000000
     18281       159  OSM       O14            16.7233183565      -27.5989754091      -19.9080845367  MEMB      159             0.0000000000
     18282       159  OSM       O11            14.4272908013      -28.1116582812      -18.9655259065  MEMB      159             0.0000000000
     18283       159  OSM       O12            15.0478982122      -28.8680183048      -21.3523512504  MEMB      159             0.0000000000
     18284       159  OSM       C1S            13.8090665180      -28.9098843473      -17.9814383292  MEMB      159             0.0000000000
     18285       159  OSM       H1S            13.5850752037      -29.9660636911      -18.2434197702  MEMB      159             0.0000000000
     18286       159  OSM       H1T            12.7852686561      -28.4817442824      -17.9280072637  MEMB      159             0.0000000000
     18287       159  OSM       NF             13.8308077757      -29.3929796771      -15.6181153434  MEMB      159             0.0000000000
     18288       159  OSM       HNF            13.0746854398      -29.0413991905      -15.0715992995  MEMB      159             0.0000000000
     18289       159  OSM       C2S            14.4274442992      -28.5725825111      -16.6369809925  MEMB      159             0.0000000000
     18290       159  OSM       H2S            15.5083559043      -28.8243404117      -16.6876662928  MEMB      159             0.0000000000
     18291       159  OSM       C3S            14.3355317522      -27.0715860774      -16.1425811735  MEMB      159             0.0000000000
     18292       159  OSM       H3S            13.2636588487      -26.7987499074      -16.0378439010  MEMB      159             0.0000000000
     18293       159  OSM       O3             14.9689824023      -26.1541078251      -17.0315205642  MEMB      159             0.0000000000
     18294       159  OSM       HO3            15.3021672426      -26.5902402646      -17.8191605516  MEMB      159             0.0000000000
     18295       159  OSM       C4S            15.0168396512      -26.9361343026      -14.7804574261  MEMB      159             0.0000000000
     18296       159  OSM       H4S            14.4736519057      -26.4759212731      -13.9419161903  MEMB      159             0.0000000000
     18297       159  OSM       C5S            16.2933635745      -27.2800422926      -14.4000026959  MEMB      159             0.0000000000
     18298       159  OSM       H5S            17.0022077235      -27.6637905914      -15.1485196473  MEMB      159             0.0000000000
     18299       159  OSM       C6S            16.8725345729      -27.0989292142      -13.0451192381  MEMB      159             0.0000000000
     18300       159  OSM       H6S            16.6178082034      -26.0729828264      -12.7032570044  MEMB      159             0.0000000000
     18301       159  OSM       H6T            17.9718326307      -27.1666232887      -13.1910035152  MEMB      159             0.0000000000
     18302       159  OSM       C7S            16.3662373513      -28.1025594965      -12.0186530134  MEMB      159             0.0000000000
     18303       159  OSM       H7S            16.9332632724      -29.0509045538      -12.1346023311  MEMB      159             0.0000000000
     18304       159  OSM       H7T            15.2778109926      -28.3244523980      -11.9983422150  MEMB      159             0.0000000000
     18305       159  OSM       C8S            16.6816360417      -27.6862609358      -10.6228775501  MEMB      159             0.0000000000
     18306       159  OSM       H8S            16.2154547685      -26.6990847370      -10.4167737179  MEMB      159             0.0000000000
     18307       159  OSM       H8T            17.7336313487      -27.3442143647      -10.5197721748  MEMB      159             0.0000000000
     18308       159  OSM       C9S            16.1282934549      -28.6536341827       -9.4260508695  MEMB      159             0.0000000000
     18309       159  OSM       H9S            16.4232657640      -29.6916884117       -9.6901643442  MEMB      159             0.0000000000
     18310       159  OSM       H9T            15.0343176673      -28.5879824164       -9.6083357560  MEMB      159             0.0000000000
     18311       159  OSM       C10S           16.4765620401      -28.1891849063       -8.0670679563  MEMB      159             0.0000000000
     18312       159  OSM       H10S           15.9191104173      -27.2323935755       -7.9769629777  MEMB      159             0.0000000000
     18313       159  OSM       H10T           17.5727670317      -28.0571566156       -7.9436816335  MEMB      159             0.0000000000
     18314       159  OSM       C11S           15.8042876226      -29.0216429378       -6.9773510452  MEMB      159             0.0000000000
     18315       159  OSM       H11S           14.7824199237      -29.1508743176       -7.3937725793  MEMB      159             0.0000000000
     18316       159  OSM       H11T           15.6757277940      -28.3793261633       -6.0800088026  MEMB      159             0.0000000000
     18317       159  OSM       C12S           16.4374783459      -30.4301200326       -6.7373877622  MEMB      159             0.0000000000
     18318       159  OSM       H12S           17.5231618373      -30.2964753979       -6.5430909615  MEMB      159             0.0000000000
     18319       159  OSM       H12T           16.1770507666      -30.9469388535       -7.6857535423  MEMB      159             0.0000000000
     18320       159  OSM       C13S           15.7055904311      -31.2206638439       -5.6281259276  MEMB      159             0.0000000000
     18321       159  OSM       H13S           16.0713556543      -32.2469441207       -5.4106734223  MEMB      159             0.0000000000
     18322       159  OSM       H13T           14.6551310685      -31.3674946261       -5.9587268869  MEMB      159             0.0000000000
     18323       159  OSM       C14S           15.3845882401      -30.6321207647       -4.2541059001  MEMB      159             0.0000000000
     18324       159  OSM       H14S           14.6191691724      -31.3025820647       -3.8080822165  MEMB      159             0.0000000000
     18325       159  OSM       H14T           14.7195130702      -29.7504760483       -4.3753449123  MEMB      159             0.0000000000
     18326       159  OSM       C15S           16.6099781290      -30.3135275731       -3.3368513405  MEMB      159             0.0000000000
     18327       159  OSM       H15S           17.1049008193      -29.4066301349       -3.7453972720  MEMB      159             0.0000000000
     18328       159  OSM       H15T           17.2948071205      -31.1832456911       -3.4313026938  MEMB      159             0.0000000000
     18329       159  OSM       C16S           16.2690291622      -29.9843609955       -1.9178809539  MEMB      159             0.0000000000
     18330       159  OSM       H16S           15.3049348598      -29.4322351134       -1.9173663534  MEMB      159             0.0000000000
     18331       159  OSM       H16T           16.8243718102      -29.1503651310       -1.4379171243  MEMB      159             0.0000000000
     18332       159  OSM       C17S           16.3286453327      -31.0728110848       -0.9001075243  MEMB      159             0.0000000000
     18333       159  OSM       H17S           15.9820639052      -30.7082626703        0.0905000117  MEMB      159             0.0000000000
     18334       159  OSM       H17T           17.3472475745      -31.4985367336       -0.7754966604  MEMB      159             0.0000000000
     18335       159  OSM       C18S           15.5033811382      -32.3087252037       -1.2385435205  MEMB      159             0.0000000000
     18336       159  OSM       H18S           15.8360796259      -33.1555607248       -0.6009690981  MEMB      159             0.0000000000
     18337       159  OSM       H18T           15.7679181312      -32.6062861510       -2.2757515847  MEMB      159             0.0000000000
     18338       159  OSM       H18U           14.4082090287      -32.1262208768       -1.2786836910  MEMB      159             0.0000000000
     18339       159  OSM       C1F            13.9808897042      -30.7279410625      -15.6107585410  MEMB      159             0.0000000000
     18340       159  OSM       OF             14.8520369061      -31.2724945331      -16.2476888178  MEMB      159             0.0000000000
     18341       159  OSM       C2F            13.0205766850      -31.5013890366      -14.7981836737  MEMB      159             0.0000000000
     18342       159  OSM       H2F            13.0929407369      -32.6094521997      -14.7623998485  MEMB      159             0.0000000000
     18343       159  OSM       H2G            11.9670836789      -31.3712546223      -15.1261142899  MEMB      159             0.0000000000
     18344       159  OSM       C3F            13.0191539016      -31.0386587410      -13.3220961488  MEMB      159             0.0000000000
     18345       159  OSM       H3F            12.9033450310      -29.9414214840      -13.1917899843  MEMB      159             0.0000000000
     18346       159  OSM       H3G            14.0044583572      -31.2765997959      -12.8672555430  MEMB      159             0.0000000000
     18347       159  OSM       C4F            12.0405241588      -31.7337715406      -12.3778192424  MEMB      159             0.0000000000
     18348       159  OSM       H4F            12.2824185660      -32.8145047456      -12.4662701899  MEMB      159             0.0000000000
     18349       159  OSM       H4G            10.9807245355      -31.5749092103      -12.6709214365  MEMB      159             0.0000000000
     18350       159  OSM       C5F            12.2658991373      -31.3073082059      -10.9280839422  MEMB      159             0.0000000000
     18351       159  OSM       H5F            13.3380026706      -31.2400200857      -10.6445575728  MEMB      159             0.0000000000
     18352       159  OSM       H5G            11.7290690544      -32.0247564428      -10.2712711301  MEMB      159             0.0000000000
     18353       159  OSM       C6F            11.6189355314      -29.9664383582      -10.5767211021  MEMB      159             0.0000000000
     18354       159  OSM       H6F            10.6141868820      -29.7592977883      -11.0032112376  MEMB      159             0.0000000000
     18355       159  OSM       H6G            12.2337726736      -29.2414543213      -11.1517815855  MEMB      159             0.0000000000
     18356       159  OSM       C7F            11.7814808686      -29.6161100942       -9.1478024588  MEMB      159             0.0000000000
     18357       159  OSM       H7F            12.7863033548      -29.9928291740       -8.8601646011  MEMB      159             0.0000000000
     18358       159  OSM       H7G            11.1129520456      -30.0301310880       -8.3629607469  MEMB      159             0.0000000000
     18359       159  OSM       C8F            11.6507712658      -28.0467055038       -8.8769564548  MEMB      159             0.0000000000
     18360       159  OSM       H8F            10.5412598272      -27.9901026025       -8.8870178127  MEMB      159             0.0000000000
     18361       159  OSM       H8G            11.8887305116      -27.4752687661       -9.7995380981  MEMB      159             0.0000000000
     18362       159  OSM       C9F            12.3563828957      -27.6375001961       -7.5979253043  MEMB      159             0.0000000000
     18363       159  OSM       H9F            13.4042142459      -27.3679764068       -7.7964354794  MEMB      159             0.0000000000
     18364       159  OSM       C10F           11.9316458090      -27.5176507553       -6.3002718441  MEMB      159             0.0000000000
     18365       159  OSM       H10F           12.6565963472      -27.1317833269       -5.5684566519  MEMB      159             0.0000000000
     18366       159  OSM       C11F           10.5038982834      -27.7536075393       -5.8291933743  MEMB      159             0.0000000000
     18367       159  OSM       H11F            9.7940247626      -27.8684938681       -6.6760709211  MEMB      159             0.0000000000
     18368       159  OSM       H11G           10.1252084050      -26.8830556276       -5.2520840249  MEMB      159             0.0000000000
     18369       159  OSM       C12F           10.4984005496      -29.0848083237       -4.9221570346  MEMB      159             0.0000000000
     18370       159  OSM       H12F           11.0163589516      -29.8350511906       -5.5571189577  MEMB      159             0.0000000000
     18371       159  OSM       H12G            9.4416820470      -29.4091951100       -4.8106222199  MEMB      159             0.0000000000
     18372       159  OSM       C13F           11.2531425109      -29.0967547502       -3.6129962475  MEMB      159             0.0000000000
     18373       159  OSM       H13F           10.8790689966      -28.2101069136       -3.0577968258  MEMB      159             0.0000000000
     18374       159  OSM       H13G           12.3216318115      -29.1235519000       -3.9162000374  MEMB      159             0.0000000000
     18375       159  OSM       C14F           11.0236519292      -30.3882447011       -2.7951757919  MEMB      159             0.0000000000
     18376       159  OSM       H14F           11.0265739040      -31.3374554475       -3.3725073617  MEMB      159             0.0000000000
     18377       159  OSM       H14G            9.9954716390      -30.3890279854       -2.3742650649  MEMB      159             0.0000000000
     18378       159  OSM       C15F           12.0208485862      -30.6717070009       -1.6714674556  MEMB      159             0.0000000000
     18379       159  OSM       H15F           12.7792644141      -29.8630223039       -1.7432685049  MEMB      159             0.0000000000
     18380       159  OSM       H15G           12.4619582060      -31.6818510602       -1.8105799469  MEMB      159             0.0000000000
     18381       159  OSM       C16F           11.3401795670      -30.4989456489       -0.2654385529  MEMB      159             0.0000000000
     18382       159  OSM       H16F           10.3849709181      -31.0659717929       -0.2459746679  MEMB      159             0.0000000000
     18383       159  OSM       H16G           11.1573719889      -29.4089298929       -0.1524461346  MEMB      159             0.0000000000
     18384       159  OSM       C17F           12.2330050061      -31.0397511442        0.8941350563  MEMB      159             0.0000000000
     18385       159  OSM       H17F           13.0403389774      -30.2938013258        1.0556643664  MEMB      159             0.0000000000
     18386       159  OSM       H17G           12.5870722277      -32.0450033789        0.5804062665  MEMB      159             0.0000000000
     18387       159  OSM       C18F           11.5276402684      -31.1441802744        2.3053951690  MEMB      159             0.0000000000
     18388       159  OSM       H18F           10.9599785096      -32.0965256840        2.3769442896  MEMB      159             0.0000000000
     18389       159  OSM       H18G           10.7784355539      -30.3319377588        2.4206141187  MEMB      159             0.0000000000
     18390       159  OSM       H18H           12.2044784725      -31.0820835266        3.1842325082  MEMB      159             0.0000000000
     18391       160  SAPE      N             -16.8781630527      -30.5514269284      -20.8055001853  MEMB      160             0.0000000000
     18392       160  SAPE      HN1           -16.4069171650      -29.7959018166      -21.3428166660  MEMB      160             0.0000000000
     18393       160  SAPE      HN2           -17.7161599631      -30.9121813178      -21.3047172918  MEMB      160             0.0000000000
     18394       160  SAPE      HN3           -17.3676535269      -30.2496344373      -19.9389435818  MEMB      160             0.0000000000
     18395       160  SAPE      C12           -15.9922108494      -31.7180382018      -20.5787367339  MEMB      160             0.0000000000
     18396       160  SAPE      H12A          -15.2569778753      -31.9574701993      -21.3764996765  MEMB      160             0.0000000000
     18397       160  SAPE      H12B          -16.6375603925      -32.6004380321      -20.3807078655  MEMB      160             0.0000000000
     18398       160  SAPE      C11           -15.1308441258      -31.4468582630      -19.3308832832  MEMB      160             0.0000000000
     18399       160  SAPE      H11A          -14.5060396295      -32.3654745469      -19.3400662097  MEMB      160             0.0000000000
     18400       160  SAPE      H11B          -15.7014301864      -31.4852493813      -18.3783715554  MEMB      160             0.0000000000
     18401       160  SAPE      P             -13.0181708137      -30.0296558746      -19.9551411544  MEMB      160             0.0000000000
     18402       160  SAPE      O13           -12.9995020185      -30.9297074400      -21.0987536620  MEMB      160             0.0000000000
     18403       160  SAPE      O14           -12.6540547070      -28.6350698327      -20.2204355177  MEMB      160             0.0000000000
     18404       160  SAPE      O12           -14.4484143634      -30.1625359653      -19.3235721601  MEMB      160             0.0000000000
     18405       160  SAPE      O11           -12.1939848672      -30.6129778974      -18.6869772742  MEMB      160             0.0000000000
     18406       160  SAPE      C1            -10.9054684273      -31.2479899372      -18.9058595543  MEMB      160             0.0000000000
     18407       160  SAPE      HA            -11.0787274834      -32.2521551882      -19.3485269440  MEMB      160             0.0000000000
     18408       160  SAPE      HB            -10.4242099622      -30.7365954503      -19.7667818137  MEMB      160             0.0000000000
     18409       160  SAPE      C2            -10.0231557375      -31.3076674405      -17.6701917372  MEMB      160             0.0000000000
     18410       160  SAPE      HS             -9.3747904714      -32.1920821233      -17.8483875197  MEMB      160             0.0000000000
     18411       160  SAPE      O21           -10.8550645812      -31.6057866568      -16.4977065249  MEMB      160             0.0000000000
     18412       160  SAPE      C21           -11.2022671496      -32.9257900385      -16.3628187928  MEMB      160             0.0000000000
     18413       160  SAPE      O22           -11.1986008401      -33.7936807208      -17.2404209254  MEMB      160             0.0000000000
     18414       160  SAPE      C22           -11.6709710283      -33.2452647687      -14.9373738909  MEMB      160             0.0000000000
     18415       160  SAPE      H2R           -11.2119014105      -34.2156823446      -14.6512518537  MEMB      160             0.0000000000
     18416       160  SAPE      H2S           -11.4472942912      -32.4682102586      -14.1754842788  MEMB      160             0.0000000000
     18417       160  SAPE      C3             -9.1981704099      -30.0731348699      -17.4486518299  MEMB      160             0.0000000000
     18418       160  SAPE      HX             -8.5014510376      -29.8191044463      -18.2759195106  MEMB      160             0.0000000000
     18419       160  SAPE      HY             -8.7036515279      -30.2359844919      -16.4671976297  MEMB      160             0.0000000000
     18420       160  SAPE      O31           -10.2142036806      -29.0389790062      -17.3268396611  MEMB      160             0.0000000000
     18421       160  SAPE      C31           -10.3011872293      -28.3601773134      -16.2126090672  MEMB      160             0.0000000000
     18422       160  SAPE      O32            -9.4927424785      -28.2684059880      -15.2747402093  MEMB      160             0.0000000000
     18423       160  SAPE      C32           -11.6977960982      -27.8439242123      -16.2752237869  MEMB      160             0.0000000000
     18424       160  SAPE      H2X           -12.1056100787      -27.7468268107      -17.3040972731  MEMB      160             0.0000000000
     18425       160  SAPE      H2Y           -11.7578601006      -26.8605605163      -15.7616979435  MEMB      160             0.0000000000
     18426       160  SAPE      C23           -13.2187273522      -33.4686158797      -14.8708182176  MEMB      160             0.0000000000
     18427       160  SAPE      H3R           -13.3873072139      -34.2316199108      -14.0810547373  MEMB      160             0.0000000000
     18428       160  SAPE      H3S           -13.4879806764      -34.0512129893      -15.7776831870  MEMB      160             0.0000000000
     18429       160  SAPE      C24           -14.0169362406      -32.1306096636      -14.7703335626  MEMB      160             0.0000000000
     18430       160  SAPE      H4R           -13.9176158457      -31.5453779560      -15.7094610901  MEMB      160             0.0000000000
     18431       160  SAPE      H4S           -13.6632258717      -31.4708057520      -13.9494385210  MEMB      160             0.0000000000
     18432       160  SAPE      C25           -15.5010873497      -32.4069088258      -14.5323669507  MEMB      160             0.0000000000
     18433       160  SAPE      H5R           -15.9437214068      -33.1123599186      -15.2509863986  MEMB      160             0.0000000000
     18434       160  SAPE      C26           -16.3244875113      -32.0726078162      -13.5139672988  MEMB      160             0.0000000000
     18435       160  SAPE      H6R           -17.3615963520      -32.4392124655      -13.5164298557  MEMB      160             0.0000000000
     18436       160  SAPE      C27           -16.0140786667      -31.1990197101      -12.2803667728  MEMB      160             0.0000000000
     18437       160  SAPE      H7R           -16.8367848640      -30.4744055417      -12.1003392877  MEMB      160             0.0000000000
     18438       160  SAPE      H7S           -15.1131068072      -30.5753551743      -12.4637061351  MEMB      160             0.0000000000
     18439       160  SAPE      C28           -15.6697014901      -31.9063565827      -11.0121238309  MEMB      160             0.0000000000
     18440       160  SAPE      H8R           -16.5758593683      -32.0161596109      -10.3982664159  MEMB      160             0.0000000000
     18441       160  SAPE      C29           -14.4485466880      -32.1790090326      -10.4766380205  MEMB      160             0.0000000000
     18442       160  SAPE      H9R           -14.3612838128      -32.5907588556       -9.4603463236  MEMB      160             0.0000000000
     18443       160  SAPE      C210          -13.0442290849      -31.8708888825      -10.9737953234  MEMB      160             0.0000000000
     18444       160  SAPE      H10R          -12.7023940867      -31.0573109575      -10.2988427730  MEMB      160             0.0000000000
     18445       160  SAPE      H10S          -13.1226889887      -31.4190525961      -11.9857285826  MEMB      160             0.0000000000
     18446       160  SAPE      C211          -12.0162076726      -32.9658155117      -10.9772208137  MEMB      160             0.0000000000
     18447       160  SAPE      H11R          -12.1290744720      -33.8162579693      -11.6657039140  MEMB      160             0.0000000000
     18448       160  SAPE      C212          -10.8105886045      -32.9978960642      -10.2853157887  MEMB      160             0.0000000000
     18449       160  SAPE      H12R          -10.3145539568      -33.9794161904      -10.3091456184  MEMB      160             0.0000000000
     18450       160  SAPE      C213          -10.3384465078      -31.8350490498       -9.3525091921  MEMB      160             0.0000000000
     18451       160  SAPE      H13R          -11.1722888253      -31.2490988908       -8.9101402776  MEMB      160             0.0000000000
     18452       160  SAPE      H13S           -9.9511409364      -31.0341071165      -10.0179468096  MEMB      160             0.0000000000
     18453       160  SAPE      C214           -9.3405502921      -32.2083026958       -8.2761991039  MEMB      160             0.0000000000
     18454       160  SAPE      H14R           -8.3734576782      -32.6384718610       -8.5756764449  MEMB      160             0.0000000000
     18455       160  SAPE      C215           -9.6468590475      -32.1560577855       -6.9134056440  MEMB      160             0.0000000000
     18456       160  SAPE      H15R           -8.8577828388      -32.4944175075       -6.2257500771  MEMB      160             0.0000000000
     18457       160  SAPE      C216          -10.8582149849      -31.6936758139       -6.2870661347  MEMB      160             0.0000000000
     18458       160  SAPE      H16R          -11.3688406112      -30.9825928114       -6.9711294673  MEMB      160             0.0000000000
     18459       160  SAPE      H16S          -10.5003337093      -31.1737594611       -5.3727748713  MEMB      160             0.0000000000
     18460       160  SAPE      C217          -11.8582620813      -32.7930351652       -5.8922599342  MEMB      160             0.0000000000
     18461       160  SAPE      H17R          -12.0866761138      -33.4611410824       -6.7500375354  MEMB      160             0.0000000000
     18462       160  SAPE      H17S          -12.8085215944      -32.2935072399       -5.6062532598  MEMB      160             0.0000000000
     18463       160  SAPE      C218          -11.5530712061      -33.7358749942       -4.6496765001  MEMB      160             0.0000000000
     18464       160  SAPE      H18R          -10.8029246575      -34.5185441909       -4.8926374195  MEMB      160             0.0000000000
     18465       160  SAPE      H18S          -12.5009594954      -34.2401493462       -4.3641310519  MEMB      160             0.0000000000
     18466       160  SAPE      C219          -10.9147877807      -32.9624145009       -3.5409214267  MEMB      160             0.0000000000
     18467       160  SAPE      H19R          -11.5885118933      -32.2018633397       -3.0915011892  MEMB      160             0.0000000000
     18468       160  SAPE      H19S           -9.9552121905      -32.4574640890       -3.7829155823  MEMB      160             0.0000000000
     18469       160  SAPE      C220          -10.6200695489      -33.9311857493       -2.3830351598  MEMB      160             0.0000000000
     18470       160  SAPE      H20R          -11.5617857981      -34.4446523675       -2.0934763847  MEMB      160             0.0000000000
     18471       160  SAPE      H20S          -10.1695029907      -33.3247250195       -1.5684687098  MEMB      160             0.0000000000
     18472       160  SAPE      H20T          -10.0271600801      -34.8267451600       -2.6672058424  MEMB      160             0.0000000000
     18473       160  SAPE      C33           -12.5798081540      -28.8211969631      -15.4911997206  MEMB      160             0.0000000000
     18474       160  SAPE      H3X           -11.9440141611      -28.9745703170      -14.5931108887  MEMB      160             0.0000000000
     18475       160  SAPE      H3Y           -12.5396089504      -29.8072527877      -16.0014927385  MEMB      160             0.0000000000
     18476       160  SAPE      C34           -14.0226206188      -28.3348755911      -15.0000127772  MEMB      160             0.0000000000
     18477       160  SAPE      H4X           -14.4459070113      -29.0816558009      -14.2946975568  MEMB      160             0.0000000000
     18478       160  SAPE      H4Y           -14.6696828849      -28.3845432280      -15.9017688964  MEMB      160             0.0000000000
     18479       160  SAPE      C35           -14.1780571263      -26.9927873899      -14.2405235743  MEMB      160             0.0000000000
     18480       160  SAPE      H5X           -15.2599500623      -26.7929124248      -14.0859960244  MEMB      160             0.0000000000
     18481       160  SAPE      H5Y           -13.9136594994      -26.2208028081      -14.9944828482  MEMB      160             0.0000000000
     18482       160  SAPE      C36           -13.3977035805      -26.7769947535      -12.9836455268  MEMB      160             0.0000000000
     18483       160  SAPE      H6X           -13.0068755719      -25.7370478441      -12.9928484649  MEMB      160             0.0000000000
     18484       160  SAPE      H6Y           -12.4872034697      -27.4029226199      -12.8673494550  MEMB      160             0.0000000000
     18485       160  SAPE      C37           -14.2792501953      -27.0634821682      -11.7739397067  MEMB      160             0.0000000000
     18486       160  SAPE      H7X           -14.5500248636      -28.1402109366      -11.8146490288  MEMB      160             0.0000000000
     18487       160  SAPE      H7Y           -15.2988838307      -26.6561678595      -11.9435367011  MEMB      160             0.0000000000
     18488       160  SAPE      C38           -13.5945857422      -26.7485577305      -10.4079950688  MEMB      160             0.0000000000
     18489       160  SAPE      H8X           -13.4758098376      -25.6445498340      -10.4451403456  MEMB      160             0.0000000000
     18490       160  SAPE      H8Y           -12.5483417034      -27.1210786552      -10.4383681263  MEMB      160             0.0000000000
     18491       160  SAPE      C39           -14.4283669307      -27.2331740052       -9.1866382992  MEMB      160             0.0000000000
     18492       160  SAPE      H9X           -15.4509523536      -26.8473610581       -9.3861082193  MEMB      160             0.0000000000
     18493       160  SAPE      H9Y           -13.9735438209      -26.7851931786       -8.2773695920  MEMB      160             0.0000000000
     18494       160  SAPE      C310          -14.3973464762      -28.7424957489       -9.0497645561  MEMB      160             0.0000000000
     18495       160  SAPE      H10X          -13.4284304674      -29.1389571735       -8.6778216723  MEMB      160             0.0000000000
     18496       160  SAPE      H10Y          -14.6955092030      -29.0904075545      -10.0618791440  MEMB      160             0.0000000000
     18497       160  SAPE      C311          -15.4142830049      -29.4066929688       -8.1257443956  MEMB      160             0.0000000000
     18498       160  SAPE      H11X          -15.3788913959      -30.5171031562       -8.1181585896  MEMB      160             0.0000000000
     18499       160  SAPE      H11Y          -16.3997255591      -29.0878536282       -8.5276965863  MEMB      160             0.0000000000
     18500       160  SAPE      C312          -15.2469079320      -28.9405806428       -6.6635026667  MEMB      160             0.0000000000
     18501       160  SAPE      H12X          -15.5318971135      -27.8903290055       -6.4397312906  MEMB      160             0.0000000000
     18502       160  SAPE      H12Y          -14.2107612578      -29.0959336077       -6.2939261474  MEMB      160             0.0000000000
     18503       160  SAPE      C313          -16.1930206481      -29.6660930422       -5.6919676758  MEMB      160             0.0000000000
     18504       160  SAPE      H13X          -15.9711790766      -30.7460603870       -5.5549355031  MEMB      160             0.0000000000
     18505       160  SAPE      H13Y          -17.2827095353      -29.5488665773       -5.8740588322  MEMB      160             0.0000000000
     18506       160  SAPE      C314          -16.1166337309      -29.1798609154       -4.2212030732  MEMB      160             0.0000000000
     18507       160  SAPE      H14X          -16.9095803390      -29.6900819749       -3.6336385285  MEMB      160             0.0000000000
     18508       160  SAPE      H14Y          -16.1868612192      -28.0796000605       -4.3583709258  MEMB      160             0.0000000000
     18509       160  SAPE      C315          -14.8143261343      -29.6787282060       -3.5952325858  MEMB      160             0.0000000000
     18510       160  SAPE      H15X          -13.9649150829      -29.1886909232       -4.1174247100  MEMB      160             0.0000000000
     18511       160  SAPE      H15Y          -14.6963538224      -30.7808977992       -3.6702379743  MEMB      160             0.0000000000
     18512       160  SAPE      C316          -14.6920364249      -29.2349719361       -2.1318721847  MEMB      160             0.0000000000
     18513       160  SAPE      H16X          -14.8319402947      -28.1589879645       -1.8931131208  MEMB      160             0.0000000000
     18514       160  SAPE      H16Y          -13.6129087331      -29.2322305642       -1.8676830899  MEMB      160             0.0000000000
     18515       160  SAPE      C317          -15.4906077016      -30.0187686292       -1.0511299346  MEMB      160             0.0000000000
     18516       160  SAPE      H17X          -15.0754475968      -31.0465928705       -1.1255636544  MEMB      160             0.0000000000
     18517       160  SAPE      H17Y          -16.5756145848      -29.9122528703       -1.2649888943  MEMB      160             0.0000000000
     18518       160  SAPE      C318          -15.2802716806      -29.5548504262        0.4224221300  MEMB      160             0.0000000000
     18519       160  SAPE      H18X          -15.9494308387      -30.1536893745        1.0765937469  MEMB      160             0.0000000000
     18520       160  SAPE      H18Y          -15.3782960209      -28.4601643513        0.5848255250  MEMB      160             0.0000000000
     18521       160  SAPE      H18Z          -14.2451890896      -29.7338773685        0.7841883740  MEMB      160             0.0000000000
     18522       161  SLPC      N              33.2626828418        9.1334313357      -17.4026216388  MEMB      161             0.0000000000
     18523       161  SLPC      C13            34.5847396712        8.3928930058      -17.1362696507  MEMB      161             0.0000000000
     18524       161  SLPC      H13A           34.4122138209        7.5484666605      -16.4854402422  MEMB      161             0.0000000000
     18525       161  SLPC      H13B           34.8440147655        7.8089836088      -18.0070315775  MEMB      161             0.0000000000
     18526       161  SLPC      H13C           35.3259490687        9.0993525755      -16.7928695095  MEMB      161             0.0000000000
     18527       161  SLPC      C14            32.0963165578        8.3107713467      -17.9156324555  MEMB      161             0.0000000000
     18528       161  SLPC      H14A           32.1988672691        8.1020661812      -18.9703008863  MEMB      161             0.0000000000
     18529       161  SLPC      H14B           32.1428385566        7.4001527105      -17.3368324459  MEMB      161             0.0000000000
     18530       161  SLPC      H14C           31.1120923777        8.7544003089      -17.9455662756  MEMB      161             0.0000000000
     18531       161  SLPC      C15            33.6010983647       10.1609711486      -18.3892175818  MEMB      161             0.0000000000
     18532       161  SLPC      H15A           33.0809961731       11.0654950000      -18.1104161501  MEMB      161             0.0000000000
     18533       161  SLPC      H15B           34.6736562322       10.2862770554      -18.4070518274  MEMB      161             0.0000000000
     18534       161  SLPC      H15C           33.2918191818        9.8981227399      -19.3900458470  MEMB      161             0.0000000000
     18535       161  SLPC      C12            32.7664792648        9.8199480758      -16.1525944668  MEMB      161             0.0000000000
     18536       161  SLPC      H12A           33.4229355148       10.6773995220      -16.1370355193  MEMB      161             0.0000000000
     18537       161  SLPC      H12B           32.9393017818        9.1491904210      -15.3239710900  MEMB      161             0.0000000000
     18538       161  SLPC      C11            31.3465598093       10.5695885329      -16.0595212467  MEMB      161             0.0000000000
     18539       161  SLPC      H11A           31.2987762591       11.0492947843      -15.0585618726  MEMB      161             0.0000000000
     18540       161  SLPC      H11B           30.4373583481        9.9311370652      -16.0522056594  MEMB      161             0.0000000000
     18541       161  SLPC      P              30.4826690851       12.9030736608      -16.8153394297  MEMB      161             0.0000000000
     18542       161  SLPC      O13            30.3836014209       13.7201543165      -18.0713469400  MEMB      161             0.0000000000
     18543       161  SLPC      O14            29.2545174320       12.5979183567      -16.0245185789  MEMB      161             0.0000000000
     18544       161  SLPC      O12            31.2190153907       11.4730192948      -17.1264979161  MEMB      161             0.0000000000
     18545       161  SLPC      O11            31.5233712634       13.5062765262      -15.9064401299  MEMB      161             0.0000000000
     18546       161  SLPC      C1             32.2452972460       14.6864490057      -16.2736920840  MEMB      161             0.0000000000
     18547       161  SLPC      HA             32.4573001072       14.6847151332      -17.3642757126  MEMB      161             0.0000000000
     18548       161  SLPC      HB             31.7080428786       15.6060237769      -15.9573670133  MEMB      161             0.0000000000
     18549       161  SLPC      C2             33.5770809378       14.7058343331      -15.4962726412  MEMB      161             0.0000000000
     18550       161  SLPC      HS             34.3396823973       15.4150351197      -15.8833056558  MEMB      161             0.0000000000
     18551       161  SLPC      O21            34.2632212393       13.4016042023      -15.4757053009  MEMB      161             0.0000000000
     18552       161  SLPC      C21            35.6610448973       13.3665875486      -15.3601437144  MEMB      161             0.0000000000
     18553       161  SLPC      O22            36.3485026448       14.3033883980      -15.0303016370  MEMB      161             0.0000000000
     18554       161  SLPC      C22            36.1051495413       11.9650138330      -15.6728707564  MEMB      161             0.0000000000
     18555       161  SLPC      H2R            35.5902923308       11.6315383816      -16.5991737522  MEMB      161             0.0000000000
     18556       161  SLPC      H2S            37.1844928882       11.9401824023      -15.9350192063  MEMB      161             0.0000000000
     18557       161  SLPC      C3             33.2922541451       15.1250291446      -14.0154981258  MEMB      161             0.0000000000
     18558       161  SLPC      HX             32.7748181386       16.1005272321      -14.1379070710  MEMB      161             0.0000000000
     18559       161  SLPC      HY             34.2928599740       15.2171721351      -13.5415589259  MEMB      161             0.0000000000
     18560       161  SLPC      O31            32.4948776373       14.1399282222      -13.3002141714  MEMB      161             0.0000000000
     18561       161  SLPC      C31            33.0928940946       13.3347605958      -12.4665645572  MEMB      161             0.0000000000
     18562       161  SLPC      O32            34.2798456310       13.3008631482      -12.2237749570  MEMB      161             0.0000000000
     18563       161  SLPC      C32            31.9879788628       12.4439311190      -11.8652559668  MEMB      161             0.0000000000
     18564       161  SLPC      H2X            30.9737350041       12.6632779463      -12.2621409140  MEMB      161             0.0000000000
     18565       161  SLPC      H2Y            31.9873644491       12.6584283719      -10.7751589835  MEMB      161             0.0000000000
     18566       161  SLPC      C23            35.9659403398       11.0986283051      -14.4847757487  MEMB      161             0.0000000000
     18567       161  SLPC      H3R            34.8981162116       10.7919456062      -14.4805055857  MEMB      161             0.0000000000
     18568       161  SLPC      H3S            36.0642833655       11.6439783027      -13.5218414186  MEMB      161             0.0000000000
     18569       161  SLPC      C24            36.8971406264        9.9027689241      -14.5079378416  MEMB      161             0.0000000000
     18570       161  SLPC      H4R            37.9369153009       10.1147821220      -14.8369353859  MEMB      161             0.0000000000
     18571       161  SLPC      H4S            36.4589475056        9.2396183346      -15.2841717938  MEMB      161             0.0000000000
     18572       161  SLPC      C25            37.1151553048        9.1793180010      -13.2318446626  MEMB      161             0.0000000000
     18573       161  SLPC      H5R            37.7006174979        8.2610740013      -13.4518064702  MEMB      161             0.0000000000
     18574       161  SLPC      H5S            36.1251068741        8.7871702319      -12.9150711430  MEMB      161             0.0000000000
     18575       161  SLPC      C26            37.7540942930        9.9199379231      -12.0326143651  MEMB      161             0.0000000000
     18576       161  SLPC      H6R            38.4576767952       10.7015634182      -12.3908800723  MEMB      161             0.0000000000
     18577       161  SLPC      H6S            38.4685026662        9.1765410168      -11.6187267218  MEMB      161             0.0000000000
     18578       161  SLPC      C27            36.8433917573       10.3179558278      -10.9043564837  MEMB      161             0.0000000000
     18579       161  SLPC      H7R            36.4357199118        9.3226837003      -10.6258634494  MEMB      161             0.0000000000
     18580       161  SLPC      H7S            36.0828854372       10.9268430053      -11.4384044439  MEMB      161             0.0000000000
     18581       161  SLPC      C28            37.5046676879       10.8989389476       -9.6373870101  MEMB      161             0.0000000000
     18582       161  SLPC      H8R            38.5065670660       10.4276133618       -9.5458939037  MEMB      161             0.0000000000
     18583       161  SLPC      H8S            36.8549195932       10.6797357650       -8.7632603983  MEMB      161             0.0000000000
     18584       161  SLPC      C29            37.6167383876       12.3842097843       -9.8039944107  MEMB      161             0.0000000000
     18585       161  SLPC      H9R            38.4982474095       12.7042237567      -10.3789144206  MEMB      161             0.0000000000
     18586       161  SLPC      C210           36.8616681909       13.2753451530       -9.2306364914  MEMB      161             0.0000000000
     18587       161  SLPC      H10R           37.0548161979       14.3573773536       -9.2742319207  MEMB      161             0.0000000000
     18588       161  SLPC      C211           35.6764395453       12.9513496873       -8.2810139054  MEMB      161             0.0000000000
     18589       161  SLPC      H11R           36.1073975067       12.5170356188       -7.3536698177  MEMB      161             0.0000000000
     18590       161  SLPC      H11S           35.1761464638       12.1582684712       -8.8768748653  MEMB      161             0.0000000000
     18591       161  SLPC      C212           34.8993206280       14.1538185969       -7.8810335700  MEMB      161             0.0000000000
     18592       161  SLPC      H12R           35.5121950935       15.0626813043       -7.7896368503  MEMB      161             0.0000000000
     18593       161  SLPC      C213           33.5677487174       14.1407453833       -7.4212434020  MEMB      161             0.0000000000
     18594       161  SLPC      H13R           33.1215563926       15.0924661297       -7.0969894998  MEMB      161             0.0000000000
     18595       161  SLPC      C214           32.6439108323       12.9245420929       -7.3294762835  MEMB      161             0.0000000000
     18596       161  SLPC      H14R           33.1354716437       12.1520658280       -7.9587377133  MEMB      161             0.0000000000
     18597       161  SLPC      H14S           31.7252274681       13.1285102743       -7.9200175573  MEMB      161             0.0000000000
     18598       161  SLPC      C215           32.3096588779       12.3575906842       -5.9302558566  MEMB      161             0.0000000000
     18599       161  SLPC      H15R           31.4574586000       11.6448409036       -5.9382309336  MEMB      161             0.0000000000
     18600       161  SLPC      H15S           32.0594555359       13.1148443703       -5.1567663307  MEMB      161             0.0000000000
     18601       161  SLPC      C216           33.4878796493       11.5532938937       -5.3737055231  MEMB      161             0.0000000000
     18602       161  SLPC      H16R           33.9564651885       10.7739293558       -6.0119365534  MEMB      161             0.0000000000
     18603       161  SLPC      H16S           33.1110639933       10.9978003808       -4.4884036934  MEMB      161             0.0000000000
     18604       161  SLPC      C217           34.6102601161       12.4814519709       -4.7550560887  MEMB      161             0.0000000000
     18605       161  SLPC      H17R           34.2411330956       13.4857180312       -4.4558640260  MEMB      161             0.0000000000
     18606       161  SLPC      H17S           35.4265938626       12.5179905311       -5.5077742308  MEMB      161             0.0000000000
     18607       161  SLPC      C218           35.2385749244       11.9057592351       -3.4840835262  MEMB      161             0.0000000000
     18608       161  SLPC      H18R           35.4544671853       10.8237701391       -3.6145099566  MEMB      161             0.0000000000
     18609       161  SLPC      H18S           34.6118185747       12.1742906219       -2.6069352193  MEMB      161             0.0000000000
     18610       161  SLPC      H18T           36.1789937355       12.4691383423       -3.3037014930  MEMB      161             0.0000000000
     18611       161  SLPC      C33            32.2453399562       10.9769418361      -12.0069407996  MEMB      161             0.0000000000
     18612       161  SLPC      H3X            33.2107469617       10.6674172180      -11.5525124591  MEMB      161             0.0000000000
     18613       161  SLPC      H3Y            32.3149965159       10.7467131451      -13.0915898652  MEMB      161             0.0000000000
     18614       161  SLPC      C34            31.2494041915       10.0666152837      -11.2216256421  MEMB      161             0.0000000000
     18615       161  SLPC      H4X            31.4238971986        9.0129675488      -11.5277296870  MEMB      161             0.0000000000
     18616       161  SLPC      H4Y            30.1872033319       10.2696702153      -11.4762214363  MEMB      161             0.0000000000
     18617       161  SLPC      C35            31.3568091440       10.0372839010       -9.7210853021  MEMB      161             0.0000000000
     18618       161  SLPC      H5X            31.0086075327       11.0245303229       -9.3490352401  MEMB      161             0.0000000000
     18619       161  SLPC      H5Y            32.3850194251        9.9404713085       -9.3115342816  MEMB      161             0.0000000000
     18620       161  SLPC      C36            30.4334985800        8.9058528247       -9.0704656275  MEMB      161             0.0000000000
     18621       161  SLPC      H6X            30.7318940533        7.9339661649       -9.5184809450  MEMB      161             0.0000000000
     18622       161  SLPC      H6Y            29.4165465276        9.0241890235       -9.5018890415  MEMB      161             0.0000000000
     18623       161  SLPC      C37            30.5576388436        8.8511152727       -7.4851119333  MEMB      161             0.0000000000
     18624       161  SLPC      H7X            30.0675113561        9.7549106506       -7.0641011458  MEMB      161             0.0000000000
     18625       161  SLPC      H7Y            31.6348499341        8.8831860815       -7.2150953831  MEMB      161             0.0000000000
     18626       161  SLPC      C38            29.9100828217        7.4948175329       -7.0635863358  MEMB      161             0.0000000000
     18627       161  SLPC      H8X            30.7388399829        6.7549293627       -7.0566466656  MEMB      161             0.0000000000
     18628       161  SLPC      H8Y            29.1693258523        7.1069723978       -7.7951436034  MEMB      161             0.0000000000
     18629       161  SLPC      C39            29.1403585381        7.5290924008       -5.7042620911  MEMB      161             0.0000000000
     18630       161  SLPC      H9X            28.8016217440        6.4715602799       -5.6695558608  MEMB      161             0.0000000000
     18631       161  SLPC      H9Y            28.3550244573        8.3059483380       -5.8228645908  MEMB      161             0.0000000000
     18632       161  SLPC      C310           29.8370932303        7.9770041655       -4.4377699541  MEMB      161             0.0000000000
     18633       161  SLPC      H10X           30.5929689937        8.7631304779       -4.6498498809  MEMB      161             0.0000000000
     18634       161  SLPC      H10Y           30.4037061437        7.1239101559       -4.0070720123  MEMB      161             0.0000000000
     18635       161  SLPC      C311           28.8367700636        8.5762918329       -3.3726701850  MEMB      161             0.0000000000
     18636       161  SLPC      H11X           28.5818011186        7.8458291335       -2.5753391995  MEMB      161             0.0000000000
     18637       161  SLPC      H11Y           27.9362144514        8.9459413403       -3.9080950233  MEMB      161             0.0000000000
     18638       161  SLPC      C312           29.3812555272        9.7360125182       -2.5438549269  MEMB      161             0.0000000000
     18639       161  SLPC      H12X           28.5627203952       10.4280570861       -2.2516304291  MEMB      161             0.0000000000
     18640       161  SLPC      H12Y           29.9292581350       10.5123502724       -3.1194540140  MEMB      161             0.0000000000
     18641       161  SLPC      C313           30.4373207039        9.3410248283       -1.5071081262  MEMB      161             0.0000000000
     18642       161  SLPC      H13X           31.2875037237        8.9132397431       -2.0802658387  MEMB      161             0.0000000000
     18643       161  SLPC      H13Y           30.0242863850        8.5618849920       -0.8313382577  MEMB      161             0.0000000000
     18644       161  SLPC      C314           30.9751053186       10.4392853114       -0.6631942384  MEMB      161             0.0000000000
     18645       161  SLPC      H14X           31.4543279320       11.2499984269       -1.2526107088  MEMB      161             0.0000000000
     18646       161  SLPC      H14Y           31.7466085349        9.9138975203       -0.0606400789  MEMB      161             0.0000000000
     18647       161  SLPC      C315           30.0558451990       11.1218789796        0.3581156185  MEMB      161             0.0000000000
     18648       161  SLPC      H15X           29.1784532647       10.4550185089        0.4988326269  MEMB      161             0.0000000000
     18649       161  SLPC      H15Y           29.6705635750       12.0356717055       -0.1427452962  MEMB      161             0.0000000000
     18650       161  SLPC      C316           30.6938441630       11.4227808162        1.6891144197  MEMB      161             0.0000000000
     18651       161  SLPC      H16X           30.9738527481       10.4926901105        2.2284180872  MEMB      161             0.0000000000
     18652       161  SLPC      H16Y           29.9366597928       11.9889886910        2.2725544791  MEMB      161             0.0000000000
     18653       161  SLPC      C317           31.9789071315       12.1373337116        1.5765328470  MEMB      161             0.0000000000
     18654       161  SLPC      H17X           31.8573050901       12.9772999953        0.8596008371  MEMB      161             0.0000000000
     18655       161  SLPC      H17Y           32.7447732749       11.4013591727        1.2507845993  MEMB      161             0.0000000000
     18656       161  SLPC      C318           32.5376464125       12.7628046262        2.7919288730  MEMB      161             0.0000000000
     18657       161  SLPC      H18X           31.7678517383       13.4148391758        3.2573184475  MEMB      161             0.0000000000
     18658       161  SLPC      H18Y           33.3981679034       13.4304083969        2.5725454902  MEMB      161             0.0000000000
     18659       161  SLPC      H18Z           32.9294454694       11.9854312083        3.4822221299  MEMB      161             0.0000000000
     18660       162  OSM       N             -19.5994408048       29.0126744392      -21.9832991237  MEMB      162             0.0000000000
     18661       162  OSM       C15           -18.9728187080       30.3348030482      -21.9978408825  MEMB      162             0.0000000000
     18662       162  OSM       H15A          -19.6895198519       31.1366497917      -22.0967417261  MEMB      162             0.0000000000
     18663       162  OSM       H15B          -18.2287095373       30.3949716459      -22.7782774728  MEMB      162             0.0000000000
     18664       162  OSM       H15C          -18.3753378251       30.4760976405      -21.1093294661  MEMB      162             0.0000000000
     18665       162  OSM       C14           -20.6270131042       28.9820883904      -20.9459466408  MEMB      162             0.0000000000
     18666       162  OSM       H14A          -21.3835066027       29.5819245851      -21.4300066091  MEMB      162             0.0000000000
     18667       162  OSM       H14B          -20.2052997174       29.4639312457      -20.0762424863  MEMB      162             0.0000000000
     18668       162  OSM       H14C          -21.0245801677       28.0026027358      -20.7247038866  MEMB      162             0.0000000000
     18669       162  OSM       C13           -20.2737795935       28.8598460732      -23.3264985611  MEMB      162             0.0000000000
     18670       162  OSM       H13A          -20.9139657235       29.6987806248      -23.5561736914  MEMB      162             0.0000000000
     18671       162  OSM       H13B          -20.8737996988       27.9639339091      -23.2655327653  MEMB      162             0.0000000000
     18672       162  OSM       H13C          -19.5085769763       28.6692803958      -24.0644348425  MEMB      162             0.0000000000
     18673       162  OSM       C12           -18.5340241457       27.9519053343      -21.8820832115  MEMB      162             0.0000000000
     18674       162  OSM       H12A          -17.8875523741       28.0004669551      -22.7458632816  MEMB      162             0.0000000000
     18675       162  OSM       H12B          -18.9513021566       26.9602364829      -21.9762742619  MEMB      162             0.0000000000
     18676       162  OSM       C11           -17.6265387963       27.7408563979      -20.6564369519  MEMB      162             0.0000000000
     18677       162  OSM       H11A          -16.9687925189       26.8776223357      -20.8941717015  MEMB      162             0.0000000000
     18678       162  OSM       H11B          -18.2971598156       27.4267229106      -19.8282410039  MEMB      162             0.0000000000
     18679       162  OSM       P             -15.4433851696       28.9402748465      -20.0576722116  MEMB      162             0.0000000000
     18680       162  OSM       O13           -15.1777363780       27.8895231214      -19.1394301201  MEMB      162             0.0000000000
     18681       162  OSM       O14           -14.6442816323       28.8680179688      -21.3264851100  MEMB      162             0.0000000000
     18682       162  OSM       O11           -15.0583349030       30.3118280204      -19.3639474144  MEMB      162             0.0000000000
     18683       162  OSM       O12           -17.0164112706       28.9748347583      -20.3203597761  MEMB      162             0.0000000000
     18684       162  OSM       C1S           -16.0692604690       31.1254912854      -18.7589917549  MEMB      162             0.0000000000
     18685       162  OSM       H1S           -17.0813007080       31.0895543009      -19.2159424803  MEMB      162             0.0000000000
     18686       162  OSM       H1T           -15.7534995443       32.1906736638      -18.7573539212  MEMB      162             0.0000000000
     18687       162  OSM       NF            -17.5184642246       31.1082405759      -16.7719209009  MEMB      162             0.0000000000
     18688       162  OSM       HNF           -17.5591331572       31.9826008507      -16.2945851494  MEMB      162             0.0000000000
     18689       162  OSM       C2S           -16.2043786714       30.6687697047      -17.2900933024  MEMB      162             0.0000000000
     18690       162  OSM       H2S           -16.1921220093       29.5578412663      -17.2930653293  MEMB      162             0.0000000000
     18691       162  OSM       C3S           -15.1811240425       31.2635276735      -16.4327465328  MEMB      162             0.0000000000
     18692       162  OSM       H3S           -15.3963544748       32.3534660392      -16.4271692869  MEMB      162             0.0000000000
     18693       162  OSM       O3            -13.8051266896       31.1031118832      -16.9565581709  MEMB      162             0.0000000000
     18694       162  OSM       HO3           -13.7737384756       30.7623668007      -17.8535018112  MEMB      162             0.0000000000
     18695       162  OSM       C4S           -15.2469837515       30.6697985138      -15.0526401400  MEMB      162             0.0000000000
     18696       162  OSM       H4S           -15.6700170219       29.6642484473      -14.9115310115  MEMB      162             0.0000000000
     18697       162  OSM       C5S           -15.2425508143       31.3626979783      -13.8921764228  MEMB      162             0.0000000000
     18698       162  OSM       H5S           -15.0297531682       32.4408360554      -13.8438459183  MEMB      162             0.0000000000
     18699       162  OSM       C6S           -15.3593823517       30.6068496084      -12.5990800354  MEMB      162             0.0000000000
     18700       162  OSM       H6S           -14.3299726940       30.2676984609      -12.3549213276  MEMB      162             0.0000000000
     18701       162  OSM       H6T           -15.8719183243       29.6315298064      -12.7418347804  MEMB      162             0.0000000000
     18702       162  OSM       C7S           -15.9236915681       30.9945205612      -11.2808032907  MEMB      162             0.0000000000
     18703       162  OSM       H7S           -16.9173557724       31.4913319142      -11.2922443178  MEMB      162             0.0000000000
     18704       162  OSM       H7T           -15.3284108376       31.8749476351      -10.9570596076  MEMB      162             0.0000000000
     18705       162  OSM       C8S           -15.7397277730       30.0764925767      -10.0643411164  MEMB      162             0.0000000000
     18706       162  OSM       H8S           -16.0173867224       29.0169729748      -10.2504723182  MEMB      162             0.0000000000
     18707       162  OSM       H8T           -16.5375991078       30.4677596589       -9.3975333021  MEMB      162             0.0000000000
     18708       162  OSM       C9S           -14.3382896849       30.1236453258       -9.3078758126  MEMB      162             0.0000000000
     18709       162  OSM       H9S           -13.9932472639       31.1545668224       -9.0788176384  MEMB      162             0.0000000000
     18710       162  OSM       H9T           -13.5701890572       29.6095189531       -9.9243301384  MEMB      162             0.0000000000
     18711       162  OSM       C10S          -14.4886124042       29.4259801351       -7.9617820818  MEMB      162             0.0000000000
     18712       162  OSM       H10S          -14.8558124530       28.3776627531       -7.9844926475  MEMB      162             0.0000000000
     18713       162  OSM       H10T          -15.0986345491       30.1212004180       -7.3462631302  MEMB      162             0.0000000000
     18714       162  OSM       C11S          -13.0945428208       29.4332183999       -7.1474307277  MEMB      162             0.0000000000
     18715       162  OSM       H11S          -12.7807077461       30.4985282195       -7.1167130176  MEMB      162             0.0000000000
     18716       162  OSM       H11T          -12.3602761742       28.8763614493       -7.7679816260  MEMB      162             0.0000000000
     18717       162  OSM       C12S          -13.1581634403       28.8087104310       -5.7980067426  MEMB      162             0.0000000000
     18718       162  OSM       H12S          -12.1909477056       28.9064319597       -5.2601731574  MEMB      162             0.0000000000
     18719       162  OSM       H12T          -13.4130083231       27.7301774221       -5.7196380922  MEMB      162             0.0000000000
     18720       162  OSM       C13S          -14.3020213465       29.4428728558       -4.9463982886  MEMB      162             0.0000000000
     18721       162  OSM       H13S          -15.2058672787       28.8724434999       -5.2497038933  MEMB      162             0.0000000000
     18722       162  OSM       H13T          -14.3988045154       30.5052070836       -5.2568821060  MEMB      162             0.0000000000
     18723       162  OSM       C14S          -13.9459821741       29.5197267578       -3.4614349601  MEMB      162             0.0000000000
     18724       162  OSM       H14S          -14.7367014033       30.1074893071       -2.9479973530  MEMB      162             0.0000000000
     18725       162  OSM       H14T          -13.0730606019       30.2059322777       -3.4233435224  MEMB      162             0.0000000000
     18726       162  OSM       C15S          -13.6046977309       28.1456485451       -2.7024422874  MEMB      162             0.0000000000
     18727       162  OSM       H15S          -13.0012878580       28.5865759589       -1.8803705581  MEMB      162             0.0000000000
     18728       162  OSM       H15T          -13.0719631131       27.3949272973       -3.3244802413  MEMB      162             0.0000000000
     18729       162  OSM       C16S          -14.7650391443       27.4086354590       -2.0581767765  MEMB      162             0.0000000000
     18730       162  OSM       H16S          -15.2328256495       28.0107064761       -1.2500877030  MEMB      162             0.0000000000
     18731       162  OSM       H16T          -14.3717399273       26.4699594928       -1.6126163393  MEMB      162             0.0000000000
     18732       162  OSM       C17S          -15.8242331826       26.8445551772       -2.9962731873  MEMB      162             0.0000000000
     18733       162  OSM       H17S          -15.3782665394       26.1985089938       -3.7824396088  MEMB      162             0.0000000000
     18734       162  OSM       H17T          -16.4019877823       27.6664370534       -3.4706465846  MEMB      162             0.0000000000
     18735       162  OSM       C18S          -16.8826971799       25.9839440577       -2.2638108568  MEMB      162             0.0000000000
     18736       162  OSM       H18S          -16.4569878279       25.0696246980       -1.7978582156  MEMB      162             0.0000000000
     18737       162  OSM       H18T          -17.6866686218       25.7885065776       -3.0052671987  MEMB      162             0.0000000000
     18738       162  OSM       H18U          -17.3660183837       26.5316707279       -1.4267229870  MEMB      162             0.0000000000
     18739       162  OSM       C1F           -18.7127395464       30.5662469383      -17.0850128375  MEMB      162             0.0000000000
     18740       162  OSM       OF            -18.8755864834       29.5896346351      -17.8476586358  MEMB      162             0.0000000000
     18741       162  OSM       C2F           -19.8640825161       31.2655118102      -16.4924741894  MEMB      162             0.0000000000
     18742       162  OSM       H2F           -20.3860846102       31.9744722637      -17.1701245344  MEMB      162             0.0000000000
     18743       162  OSM       H2G           -19.4682642685       31.9410390029      -15.7042403537  MEMB      162             0.0000000000
     18744       162  OSM       C3F           -20.8290976397       30.2372153777      -15.8926696018  MEMB      162             0.0000000000
     18745       162  OSM       H3F           -21.4603482159       29.7239186546      -16.6492214773  MEMB      162             0.0000000000
     18746       162  OSM       H3G           -21.5290846646       30.9370203446      -15.3880791995  MEMB      162             0.0000000000
     18747       162  OSM       C4F           -20.1809457578       29.2500822988      -14.9080793593  MEMB      162             0.0000000000
     18748       162  OSM       H4F           -19.4543482287       28.7608613528      -15.5914825631  MEMB      162             0.0000000000
     18749       162  OSM       H4G           -21.0371245198       28.5762782812      -14.6906691847  MEMB      162             0.0000000000
     18750       162  OSM       C5F           -19.5817167394       29.8962192163      -13.7175879785  MEMB      162             0.0000000000
     18751       162  OSM       H5F           -18.7833411193       30.6600363954      -13.8337803104  MEMB      162             0.0000000000
     18752       162  OSM       H5G           -19.1934974311       29.0796212054      -13.0720072086  MEMB      162             0.0000000000
     18753       162  OSM       C6F           -20.4905477706       30.6194077059      -12.6947456292  MEMB      162             0.0000000000
     18754       162  OSM       H6F           -21.2405449818       29.8552028646      -12.3984084370  MEMB      162             0.0000000000
     18755       162  OSM       H6G           -21.0249214092       31.4167905912      -13.2541617027  MEMB      162             0.0000000000
     18756       162  OSM       C7F           -19.6741961285       31.2195669080      -11.4960347834  MEMB      162             0.0000000000
     18757       162  OSM       H7F           -18.9927890432       31.9719280517      -11.9476520969  MEMB      162             0.0000000000
     18758       162  OSM       H7G           -19.0848034408       30.3559164995      -11.1204746260  MEMB      162             0.0000000000
     18759       162  OSM       C8F           -20.6620593056       31.8709149571      -10.4961965663  MEMB      162             0.0000000000
     18760       162  OSM       H8F           -21.3673456033       32.5641941213      -11.0024132757  MEMB      162             0.0000000000
     18761       162  OSM       H8G           -20.0915669081       32.6155300931       -9.9008750579  MEMB      162             0.0000000000
     18762       162  OSM       C9F           -21.4267655992       30.8755427417       -9.6414394628  MEMB      162             0.0000000000
     18763       162  OSM       H9F           -22.4869333328       30.9881266623       -9.9123067918  MEMB      162             0.0000000000
     18764       162  OSM       C10F          -21.0331324392       30.0313262762       -8.6837532940  MEMB      162             0.0000000000
     18765       162  OSM       H10F          -21.7923905548       29.4269395579       -8.1658310932  MEMB      162             0.0000000000
     18766       162  OSM       C11F          -19.5879919646       29.8833999796       -8.2747033900  MEMB      162             0.0000000000
     18767       162  OSM       H11F          -18.9052582129       30.7020696375       -8.5877135491  MEMB      162             0.0000000000
     18768       162  OSM       H11G          -19.2252568991       28.9096048639       -8.6677258748  MEMB      162             0.0000000000
     18769       162  OSM       C12F          -19.5056591864       29.8714561345       -6.6652875273  MEMB      162             0.0000000000
     18770       162  OSM       H12F          -18.4775164166       29.5953628556       -6.3474572668  MEMB      162             0.0000000000
     18771       162  OSM       H12G          -20.2448173309       29.1544830532       -6.2482553419  MEMB      162             0.0000000000
     18772       162  OSM       C13F          -19.9589853706       31.3260072386       -6.0881777785  MEMB      162             0.0000000000
     18773       162  OSM       H13F          -21.0344623894       31.5669969816       -6.2281574664  MEMB      162             0.0000000000
     18774       162  OSM       H13G          -19.4144445494       32.1524029736       -6.5930210929  MEMB      162             0.0000000000
     18775       162  OSM       C14F          -19.6810322571       31.4832277095       -4.5627449475  MEMB      162             0.0000000000
     18776       162  OSM       H14F          -19.2249126482       32.4581945100       -4.2875790803  MEMB      162             0.0000000000
     18777       162  OSM       H14G          -18.9260173603       30.7061869934       -4.3168144027  MEMB      162             0.0000000000
     18778       162  OSM       C15F          -20.9114837238       31.1781572756       -3.7470277008  MEMB      162             0.0000000000
     18779       162  OSM       H15F          -21.0534096137       30.0771884684       -3.7017982325  MEMB      162             0.0000000000
     18780       162  OSM       H15G          -21.8206978014       31.4552979385       -4.3222184340  MEMB      162             0.0000000000
     18781       162  OSM       C16F          -20.8988491799       31.7489188993       -2.2961762329  MEMB      162             0.0000000000
     18782       162  OSM       H16F          -21.8755115590       31.6154827442       -1.7836875185  MEMB      162             0.0000000000
     18783       162  OSM       H16G          -20.6708715302       32.8356668341       -2.3325908408  MEMB      162             0.0000000000
     18784       162  OSM       C17F          -19.7390651023       31.1740885524       -1.4484938380  MEMB      162             0.0000000000
     18785       162  OSM       H17F          -18.7970447638       30.9861530208       -2.0067041564  MEMB      162             0.0000000000
     18786       162  OSM       H17G          -20.0668064738       30.1679141400       -1.1100857059  MEMB      162             0.0000000000
     18787       162  OSM       C18F          -19.4441782132       32.1025512745       -0.2537910431  MEMB      162             0.0000000000
     18788       162  OSM       H18F          -20.3380878935       32.2268871329        0.3941192515  MEMB      162             0.0000000000
     18789       162  OSM       H18G          -18.9356512038       33.0483783113       -0.5386281728  MEMB      162             0.0000000000
     18790       162  OSM       H18H          -18.6919208562       31.5424032422        0.3417459926  MEMB      162             0.0000000000
     18791       163  OSM       N               0.2642985114      -33.7639637031      -22.7644629536  MEMB      163             0.0000000000
     18792       163  OSM       C15            -0.3762116802      -33.7673137201      -24.1283124666  MEMB      163             0.0000000000
     18793       163  OSM       H15A            0.4040591537      -33.3460428843      -24.7448419829  MEMB      163             0.0000000000
     18794       163  OSM       H15B           -1.2279944229      -33.1034727307      -24.1417755011  MEMB      163             0.0000000000
     18795       163  OSM       H15C           -0.6773317230      -34.7337455073      -24.5047915621  MEMB      163             0.0000000000
     18796       163  OSM       C14             0.6661573595      -32.2781407023      -22.5979304914  MEMB      163             0.0000000000
     18797       163  OSM       H14A            0.1835851546      -31.7508932380      -23.4075810601  MEMB      163             0.0000000000
     18798       163  OSM       H14B            1.7359792956      -32.1515036877      -22.6743771049  MEMB      163             0.0000000000
     18799       163  OSM       H14C            0.4140815707      -31.9171713852      -21.6117463725  MEMB      163             0.0000000000
     18800       163  OSM       C13            -0.8847508078      -34.1480048144      -21.8639403869  MEMB      163             0.0000000000
     18801       163  OSM       H13A           -1.3111861457      -35.0916038240      -22.1708176916  MEMB      163             0.0000000000
     18802       163  OSM       H13B           -1.5830418403      -33.3247739437      -21.8968118546  MEMB      163             0.0000000000
     18803       163  OSM       H13C           -0.4785749779      -34.2462544145      -20.8680647636  MEMB      163             0.0000000000
     18804       163  OSM       C12             1.3893210372      -34.7534006474      -22.7917137745  MEMB      163             0.0000000000
     18805       163  OSM       H12A            1.9893416788      -34.5897882185      -23.6746670732  MEMB      163             0.0000000000
     18806       163  OSM       H12B            1.0046382242      -35.7601596675      -22.8613954268  MEMB      163             0.0000000000
     18807       163  OSM       C11             2.3993637485      -34.8930016763      -21.6092501729  MEMB      163             0.0000000000
     18808       163  OSM       H11A            3.0089727316      -33.9641863755      -21.6090270477  MEMB      163             0.0000000000
     18809       163  OSM       H11B            2.8702979217      -35.8847436470      -21.7795146261  MEMB      163             0.0000000000
     18810       163  OSM       P               2.3786277643      -34.6180534599      -19.0264243586  MEMB      163             0.0000000000
     18811       163  OSM       O13             3.3747334486      -35.6470343328      -18.6769126615  MEMB      163             0.0000000000
     18812       163  OSM       O14             2.8436525309      -33.2618350886      -19.2175592338  MEMB      163             0.0000000000
     18813       163  OSM       O11             1.2352532648      -34.7121523801      -17.9211003326  MEMB      163             0.0000000000
     18814       163  OSM       O12             1.6798445507      -35.0537602722      -20.4023931705  MEMB      163             0.0000000000
     18815       163  OSM       C1S            -0.1291321240      -34.5772542657      -18.0340888354  MEMB      163             0.0000000000
     18816       163  OSM       H1S            -0.6035253391      -35.1174692715      -18.8811069803  MEMB      163             0.0000000000
     18817       163  OSM       H1T            -0.3311956732      -33.5306652066      -18.3473660333  MEMB      163             0.0000000000
     18818       163  OSM       NF             -0.3367101830      -33.8030502039      -15.6444917250  MEMB      163             0.0000000000
     18819       163  OSM       HNF             0.4644348428      -34.0180594673      -15.0913674693  MEMB      163             0.0000000000
     18820       163  OSM       C2S            -0.7587120518      -34.7868543300      -16.5958440882  MEMB      163             0.0000000000
     18821       163  OSM       H2S            -1.8680574429      -34.7276987317      -16.6090619690  MEMB      163             0.0000000000
     18822       163  OSM       C3S            -0.3519874498      -36.2187733818      -16.1571282469  MEMB      163             0.0000000000
     18823       163  OSM       H3S             0.7525749657      -36.3367225343      -16.1758607889  MEMB      163             0.0000000000
     18824       163  OSM       O3             -0.8324289524      -37.1974477906      -17.0920297610  MEMB      163             0.0000000000
     18825       163  OSM       HO3            -1.1633314725      -36.6910515290      -17.8374601718  MEMB      163             0.0000000000
     18826       163  OSM       C4S            -0.8417819517      -36.5103660868      -14.7922362754  MEMB      163             0.0000000000
     18827       163  OSM       H4S            -1.9049571234      -36.3011043816      -14.6028481455  MEMB      163             0.0000000000
     18828       163  OSM       C5S            -0.0073684606      -36.9780710055      -13.7967954891  MEMB      163             0.0000000000
     18829       163  OSM       H5S             1.0611972570      -37.0468675985      -14.0486570947  MEMB      163             0.0000000000
     18830       163  OSM       C6S            -0.2938553268      -37.2640581375      -12.3471914551  MEMB      163             0.0000000000
     18831       163  OSM       H6S             0.5525046042      -36.8829631024      -11.7366482696  MEMB      163             0.0000000000
     18832       163  OSM       H6T            -0.2061098097      -38.3559260540      -12.1615966367  MEMB      163             0.0000000000
     18833       163  OSM       C7S            -1.5497977941      -36.6930639158      -11.5962393973  MEMB      163             0.0000000000
     18834       163  OSM       H7S            -2.5075825363      -37.0627333888      -12.0208735674  MEMB      163             0.0000000000
     18835       163  OSM       H7T            -1.5557644270      -35.5913957184      -11.7398093815  MEMB      163             0.0000000000
     18836       163  OSM       C8S            -1.7011412755      -37.0683332579      -10.0664433625  MEMB      163             0.0000000000
     18837       163  OSM       H8S            -1.9114674281      -38.1573130957      -10.1313028290  MEMB      163             0.0000000000
     18838       163  OSM       H8T            -2.6698311073      -36.5902752110       -9.8067862100  MEMB      163             0.0000000000
     18839       163  OSM       C9S            -0.5241129722      -36.8220583847       -9.0541375343  MEMB      163             0.0000000000
     18840       163  OSM       H9S             0.2931346674      -36.4654033506       -9.7168766782  MEMB      163             0.0000000000
     18841       163  OSM       H9T            -0.2372804917      -37.8319771383       -8.6906644510  MEMB      163             0.0000000000
     18842       163  OSM       C10S           -0.7499103623      -35.9621421601       -7.8407746631  MEMB      163             0.0000000000
     18843       163  OSM       H10S           -0.0312914615      -36.0801401862       -7.0017366951  MEMB      163             0.0000000000
     18844       163  OSM       H10T           -1.7414991596      -36.3196399548       -7.4896797048  MEMB      163             0.0000000000
     18845       163  OSM       C11S           -0.8978484933      -34.5239789846       -8.2711060102  MEMB      163             0.0000000000
     18846       163  OSM       H11S           -1.8877371490      -34.3946720996       -8.7586731887  MEMB      163             0.0000000000
     18847       163  OSM       H11T           -0.2396040589      -34.3592774803       -9.1508270031  MEMB      163             0.0000000000
     18848       163  OSM       C12S           -0.8118083018      -33.5258346037       -7.1731885599  MEMB      163             0.0000000000
     18849       163  OSM       H12S           -0.7404641278      -32.4676559661       -7.5040796822  MEMB      163             0.0000000000
     18850       163  OSM       H12T            0.1395682934      -33.5638556698       -6.6006870084  MEMB      163             0.0000000000
     18851       163  OSM       C13S           -1.9306542247      -33.5555868014       -6.1219097478  MEMB      163             0.0000000000
     18852       163  OSM       H13S           -2.0406993079      -34.5556899204       -5.6507353823  MEMB      163             0.0000000000
     18853       163  OSM       H13T           -2.9390234452      -33.3041358943       -6.5147003632  MEMB      163             0.0000000000
     18854       163  OSM       C14S           -1.6891857125      -32.5397548478       -4.9227916449  MEMB      163             0.0000000000
     18855       163  OSM       H14S           -2.6982529510      -32.5334591948       -4.4579639324  MEMB      163             0.0000000000
     18856       163  OSM       H14T           -1.5198934498      -31.5071836665       -5.2962318871  MEMB      163             0.0000000000
     18857       163  OSM       C15S           -0.6626085611      -32.9137288079       -3.7808777736  MEMB      163             0.0000000000
     18858       163  OSM       H15S            0.1583294327      -33.5093141909       -4.2343758195  MEMB      163             0.0000000000
     18859       163  OSM       H15T           -1.1672183922      -33.5813928393       -3.0501823721  MEMB      163             0.0000000000
     18860       163  OSM       C16S            0.1442057571      -31.7996319029       -3.0826712141  MEMB      163             0.0000000000
     18861       163  OSM       H16S            1.0853787930      -31.5885369851       -3.6339908319  MEMB      163             0.0000000000
     18862       163  OSM       H16T            0.4167822302      -32.2358798387       -2.0979316302  MEMB      163             0.0000000000
     18863       163  OSM       C17S           -0.7203689995      -30.4936905495       -2.7771522475  MEMB      163             0.0000000000
     18864       163  OSM       H17S           -1.5356373251      -30.7850315159       -2.0808917838  MEMB      163             0.0000000000
     18865       163  OSM       H17T           -1.0988927643      -30.1392231948       -3.7596965540  MEMB      163             0.0000000000
     18866       163  OSM       C18S            0.0260003834      -29.3054842960       -2.2152016393  MEMB      163             0.0000000000
     18867       163  OSM       H18S           -0.6368254671      -28.4608201658       -1.9296739741  MEMB      163             0.0000000000
     18868       163  OSM       H18T            0.7659416608      -28.9760622430       -2.9756539699  MEMB      163             0.0000000000
     18869       163  OSM       H18U            0.6077958446      -29.5214524028       -1.2936848670  MEMB      163             0.0000000000
     18870       163  OSM       C1F            -0.7643417378      -32.5614016659      -15.8923697814  MEMB      163             0.0000000000
     18871       163  OSM       OF             -1.8339358099      -32.1970704238      -16.3404444957  MEMB      163             0.0000000000
     18872       163  OSM       C2F             0.3453158964      -31.5708109757      -15.6247452980  MEMB      163             0.0000000000
     18873       163  OSM       H2F            -0.1404913987      -30.5772963001      -15.5187205460  MEMB      163             0.0000000000
     18874       163  OSM       H2G             1.0884630618      -31.5416583438      -16.4500957660  MEMB      163             0.0000000000
     18875       163  OSM       C3F             1.1368027726      -31.7825138421      -14.3345353188  MEMB      163             0.0000000000
     18876       163  OSM       H3F             1.9871443740      -31.0780218302      -14.4567293105  MEMB      163             0.0000000000
     18877       163  OSM       H3G             1.5784670545      -32.8016359971      -14.3599047527  MEMB      163             0.0000000000
     18878       163  OSM       C4F             0.4869071121      -31.4580212472      -12.9588439813  MEMB      163             0.0000000000
     18879       163  OSM       H4F            -0.2109722269      -32.2929273253      -12.7347516810  MEMB      163             0.0000000000
     18880       163  OSM       H4G             0.0048375810      -30.4593066834      -13.0259210212  MEMB      163             0.0000000000
     18881       163  OSM       C5F             1.4402473509      -31.2796505015      -11.8250190096  MEMB      163             0.0000000000
     18882       163  OSM       H5F             1.9781969799      -30.3180946509      -11.9676422164  MEMB      163             0.0000000000
     18883       163  OSM       H5G             2.2017154960      -32.0884805564      -11.8082437114  MEMB      163             0.0000000000
     18884       163  OSM       C6F             0.6963400012      -31.3325800277      -10.4346694856  MEMB      163             0.0000000000
     18885       163  OSM       H6F             0.0826389080      -32.2373339032      -10.2369006267  MEMB      163             0.0000000000
     18886       163  OSM       H6G             0.0219829748      -30.4568064379      -10.3224912927  MEMB      163             0.0000000000
     18887       163  OSM       C7F             1.7954507568      -31.0837888897       -9.3190513562  MEMB      163             0.0000000000
     18888       163  OSM       H7F             1.4148951163      -31.2113315363       -8.2830824138  MEMB      163             0.0000000000
     18889       163  OSM       H7G             2.1396195961      -30.0490151925       -9.5314482653  MEMB      163             0.0000000000
     18890       163  OSM       C8F             2.9290772425      -32.1331438338       -9.2851731854  MEMB      163             0.0000000000
     18891       163  OSM       H8F             3.5348950050      -31.9707630795      -10.2022001681  MEMB      163             0.0000000000
     18892       163  OSM       H8G             2.4520965500      -33.1242594742       -9.4416991858  MEMB      163             0.0000000000
     18893       163  OSM       C9F             3.9439252213      -31.9643987517       -8.1835765360  MEMB      163             0.0000000000
     18894       163  OSM       H9F             4.1635819534      -30.9240601510       -7.9017134151  MEMB      163             0.0000000000
     18895       163  OSM       C10F            4.3656368759      -32.9208953680       -7.3503272599  MEMB      163             0.0000000000
     18896       163  OSM       H10F            4.8982837280      -32.7085651075       -6.4116025318  MEMB      163             0.0000000000
     18897       163  OSM       C11F            3.8923946680      -34.3958462554       -7.4771391037  MEMB      163             0.0000000000
     18898       163  OSM       H11F            4.7372222003      -35.0891033791       -7.6770931138  MEMB      163             0.0000000000
     18899       163  OSM       H11G            3.1605086097      -34.6084349954       -8.2855136597  MEMB      163             0.0000000000
     18900       163  OSM       C12F            3.2976108045      -34.9436941650       -6.0809517447  MEMB      163             0.0000000000
     18901       163  OSM       H12F            3.3923300114      -36.0340805919       -6.2717579995  MEMB      163             0.0000000000
     18902       163  OSM       H12G            2.2332400764      -34.6643388352       -5.9279929799  MEMB      163             0.0000000000
     18903       163  OSM       C13F            4.2052589320      -34.6434638293       -4.8808491627  MEMB      163             0.0000000000
     18904       163  OSM       H13F            4.0465050624      -33.6281987402       -4.4585272191  MEMB      163             0.0000000000
     18905       163  OSM       H13G            5.2605082474      -34.6500761943       -5.2283059993  MEMB      163             0.0000000000
     18906       163  OSM       C14F            4.0274081988      -35.5441388651       -3.6371319479  MEMB      163             0.0000000000
     18907       163  OSM       H14F            4.6065524538      -35.0974759567       -2.8008283305  MEMB      163             0.0000000000
     18908       163  OSM       H14G            4.4385972973      -36.5675974432       -3.7704637886  MEMB      163             0.0000000000
     18909       163  OSM       C15F            2.6392030059      -35.4415191075       -2.9428720364  MEMB      163             0.0000000000
     18910       163  OSM       H15F            1.9126864092      -36.0589576572       -3.5131897723  MEMB      163             0.0000000000
     18911       163  OSM       H15G            2.2896214096      -34.3885305079       -2.8851741460  MEMB      163             0.0000000000
     18912       163  OSM       C16F            2.8325383298      -36.0861077467       -1.5344617536  MEMB      163             0.0000000000
     18913       163  OSM       H16F            3.6007391366      -35.5587270671       -0.9294343495  MEMB      163             0.0000000000
     18914       163  OSM       H16G            3.1957450256      -37.1304118154       -1.6432275985  MEMB      163             0.0000000000
     18915       163  OSM       C17F            1.5706764716      -36.3368271868       -0.6362307995  MEMB      163             0.0000000000
     18916       163  OSM       H17F            1.6138711770      -37.2957044400       -0.0767587083  MEMB      163             0.0000000000
     18917       163  OSM       H17G            0.7500395442      -36.3400540212       -1.3851407550  MEMB      163             0.0000000000
     18918       163  OSM       C18F            1.4416366090      -35.2757930131        0.4037036422  MEMB      163             0.0000000000
     18919       163  OSM       H18F            2.2690004664      -35.0967782662        1.1232476097  MEMB      163             0.0000000000
     18920       163  OSM       H18G            0.5285838514      -35.4045554052        1.0234422682  MEMB      163             0.0000000000
     18921       163  OSM       H18H            1.2945007299      -34.3359716498       -0.1702366754  MEMB      163             0.0000000000
     18922       164  SAPE      N              28.5708071909       17.4891966835      -22.4476697012  MEMB      164             0.0000000000
     18923       164  SAPE      HN1            28.4385671184       17.3289693636      -23.4667084475  MEMB      164             0.0000000000
     18924       164  SAPE      HN2            28.0637742843       16.7970408562      -21.8599300000  MEMB      164             0.0000000000
     18925       164  SAPE      HN3            28.1722203379       18.4476238909      -22.3832818655  MEMB      164             0.0000000000
     18926       164  SAPE      C12            29.9919408396       17.4525725796      -22.0609766501  MEMB      164             0.0000000000
     18927       164  SAPE      H12A           30.4445054789       18.3797607914      -22.4730788569  MEMB      164             0.0000000000
     18928       164  SAPE      H12B           30.4940665863       16.5950717027      -22.5578499986  MEMB      164             0.0000000000
     18929       164  SAPE      C11            30.2293997508       17.3777853328      -20.5831279808  MEMB      164             0.0000000000
     18930       164  SAPE      H11A           31.2872443785       17.2050245814      -20.2908278370  MEMB      164             0.0000000000
     18931       164  SAPE      H11B           29.5663255384       16.5596473502      -20.2291451148  MEMB      164             0.0000000000
     18932       164  SAPE      P              28.8446025407       18.7489625320      -18.9832652033  MEMB      164             0.0000000000
     18933       164  SAPE      O13            28.8174072766       20.0845999964      -18.3400546446  MEMB      164             0.0000000000
     18934       164  SAPE      O14            27.7122165728       18.2376075587      -19.7028628365  MEMB      164             0.0000000000
     18935       164  SAPE      O12            30.0876495876       18.6617952449      -20.0079440201  MEMB      164             0.0000000000
     18936       164  SAPE      O11            29.2927306411       17.6264120668      -17.8740989631  MEMB      164             0.0000000000
     18937       164  SAPE      C1             28.1845753385       17.1309617774      -17.1676753843  MEMB      164             0.0000000000
     18938       164  SAPE      HA             27.1790874725       17.1606566211      -17.6393038454  MEMB      164             0.0000000000
     18939       164  SAPE      HB             28.3513215528       16.0415848998      -17.0270537007  MEMB      164             0.0000000000
     18940       164  SAPE      C2             28.1121733892       17.8398661580      -15.8447013253  MEMB      164             0.0000000000
     18941       164  SAPE      HS             27.9859740605       18.9387177665      -15.9492001178  MEMB      164             0.0000000000
     18942       164  SAPE      O21            29.2965093222       17.4995194626      -15.0908768648  MEMB      164             0.0000000000
     18943       164  SAPE      C21            29.6361107125       18.3766630100      -14.1179594775  MEMB      164             0.0000000000
     18944       164  SAPE      O22            29.1274042330       19.5070189434      -13.9033775267  MEMB      164             0.0000000000
     18945       164  SAPE      C22            30.7301131674       17.8239407055      -13.2156426284  MEMB      164             0.0000000000
     18946       164  SAPE      H2R            31.3271545493       17.0628779236      -13.7621278201  MEMB      164             0.0000000000
     18947       164  SAPE      H2S            31.3366788054       18.6210414612      -12.7349871827  MEMB      164             0.0000000000
     18948       164  SAPE      C3             26.8310495528       17.3947488994      -15.0493259755  MEMB      164             0.0000000000
     18949       164  SAPE      HX             27.0186840728       16.3896529035      -14.6147040369  MEMB      164             0.0000000000
     18950       164  SAPE      HY             26.0350631700       17.1992988914      -15.7993433224  MEMB      164             0.0000000000
     18951       164  SAPE      O31            26.3670893131       18.3527370076      -14.0914828760  MEMB      164             0.0000000000
     18952       164  SAPE      C31            25.1152976173       18.3972675951      -13.7239191599  MEMB      164             0.0000000000
     18953       164  SAPE      O32            24.2908517437       17.5584196150      -14.0702566497  MEMB      164             0.0000000000
     18954       164  SAPE      C32            24.7768565012       19.5050521920      -12.6934753094  MEMB      164             0.0000000000
     18955       164  SAPE      H2X            24.2857003545       20.3815568940      -13.1676334570  MEMB      164             0.0000000000
     18956       164  SAPE      H2Y            25.6730661993       19.8503858394      -12.1350186980  MEMB      164             0.0000000000
     18957       164  SAPE      C23            29.8906811281       17.3029090866      -12.0907718365  MEMB      164             0.0000000000
     18958       164  SAPE      H3R            29.0614903648       16.6195979604      -12.3733482378  MEMB      164             0.0000000000
     18959       164  SAPE      H3S            29.5155338792       18.1717230490      -11.5087511191  MEMB      164             0.0000000000
     18960       164  SAPE      C24            30.7563623313       16.3810483844      -11.2294233709  MEMB      164             0.0000000000
     18961       164  SAPE      H4R            31.1196817340       15.5758365538      -11.9031842199  MEMB      164             0.0000000000
     18962       164  SAPE      H4S            30.0185321425       16.0390529454      -10.4724777633  MEMB      164             0.0000000000
     18963       164  SAPE      C25            31.9732744912       16.9158313135      -10.6487662697  MEMB      164             0.0000000000
     18964       164  SAPE      H5R            32.8676015003       16.9276177021      -11.2891101275  MEMB      164             0.0000000000
     18965       164  SAPE      C26            32.0597714231       17.5636310748       -9.4889650864  MEMB      164             0.0000000000
     18966       164  SAPE      H6R            33.0115401948       17.8426249845       -9.0132559172  MEMB      164             0.0000000000
     18967       164  SAPE      C27            30.9096746192       17.8754460146       -8.5141514355  MEMB      164             0.0000000000
     18968       164  SAPE      H7R            30.4365562979       16.9627969854       -8.0927822725  MEMB      164             0.0000000000
     18969       164  SAPE      H7S            30.1666247970       18.4178748684       -9.1370221230  MEMB      164             0.0000000000
     18970       164  SAPE      C28            31.3360031686       18.8179691684       -7.3965090769  MEMB      164             0.0000000000
     18971       164  SAPE      H8R            31.3470888044       19.9015097072       -7.5857644217  MEMB      164             0.0000000000
     18972       164  SAPE      C29            31.7498673970       18.4057086416       -6.2039195299  MEMB      164             0.0000000000
     18973       164  SAPE      H9R            31.9582077274       19.1646550894       -5.4354182613  MEMB      164             0.0000000000
     18974       164  SAPE      C210           31.9230065500       16.9916364306       -5.6537098054  MEMB      164             0.0000000000
     18975       164  SAPE      H10R           32.8639973972       17.0090880828       -5.0633264277  MEMB      164             0.0000000000
     18976       164  SAPE      H10S           31.9136736926       16.3313526578       -6.5471637153  MEMB      164             0.0000000000
     18977       164  SAPE      C211           30.7996049048       16.5236147689       -4.7200693601  MEMB      164             0.0000000000
     18978       164  SAPE      H11R           29.8137188553       16.1589173203       -5.0441444664  MEMB      164             0.0000000000
     18979       164  SAPE      C212           30.9044869196       16.4556672150       -3.4018293892  MEMB      164             0.0000000000
     18980       164  SAPE      H12R           30.0469760081       16.0754090157       -2.8273043681  MEMB      164             0.0000000000
     18981       164  SAPE      C213           32.0724092167       16.7440659873       -2.4933995712  MEMB      164             0.0000000000
     18982       164  SAPE      H13R           33.0151263360       17.0029158167       -3.0212267290  MEMB      164             0.0000000000
     18983       164  SAPE      H13S           32.2941508082       15.8159332594       -1.9244344818  MEMB      164             0.0000000000
     18984       164  SAPE      C214           31.9272313600       17.9269925118       -1.6135317679  MEMB      164             0.0000000000
     18985       164  SAPE      H14R           32.1581251978       18.8951760732       -2.0818349359  MEMB      164             0.0000000000
     18986       164  SAPE      C215           31.5727522408       17.9810177604       -0.3325769526  MEMB      164             0.0000000000
     18987       164  SAPE      H15R           31.3895893475       18.9049922478        0.2355090833  MEMB      164             0.0000000000
     18988       164  SAPE      C216           31.2303943539       16.7793501120        0.5168790571  MEMB      164             0.0000000000
     18989       164  SAPE      H16R           30.4431788590       16.2320478541       -0.0444354903  MEMB      164             0.0000000000
     18990       164  SAPE      H16S           30.7280380019       17.1772154149        1.4244367345  MEMB      164             0.0000000000
     18991       164  SAPE      C217           32.4965900664       16.0097360785        0.9819982479  MEMB      164             0.0000000000
     18992       164  SAPE      H17R           33.4045723617       16.3222479685        0.4232262193  MEMB      164             0.0000000000
     18993       164  SAPE      H17S           32.1607618415       15.0082216742        0.6377464848  MEMB      164             0.0000000000
     18994       164  SAPE      C218           32.7811927901       15.8819841481        2.4245325956  MEMB      164             0.0000000000
     18995       164  SAPE      H18R           33.5143209557       15.0684776721        2.6117525271  MEMB      164             0.0000000000
     18996       164  SAPE      H18S           31.8848855864       15.6943728584        3.0536243985  MEMB      164             0.0000000000
     18997       164  SAPE      C219           33.3241701224       17.1759214318        3.0687473479  MEMB      164             0.0000000000
     18998       164  SAPE      H19R           33.6594448979       16.9252511277        4.0978617666  MEMB      164             0.0000000000
     18999       164  SAPE      H19S           32.5060649057       17.9275719331        3.0619595343  MEMB      164             0.0000000000
     19000       164  SAPE      C220           34.6044336664       17.5992177628        2.3530737852  MEMB      164             0.0000000000
     19001       164  SAPE      H20R           35.1295450249       18.4608026495        2.8181018738  MEMB      164             0.0000000000
     19002       164  SAPE      H20S           34.4192817204       17.9864890273        1.3283488150  MEMB      164             0.0000000000
     19003       164  SAPE      H20T           35.4017691733       16.8299831387        2.2702766950  MEMB      164             0.0000000000
     19004       164  SAPE      C33            23.9070560748       18.9097801420      -11.4617621647  MEMB      164             0.0000000000
     19005       164  SAPE      H3X            23.6229771293       17.8603251132      -11.6903747567  MEMB      164             0.0000000000
     19006       164  SAPE      H3Y            22.9034393520       19.3827116615      -11.4033645145  MEMB      164             0.0000000000
     19007       164  SAPE      C34            24.4165355388       18.9071204769      -10.0555330514  MEMB      164             0.0000000000
     19008       164  SAPE      H4X            23.5744501833       18.6623208142       -9.3734140153  MEMB      164             0.0000000000
     19009       164  SAPE      H4Y            24.6463910011       19.9849646928       -9.9150370009  MEMB      164             0.0000000000
     19010       164  SAPE      C35            25.6668540361       18.1315709685       -9.5973339728  MEMB      164             0.0000000000
     19011       164  SAPE      H5X            25.8126770083       18.4013887100       -8.5295064038  MEMB      164             0.0000000000
     19012       164  SAPE      H5Y            26.5482396375       18.5279660753      -10.1453766849  MEMB      164             0.0000000000
     19013       164  SAPE      C36            25.4464837501       16.6543890346       -9.6758870516  MEMB      164             0.0000000000
     19014       164  SAPE      H6X            25.2762736328       16.3741261885      -10.7373960979  MEMB      164             0.0000000000
     19015       164  SAPE      H6Y            24.5270876918       16.3091441730       -9.1564271136  MEMB      164             0.0000000000
     19016       164  SAPE      C37            26.6962784435       15.8424465763       -9.2622542210  MEMB      164             0.0000000000
     19017       164  SAPE      H7X            27.6551242728       16.4029300817       -9.2904337790  MEMB      164             0.0000000000
     19018       164  SAPE      H7Y            26.7833792071       15.0560572761      -10.0422063980  MEMB      164             0.0000000000
     19019       164  SAPE      C38            26.5495698412       15.3070498781       -7.7905038084  MEMB      164             0.0000000000
     19020       164  SAPE      H8X            27.3856624293       14.6067280622       -7.5787979214  MEMB      164             0.0000000000
     19021       164  SAPE      H8Y            25.6068032009       14.7193162289       -7.7814904587  MEMB      164             0.0000000000
     19022       164  SAPE      C39            26.5863172498       16.3803746599       -6.7333063851  MEMB      164             0.0000000000
     19023       164  SAPE      H9X            25.6555185524       16.9564474996       -6.9232400524  MEMB      164             0.0000000000
     19024       164  SAPE      H9Y            27.4341026589       17.0980594462       -6.7558738012  MEMB      164             0.0000000000
     19025       164  SAPE      C310           26.5618114508       15.9464897400       -5.2809087576  MEMB      164             0.0000000000
     19026       164  SAPE      H10X           27.4183451547       15.3141833270       -4.9633244804  MEMB      164             0.0000000000
     19027       164  SAPE      H10Y           25.7467630775       15.2189666763       -5.0790976788  MEMB      164             0.0000000000
     19028       164  SAPE      C311           26.3947372105       17.0710219381       -4.2813730676  MEMB      164             0.0000000000
     19029       164  SAPE      H11X           25.5594326639       17.7801899036       -4.4648632955  MEMB      164             0.0000000000
     19030       164  SAPE      H11Y           27.2905943185       17.7253202796       -4.2209190768  MEMB      164             0.0000000000
     19031       164  SAPE      C312           26.0412625949       16.5151413749       -2.8541900827  MEMB      164             0.0000000000
     19032       164  SAPE      H12X           26.8940234347       15.8255556649       -2.6764503634  MEMB      164             0.0000000000
     19033       164  SAPE      H12Y           25.0988031805       15.9472221700       -3.0076808162  MEMB      164             0.0000000000
     19034       164  SAPE      C313           25.7172897648       17.5079718146       -1.7607104844  MEMB      164             0.0000000000
     19035       164  SAPE      H13X           25.3143306993       16.9878266118       -0.8655048673  MEMB      164             0.0000000000
     19036       164  SAPE      H13Y           24.9973067432       18.2289717826       -2.2035470228  MEMB      164             0.0000000000
     19037       164  SAPE      C314           26.9123390897       18.3293806685       -1.3655814483  MEMB      164             0.0000000000
     19038       164  SAPE      H14X           27.4021526746       18.7623852785       -2.2638635180  MEMB      164             0.0000000000
     19039       164  SAPE      H14Y           27.5513734395       17.7203806029       -0.6909889225  MEMB      164             0.0000000000
     19040       164  SAPE      C315           26.5704012792       19.4856273760       -0.3896074063  MEMB      164             0.0000000000
     19041       164  SAPE      H15X           26.1390549503       20.3312288133       -0.9668604830  MEMB      164             0.0000000000
     19042       164  SAPE      H15Y           27.4970602076       19.8560720425        0.0986487258  MEMB      164             0.0000000000
     19043       164  SAPE      C316           25.5996261068       19.0102576623        0.7207714953  MEMB      164             0.0000000000
     19044       164  SAPE      H16X           26.2071178891       18.1711685323        1.1222742200  MEMB      164             0.0000000000
     19045       164  SAPE      H16Y           24.7260518168       18.6874798509        0.1149643077  MEMB      164             0.0000000000
     19046       164  SAPE      C317           25.3581649930       19.9347890592        1.9701985796  MEMB      164             0.0000000000
     19047       164  SAPE      H17X           24.7821219728       19.4309876398        2.7756053472  MEMB      164             0.0000000000
     19048       164  SAPE      H17Y           24.7190280044       20.7264868495        1.5240606723  MEMB      164             0.0000000000
     19049       164  SAPE      C318           26.6724899030       20.4572111655        2.5593465493  MEMB      164             0.0000000000
     19050       164  SAPE      H18X           27.0873895858       21.3365731759        2.0218502698  MEMB      164             0.0000000000
     19051       164  SAPE      H18Y           27.4017818299       19.6201980212        2.6025106656  MEMB      164             0.0000000000
     19052       164  SAPE      H18Z           26.4716665052       20.9062933007        3.5554966789  MEMB      164             0.0000000000
     19053       165  SAPE      N             -32.5746456034        6.6816141688      -19.0983805201  MEMB      165             0.0000000000
     19054       165  SAPE      HN1           -31.8126919160        5.9943990087      -19.2679738370  MEMB      165             0.0000000000
     19055       165  SAPE      HN2           -33.2306362519        6.3023126006      -18.3860556270  MEMB      165             0.0000000000
     19056       165  SAPE      HN3           -33.1470278174        6.8311807832      -19.9537216292  MEMB      165             0.0000000000
     19057       165  SAPE      C12           -32.0414158748        7.9248817663      -18.5246371147  MEMB      165             0.0000000000
     19058       165  SAPE      H12A          -31.0367390896        8.0946492865      -18.9674964853  MEMB      165             0.0000000000
     19059       165  SAPE      H12B          -31.8353182889        7.6570987042      -17.4662717540  MEMB      165             0.0000000000
     19060       165  SAPE      C11           -33.1455549546        8.9997064314      -18.4637963931  MEMB      165             0.0000000000
     19061       165  SAPE      H11A          -33.0382711131        9.4603710062      -17.4585107325  MEMB      165             0.0000000000
     19062       165  SAPE      H11B          -34.1388836961        8.5201746581      -18.5967186212  MEMB      165             0.0000000000
     19063       165  SAPE      P             -33.8089071758        9.9236828547      -20.8664419029  MEMB      165             0.0000000000
     19064       165  SAPE      O13           -33.9240504850       11.2982306846      -21.3146858628  MEMB      165             0.0000000000
     19065       165  SAPE      O14           -33.2377189584        8.8709653525      -21.7290725846  MEMB      165             0.0000000000
     19066       165  SAPE      O12           -32.9607198017        9.9729880221      -19.5211220288  MEMB      165             0.0000000000
     19067       165  SAPE      O11           -35.2477751443        9.3716642427      -20.4818636129  MEMB      165             0.0000000000
     19068       165  SAPE      C1            -36.3196369712       10.2692688926      -20.3965373913  MEMB      165             0.0000000000
     19069       165  SAPE      HA            -36.2276278777       11.0721045210      -21.1589744564  MEMB      165             0.0000000000
     19070       165  SAPE      HB            -37.1812028594        9.7078624198      -20.8170705910  MEMB      165             0.0000000000
     19071       165  SAPE      C2            -36.6336846214       10.9150048700      -19.0261711459  MEMB      165             0.0000000000
     19072       165  SAPE      HS            -37.2718099809       11.8014639654      -19.2294138299  MEMB      165             0.0000000000
     19073       165  SAPE      O21           -35.3922907116       11.1332300558      -18.3137352980  MEMB      165             0.0000000000
     19074       165  SAPE      C21           -34.9226259010       12.3523401815      -18.4670418264  MEMB      165             0.0000000000
     19075       165  SAPE      O22           -35.3404803103       13.1961616406      -19.2300054694  MEMB      165             0.0000000000
     19076       165  SAPE      C22           -33.8788069154       12.5828602811      -17.4365531830  MEMB      165             0.0000000000
     19077       165  SAPE      H2R           -34.4149353280       12.9254828106      -16.5257859952  MEMB      165             0.0000000000
     19078       165  SAPE      H2S           -33.3314203894       11.6417676875      -17.2151178182  MEMB      165             0.0000000000
     19079       165  SAPE      C3            -37.5053331439        9.9836268280      -18.1077533840  MEMB      165             0.0000000000
     19080       165  SAPE      HX            -38.2844921792        9.5115878768      -18.7436869993  MEMB      165             0.0000000000
     19081       165  SAPE      HY            -37.8317176152       10.7342426143      -17.3565076498  MEMB      165             0.0000000000
     19082       165  SAPE      O31           -36.6447382827        8.9647907244      -17.6118964534  MEMB      165             0.0000000000
     19083       165  SAPE      C31           -36.8534887751        7.7254960980      -17.8527565500  MEMB      165             0.0000000000
     19084       165  SAPE      O32           -37.7705969822        7.1772020194      -18.4841688571  MEMB      165             0.0000000000
     19085       165  SAPE      C32           -35.8577339770        6.9015694503      -17.0285834487  MEMB      165             0.0000000000
     19086       165  SAPE      H2X           -34.9881994818        7.5138974426      -16.7072036814  MEMB      165             0.0000000000
     19087       165  SAPE      H2Y           -35.5442194419        6.1374210960      -17.7716223904  MEMB      165             0.0000000000
     19088       165  SAPE      C23           -32.9454086466       13.7074235121      -17.8808988649  MEMB      165             0.0000000000
     19089       165  SAPE      H3R           -33.4170566170       14.7098025790      -17.7966041721  MEMB      165             0.0000000000
     19090       165  SAPE      H3S           -32.7461628853       13.6498248844      -18.9723677368  MEMB      165             0.0000000000
     19091       165  SAPE      C24           -31.6000890477       13.7408689015      -17.1240058276  MEMB      165             0.0000000000
     19092       165  SAPE      H4R           -31.0993375847       14.6343759710      -17.5543704245  MEMB      165             0.0000000000
     19093       165  SAPE      H4S           -31.0816353641       12.7893877505      -17.3693838253  MEMB      165             0.0000000000
     19094       165  SAPE      C25           -31.7683945231       14.0292245190      -15.5871534820  MEMB      165             0.0000000000
     19095       165  SAPE      H5R           -31.9003616177       15.1070914117      -15.4116907980  MEMB      165             0.0000000000
     19096       165  SAPE      C26           -31.7375930746       13.3445223168      -14.4476516980  MEMB      165             0.0000000000
     19097       165  SAPE      H6R           -31.8607669439       13.7320965909      -13.4255877204  MEMB      165             0.0000000000
     19098       165  SAPE      C27           -31.4381547550       11.8662650625      -14.3940663533  MEMB      165             0.0000000000
     19099       165  SAPE      H7R           -30.6496225932       11.6211119482      -13.6508043719  MEMB      165             0.0000000000
     19100       165  SAPE      H7S           -30.9395027576       11.5559754756      -15.3371396138  MEMB      165             0.0000000000
     19101       165  SAPE      C28           -32.5324945347       10.8727511485      -14.0449029431  MEMB      165             0.0000000000
     19102       165  SAPE      H8R           -32.9241407189       10.2055511664      -14.8268606334  MEMB      165             0.0000000000
     19103       165  SAPE      C29           -32.9919946966       10.4944605463      -12.8190916756  MEMB      165             0.0000000000
     19104       165  SAPE      H9R           -33.8223390034        9.7804684130      -12.7154404391  MEMB      165             0.0000000000
     19105       165  SAPE      C210          -32.5334058936       11.0334083840      -11.5458196016  MEMB      165             0.0000000000
     19106       165  SAPE      H10R          -31.7601369533       11.8280414071      -11.6160644903  MEMB      165             0.0000000000
     19107       165  SAPE      H10S          -32.0026753899       10.1822375917      -11.0681642541  MEMB      165             0.0000000000
     19108       165  SAPE      C211          -33.7267666031       11.3677459064      -10.6435277695  MEMB      165             0.0000000000
     19109       165  SAPE      H11R          -34.2135938915       10.4423937652      -10.3018808848  MEMB      165             0.0000000000
     19110       165  SAPE      C212          -34.0772273738       12.4400786033       -9.9938428145  MEMB      165             0.0000000000
     19111       165  SAPE      H12R          -34.9215000309       12.2536509144       -9.3138067209  MEMB      165             0.0000000000
     19112       165  SAPE      C213          -33.4738671815       13.7969026456       -9.9087298523  MEMB      165             0.0000000000
     19113       165  SAPE      H13R          -34.2703369886       14.4710629297       -9.5273311349  MEMB      165             0.0000000000
     19114       165  SAPE      H13S          -33.1921906188       14.2248562493      -10.8945463655  MEMB      165             0.0000000000
     19115       165  SAPE      C214          -32.2125358196       13.9873991275       -9.0060083520  MEMB      165             0.0000000000
     19116       165  SAPE      H14R          -31.3684048248       14.3951913994       -9.5814626193  MEMB      165             0.0000000000
     19117       165  SAPE      C215          -32.0371168004       13.7630437932       -7.7041524814  MEMB      165             0.0000000000
     19118       165  SAPE      H15R          -31.0406213912       13.7460522484       -7.2386335557  MEMB      165             0.0000000000
     19119       165  SAPE      C216          -33.0685243758       13.2765382224       -6.7452267778  MEMB      165             0.0000000000
     19120       165  SAPE      H16R          -33.0299752485       12.1792678060       -6.5754253563  MEMB      165             0.0000000000
     19121       165  SAPE      H16S          -34.0687651336       13.3412537088       -7.2244464248  MEMB      165             0.0000000000
     19122       165  SAPE      C217          -33.0114619501       13.9240043502       -5.3524453174  MEMB      165             0.0000000000
     19123       165  SAPE      H17R          -33.4201157290       14.9570772609       -5.3615714860  MEMB      165             0.0000000000
     19124       165  SAPE      H17S          -31.9755928674       13.9803736704       -4.9548041028  MEMB      165             0.0000000000
     19125       165  SAPE      C218          -33.8181463788       13.1383310662       -4.3162646918  MEMB      165             0.0000000000
     19126       165  SAPE      H18R          -33.6606371109       13.5812079992       -3.3096006241  MEMB      165             0.0000000000
     19127       165  SAPE      H18S          -33.3483657448       12.1332702401       -4.2572717191  MEMB      165             0.0000000000
     19128       165  SAPE      C219          -35.3396400503       13.0372269174       -4.4178585458  MEMB      165             0.0000000000
     19129       165  SAPE      H19R          -35.5626556004       12.4360283690       -5.3251316628  MEMB      165             0.0000000000
     19130       165  SAPE      H19S          -35.7860183666       14.0517179536       -4.4945102392  MEMB      165             0.0000000000
     19131       165  SAPE      C220          -35.9460137646       12.2978098178       -3.2547512638  MEMB      165             0.0000000000
     19132       165  SAPE      H20R          -37.0252824443       12.5217197644       -3.1155973337  MEMB      165             0.0000000000
     19133       165  SAPE      H20S          -35.3804109940       12.6231560427       -2.3555500875  MEMB      165             0.0000000000
     19134       165  SAPE      H20T          -35.6246311379       11.2343515454       -3.2452199508  MEMB      165             0.0000000000
     19135       165  SAPE      C33           -36.5538078135        6.0210601738      -15.9257964285  MEMB      165             0.0000000000
     19136       165  SAPE      H3X           -37.4896753514        5.5533516178      -16.2995906474  MEMB      165             0.0000000000
     19137       165  SAPE      H3Y           -36.9806905906        6.7503810993      -15.2045589810  MEMB      165             0.0000000000
     19138       165  SAPE      C34           -35.5740276074        5.0763283988      -15.0816569400  MEMB      165             0.0000000000
     19139       165  SAPE      H4X           -35.3150929173        4.3085073646      -15.8417387332  MEMB      165             0.0000000000
     19140       165  SAPE      H4Y           -36.1499529785        4.5336403099      -14.3018357859  MEMB      165             0.0000000000
     19141       165  SAPE      C35           -34.3301681087        5.7202059864      -14.6792585446  MEMB      165             0.0000000000
     19142       165  SAPE      H5X           -33.9235301539        6.1460777682      -15.6213836482  MEMB      165             0.0000000000
     19143       165  SAPE      H5Y           -33.5996007675        5.0386231156      -14.1934221795  MEMB      165             0.0000000000
     19144       165  SAPE      C36           -34.4493151862        6.9745794029      -13.7847274271  MEMB      165             0.0000000000
     19145       165  SAPE      H6X           -35.2102753625        7.6999743339      -14.1439803071  MEMB      165             0.0000000000
     19146       165  SAPE      H6Y           -33.4635880843        7.4455016392      -13.5825011516  MEMB      165             0.0000000000
     19147       165  SAPE      C37           -34.8854826634        6.5033610046      -12.3926222711  MEMB      165             0.0000000000
     19148       165  SAPE      H7X           -34.1577208145        5.7308140625      -12.0642095076  MEMB      165             0.0000000000
     19149       165  SAPE      H7Y           -35.9022192406        6.0712616625      -12.5103415319  MEMB      165             0.0000000000
     19150       165  SAPE      C38           -34.8638314329        7.6497786683      -11.3860818145  MEMB      165             0.0000000000
     19151       165  SAPE      H8X           -35.3804464478        8.5560841552      -11.7682341699  MEMB      165             0.0000000000
     19152       165  SAPE      H8Y           -33.8197565799        7.8360530716      -11.0551279507  MEMB      165             0.0000000000
     19153       165  SAPE      C39           -35.5399811231        7.2736969695      -10.0669351247  MEMB      165             0.0000000000
     19154       165  SAPE      H9X           -35.0959540074        6.3309305912       -9.6817695117  MEMB      165             0.0000000000
     19155       165  SAPE      H9Y           -36.6229595923        7.2038964260      -10.3048561801  MEMB      165             0.0000000000
     19156       165  SAPE      C310          -35.4968283967        8.3092171587       -8.9561452421  MEMB      165             0.0000000000
     19157       165  SAPE      H10X          -36.0756570272        9.2238158905       -9.2067194532  MEMB      165             0.0000000000
     19158       165  SAPE      H10Y          -34.4256632808        8.5952577620       -8.8846808200  MEMB      165             0.0000000000
     19159       165  SAPE      C311          -36.1451354390        7.7189327070       -7.5833164586  MEMB      165             0.0000000000
     19160       165  SAPE      H11X          -37.2555657195        7.7411803347       -7.5555522783  MEMB      165             0.0000000000
     19161       165  SAPE      H11Y          -35.7965150114        8.3072021192       -6.7076883458  MEMB      165             0.0000000000
     19162       165  SAPE      C312          -35.9231555630        6.2998268543       -7.1820591675  MEMB      165             0.0000000000
     19163       165  SAPE      H12X          -36.3449688124        5.6636410838       -7.9893150768  MEMB      165             0.0000000000
     19164       165  SAPE      H12Y          -36.4882385126        6.1412737312       -6.2387336137  MEMB      165             0.0000000000
     19165       165  SAPE      C313          -34.4670205359        5.8830614076       -6.9057921258  MEMB      165             0.0000000000
     19166       165  SAPE      H13X          -33.7858092362        6.2259852924       -7.7136759651  MEMB      165             0.0000000000
     19167       165  SAPE      H13Y          -34.4730746876        4.7751418863       -6.8233392912  MEMB      165             0.0000000000
     19168       165  SAPE      C314          -33.7450230864        6.3613700574       -5.6129899039  MEMB      165             0.0000000000
     19169       165  SAPE      H14X          -33.7498023213        7.4720464243       -5.5866064241  MEMB      165             0.0000000000
     19170       165  SAPE      H14Y          -32.7148418553        6.0107902848       -5.3890667631  MEMB      165             0.0000000000
     19171       165  SAPE      C315          -34.5441304313        5.9203825851       -4.2751901094  MEMB      165             0.0000000000
     19172       165  SAPE      H15X          -34.9740821945        4.9294479550       -4.5350191669  MEMB      165             0.0000000000
     19173       165  SAPE      H15Y          -35.2603793761        6.7416790883       -4.0589017654  MEMB      165             0.0000000000
     19174       165  SAPE      C316          -33.6788742882        5.7108110880       -3.0260211465  MEMB      165             0.0000000000
     19175       165  SAPE      H16X          -33.0594019427        6.6203111066       -2.8731017448  MEMB      165             0.0000000000
     19176       165  SAPE      H16Y          -32.9501232722        4.8933906535       -3.2132835738  MEMB      165             0.0000000000
     19177       165  SAPE      C317          -34.4709308175        5.4032100594       -1.7470140635  MEMB      165             0.0000000000
     19178       165  SAPE      H17X          -34.9167219061        4.3907675528       -1.8497365026  MEMB      165             0.0000000000
     19179       165  SAPE      H17Y          -35.3055048776        6.1365475090       -1.7421997217  MEMB      165             0.0000000000
     19180       165  SAPE      C318          -33.7116312387        5.6251573675       -0.4682908838  MEMB      165             0.0000000000
     19181       165  SAPE      H18X          -32.7792195574        5.0226748184       -0.5123782411  MEMB      165             0.0000000000
     19182       165  SAPE      H18Y          -34.3533179485        5.3625261553        0.3998003380  MEMB      165             0.0000000000
     19183       165  SAPE      H18Z          -33.4293512005        6.6885293323       -0.3137635357  MEMB      165             0.0000000000
     19184       166  SAPC      N              32.6806729567        4.3714846956      -19.3970590281  MEMB      166             0.0000000000
     19185       166  SAPC      C12            33.8327976672        4.2859543647      -18.4420313037  MEMB      166             0.0000000000
     19186       166  SAPC      H12A           33.6304993765        3.5898848161      -17.6414298853  MEMB      166             0.0000000000
     19187       166  SAPC      H12B           33.7646703288        5.2010662058      -17.8725323996  MEMB      166             0.0000000000
     19188       166  SAPC      C13            32.9987606451        5.3892463144      -20.4681401320  MEMB      166             0.0000000000
     19189       166  SAPC      H13A           33.8554763500        5.1166172758      -21.0665643032  MEMB      166             0.0000000000
     19190       166  SAPC      H13B           32.1674201529        5.4808798608      -21.1514237124  MEMB      166             0.0000000000
     19191       166  SAPC      H13C           33.2076326926        6.3488999008      -20.0188767924  MEMB      166             0.0000000000
     19192       166  SAPC      C14            32.3546789493        3.0333495956      -20.0254377632  MEMB      166             0.0000000000
     19193       166  SAPC      H14A           31.8313024092        3.2571463355      -20.9432569070  MEMB      166             0.0000000000
     19194       166  SAPC      H14B           33.2925674100        2.5246067256      -20.1926083770  MEMB      166             0.0000000000
     19195       166  SAPC      H14C           31.7510614870        2.4100861038      -19.3823293555  MEMB      166             0.0000000000
     19196       166  SAPC      C15            31.5348852542        4.8320609347      -18.6331061668  MEMB      166             0.0000000000
     19197       166  SAPC      H15A           31.2747149688        4.0174120906      -17.9735164107  MEMB      166             0.0000000000
     19198       166  SAPC      H15B           31.6141939858        5.8189460905      -18.2016342469  MEMB      166             0.0000000000
     19199       166  SAPC      H15C           30.6410091642        4.8501584731      -19.2389590547  MEMB      166             0.0000000000
     19200       166  SAPC      C11            35.2628234391        4.0010232667      -18.9447169291  MEMB      166             0.0000000000
     19201       166  SAPC      H11A           35.8333130261        3.6997516431      -18.0402292880  MEMB      166             0.0000000000
     19202       166  SAPC      H11B           35.6272083839        4.9188247544      -19.4538191529  MEMB      166             0.0000000000
     19203       166  SAPC      P              36.3612976418        2.7677384641      -20.8783853981  MEMB      166             0.0000000000
     19204       166  SAPC      O13            36.3511736246        1.4647940955      -21.6262891412  MEMB      166             0.0000000000
     19205       166  SAPC      O14            36.3952460642        3.9368435964      -21.8458994683  MEMB      166             0.0000000000
     19206       166  SAPC      O12            35.2314911111        2.8890333664      -19.8932622416  MEMB      166             0.0000000000
     19207       166  SAPC      O11            37.5413387320        2.9797311616      -19.8456724168  MEMB      166             0.0000000000
     19208       166  SAPC      C1             38.4183670831        1.8799026940      -19.4405650906  MEMB      166             0.0000000000
     19209       166  SAPC      HA             38.8682360711        1.4675233803      -20.3689410192  MEMB      166             0.0000000000
     19210       166  SAPC      HB             39.2808082913        2.2683870842      -18.8578161605  MEMB      166             0.0000000000
     19211       166  SAPC      C2             37.7642961353        0.7361158078      -18.5291179324  MEMB      166             0.0000000000
     19212       166  SAPC      HS             37.2304379919       -0.0249481171      -19.1374746461  MEMB      166             0.0000000000
     19213       166  SAPC      O21            36.7989949650        1.3390387534      -17.6136073726  MEMB      166             0.0000000000
     19214       166  SAPC      C21            35.6179043118        0.7577443831      -17.5561805141  MEMB      166             0.0000000000
     19215       166  SAPC      O22            35.1721365871       -0.0419886800      -18.3575601462  MEMB      166             0.0000000000
     19216       166  SAPC      C22            34.8966848275        1.0912453277      -16.2157549177  MEMB      166             0.0000000000
     19217       166  SAPC      H2R            35.5127704610        0.8005660912      -15.3381074355  MEMB      166             0.0000000000
     19218       166  SAPC      H2S            34.5567044130        2.1482130087      -16.2551734563  MEMB      166             0.0000000000
     19219       166  SAPC      C3             38.8025242870       -0.0291618545      -17.7133699740  MEMB      166             0.0000000000
     19220       166  SAPC      HX             39.5446956148       -0.4845561827      -18.4033838749  MEMB      166             0.0000000000
     19221       166  SAPC      HY             38.2355424570       -0.7954095317      -17.1426540844  MEMB      166             0.0000000000
     19222       166  SAPC      O31            39.5727052738        0.8639595977      -16.8812580072  MEMB      166             0.0000000000
     19223       166  SAPC      C31            39.1127013420        0.9056371300      -15.6012936487  MEMB      166             0.0000000000
     19224       166  SAPC      O32            38.2321277726        0.1852531703      -15.0721275589  MEMB      166             0.0000000000
     19225       166  SAPC      C32            39.6213101445        2.1838616958      -15.0170943944  MEMB      166             0.0000000000
     19226       166  SAPC      H2X            39.7913197147        3.0125996591      -15.7372412692  MEMB      166             0.0000000000
     19227       166  SAPC      H2Y            40.6387724529        1.9707481507      -14.6250818253  MEMB      166             0.0000000000
     19228       166  SAPC      C23            33.5677123007        0.3287664491      -16.1968230825  MEMB      166             0.0000000000
     19229       166  SAPC      H3R            33.7539299766       -0.7489822103      -16.3920195846  MEMB      166             0.0000000000
     19230       166  SAPC      H3S            32.8016016352        0.6547766163      -16.9324265083  MEMB      166             0.0000000000
     19231       166  SAPC      C24            32.8734855469        0.3569554502      -14.7645782101  MEMB      166             0.0000000000
     19232       166  SAPC      H4R            33.4412997215       -0.4071544259      -14.1918268539  MEMB      166             0.0000000000
     19233       166  SAPC      H4S            31.8039070821        0.0580065878      -14.7954457558  MEMB      166             0.0000000000
     19234       166  SAPC      C25            32.8954938148        1.7216267439      -14.2094634358  MEMB      166             0.0000000000
     19235       166  SAPC      H5R            32.3603450851        2.4904413869      -14.7861257899  MEMB      166             0.0000000000
     19236       166  SAPC      C26            33.4161628402        1.9958856451      -13.0413856481  MEMB      166             0.0000000000
     19237       166  SAPC      H6R            33.4953319516        3.0764907563      -12.8515833786  MEMB      166             0.0000000000
     19238       166  SAPC      C27            34.0437990068        1.1089394678      -12.0638996833  MEMB      166             0.0000000000
     19239       166  SAPC      H7R            35.0974928928        0.9092055248      -12.3539967366  MEMB      166             0.0000000000
     19240       166  SAPC      H7S            33.7208764625        0.0480889218      -12.1320066593  MEMB      166             0.0000000000
     19241       166  SAPC      C28            33.9595313545        1.6791350012      -10.5990466312  MEMB      166             0.0000000000
     19242       166  SAPC      H8R            33.6058028303        2.7204977424      -10.5780750836  MEMB      166             0.0000000000
     19243       166  SAPC      C29            34.3851204338        1.0581219529       -9.4587427267  MEMB      166             0.0000000000
     19244       166  SAPC      H9R            34.3117631535        1.6604440466       -8.5412315279  MEMB      166             0.0000000000
     19245       166  SAPC      C210           35.0443752127       -0.2932913745       -9.5040289862  MEMB      166             0.0000000000
     19246       166  SAPC      H10R           34.6731270942       -0.7952608163      -10.4230085453  MEMB      166             0.0000000000
     19247       166  SAPC      H10S           34.7393198979       -0.9527241415       -8.6635467584  MEMB      166             0.0000000000
     19248       166  SAPC      C211           36.5286772165       -0.0982942992       -9.6895372367  MEMB      166             0.0000000000
     19249       166  SAPC      H11R           36.7508549999        0.0774335927      -10.7524370698  MEMB      166             0.0000000000
     19250       166  SAPC      C212           37.4992026915       -0.1091463702       -8.7363706337  MEMB      166             0.0000000000
     19251       166  SAPC      H12R           38.5524752664       -0.1120360767       -9.0535591291  MEMB      166             0.0000000000
     19252       166  SAPC      C213           37.2927155365       -0.3042959985       -7.2151077871  MEMB      166             0.0000000000
     19253       166  SAPC      H13R           36.5130671545       -1.0140699098       -6.8648366181  MEMB      166             0.0000000000
     19254       166  SAPC      H13S           36.9369801290        0.6835135293       -6.8517816767  MEMB      166             0.0000000000
     19255       166  SAPC      C214           38.6146448386       -0.6815254366       -6.5471229175  MEMB      166             0.0000000000
     19256       166  SAPC      H14R           39.4973593747       -0.7223704929       -7.2022162591  MEMB      166             0.0000000000
     19257       166  SAPC      C215           38.7910581993       -1.3235262089       -5.3628425459  MEMB      166             0.0000000000
     19258       166  SAPC      H15R           39.8435684815       -1.4910345377       -5.0905146874  MEMB      166             0.0000000000
     19259       166  SAPC      C216           37.7521170039       -1.7880441394       -4.3997071387  MEMB      166             0.0000000000
     19260       166  SAPC      H16R           37.8566493441       -2.8880043802       -4.2836002256  MEMB      166             0.0000000000
     19261       166  SAPC      H16S           36.7578385085       -1.6122542081       -4.8632038604  MEMB      166             0.0000000000
     19262       166  SAPC      C217           37.8393110700       -1.0961980082       -2.9998951990  MEMB      166             0.0000000000
     19263       166  SAPC      H17R           38.7870839567       -1.4930668824       -2.5773524108  MEMB      166             0.0000000000
     19264       166  SAPC      H17S           37.0875302303       -1.4538813067       -2.2642270538  MEMB      166             0.0000000000
     19265       166  SAPC      C218           37.7846213180        0.4953959314       -3.0715151182  MEMB      166             0.0000000000
     19266       166  SAPC      H18R           36.7816166023        0.7912051824       -3.4467468022  MEMB      166             0.0000000000
     19267       166  SAPC      H18S           38.5795302409        0.8121211352       -3.7801228070  MEMB      166             0.0000000000
     19268       166  SAPC      C219           37.9588441072        1.2762283695       -1.7568385467  MEMB      166             0.0000000000
     19269       166  SAPC      H19R           38.8011404628        1.0057623049       -1.0847463417  MEMB      166             0.0000000000
     19270       166  SAPC      H19S           37.0420371276        0.9791935360       -1.2040662543  MEMB      166             0.0000000000
     19271       166  SAPC      C220           37.8720599969        2.8087647521       -1.9718855673  MEMB      166             0.0000000000
     19272       166  SAPC      H20R           38.6877126863        3.1507177316       -2.6442694586  MEMB      166             0.0000000000
     19273       166  SAPC      H20S           37.9204895974        3.4256356847       -1.0491469900  MEMB      166             0.0000000000
     19274       166  SAPC      H20T           36.8635931039        3.1392739179       -2.3006411082  MEMB      166             0.0000000000
     19275       166  SAPC      C33            38.6568017316        2.6675746691      -13.8880724783  MEMB      166             0.0000000000
     19276       166  SAPC      H3X            38.9471872214        2.1688852367      -12.9387010893  MEMB      166             0.0000000000
     19277       166  SAPC      H3Y            37.5777801610        2.4902264043      -14.0844920893  MEMB      166             0.0000000000
     19278       166  SAPC      C34            38.7022538699        4.2417721522      -13.7799209091  MEMB      166             0.0000000000
     19279       166  SAPC      H4X            38.4948320849        4.6851877041      -14.7772572173  MEMB      166             0.0000000000
     19280       166  SAPC      H4Y            39.7333400070        4.5494600907      -13.5033154009  MEMB      166             0.0000000000
     19281       166  SAPC      C35            37.6367922685        4.7866007852      -12.7861965522  MEMB      166             0.0000000000
     19282       166  SAPC      H5X            36.7243820580        4.1527262226      -12.7805692800  MEMB      166             0.0000000000
     19283       166  SAPC      H5Y            37.3634658908        5.7872682489      -13.1840381634  MEMB      166             0.0000000000
     19284       166  SAPC      C36            38.0083079378        4.9907572194      -11.3355677391  MEMB      166             0.0000000000
     19285       166  SAPC      H6X            38.9648797583        5.5550430020      -11.3060260350  MEMB      166             0.0000000000
     19286       166  SAPC      H6Y            38.0475518149        4.0234576034      -10.7904872851  MEMB      166             0.0000000000
     19287       166  SAPC      C37            37.1410739912        5.9183305791      -10.4132558356  MEMB      166             0.0000000000
     19288       166  SAPC      H7X            36.0911603258        5.6077488408      -10.6017793642  MEMB      166             0.0000000000
     19289       166  SAPC      H7Y            37.2159394636        6.9334940369      -10.8584070328  MEMB      166             0.0000000000
     19290       166  SAPC      C38            37.4113127563        6.0702679746       -8.8904288101  MEMB      166             0.0000000000
     19291       166  SAPC      H8X            36.6890580471        6.8339488274       -8.5306222560  MEMB      166             0.0000000000
     19292       166  SAPC      H8Y            38.4671638940        6.4075564207       -8.8146912892  MEMB      166             0.0000000000
     19293       166  SAPC      C39            37.3321801978        4.8005186737       -8.1083016622  MEMB      166             0.0000000000
     19294       166  SAPC      H9X            38.0041291621        3.9678633150       -8.4074516082  MEMB      166             0.0000000000
     19295       166  SAPC      H9Y            36.2975002017        4.4018345118       -8.1776513874  MEMB      166             0.0000000000
     19296       166  SAPC      C310           37.4942442087        5.1960844220       -6.5375746782  MEMB      166             0.0000000000
     19297       166  SAPC      H10X           36.8014713548        6.0288483830       -6.2908138522  MEMB      166             0.0000000000
     19298       166  SAPC      H10Y           38.5417462067        5.5551946142       -6.4475729370  MEMB      166             0.0000000000
     19299       166  SAPC      C311           37.1052757211        4.0423010633       -5.5735855207  MEMB      166             0.0000000000
     19300       166  SAPC      H11X           37.2089884929        4.5164054451       -4.5741912731  MEMB      166             0.0000000000
     19301       166  SAPC      H11Y           37.6944130450        3.1160875829       -5.7449531164  MEMB      166             0.0000000000
     19302       166  SAPC      C312           35.6807621258        3.4428267538       -5.6472539177  MEMB      166             0.0000000000
     19303       166  SAPC      H12X           35.5222810143        2.6313157295       -4.9051925274  MEMB      166             0.0000000000
     19304       166  SAPC      H12Y           35.6961588040        3.0123148018       -6.6713358586  MEMB      166             0.0000000000
     19305       166  SAPC      C313           34.6480990525        4.4806729374       -5.5221515137  MEMB      166             0.0000000000
     19306       166  SAPC      H13X           34.6570430935        4.8941475703       -6.5533060522  MEMB      166             0.0000000000
     19307       166  SAPC      H13Y           34.9755332070        5.1845705589       -4.7273961866  MEMB      166             0.0000000000
     19308       166  SAPC      C314           33.2004333705        3.9389929643       -5.1969256968  MEMB      166             0.0000000000
     19309       166  SAPC      H14X           33.1238463147        2.9137839945       -5.6181170735  MEMB      166             0.0000000000
     19310       166  SAPC      H14Y           32.4918653950        4.5718144108       -5.7729374589  MEMB      166             0.0000000000
     19311       166  SAPC      C315           32.8657765276        3.9377620576       -3.7031839901  MEMB      166             0.0000000000
     19312       166  SAPC      H15X           31.7989388446        3.6306968002       -3.6597185216  MEMB      166             0.0000000000
     19313       166  SAPC      H15Y           32.8615178182        4.9964697359       -3.3663741999  MEMB      166             0.0000000000
     19314       166  SAPC      C316           33.8720326922        3.2486257214       -2.7437255416  MEMB      166             0.0000000000
     19315       166  SAPC      H16X           34.9010148274        3.6373691102       -2.8999171642  MEMB      166             0.0000000000
     19316       166  SAPC      H16Y           34.0360473353        2.1527163387       -2.8237424484  MEMB      166             0.0000000000
     19317       166  SAPC      C317           33.4932747817        3.3252971279       -1.2608732049  MEMB      166             0.0000000000
     19318       166  SAPC      H17X           32.5327900051        2.8542718047       -0.9609978896  MEMB      166             0.0000000000
     19319       166  SAPC      H17Y           33.3154547245        4.4070203734       -1.0803859940  MEMB      166             0.0000000000
     19320       166  SAPC      C318           34.6140486952        2.8591486933       -0.3337541111  MEMB      166             0.0000000000
     19321       166  SAPC      H18X           34.2420558785        2.7589636919        0.7083121091  MEMB      166             0.0000000000
     19322       166  SAPC      H18Y           35.4302782993        3.6016281512       -0.4634248257  MEMB      166             0.0000000000
     19323       166  SAPC      H18Z           35.0797372916        1.8600167916       -0.4722844360  MEMB      166             0.0000000000
     19324       167  SAPC      N              29.1119911245      -20.5224353301      -21.4004375815  MEMB      167             0.0000000000
     19325       167  SAPC      C12            29.1272744918      -21.0390214305      -19.9641636191  MEMB      167             0.0000000000
     19326       167  SAPC      H12A           28.9440985386      -20.2219335792      -19.2820976430  MEMB      167             0.0000000000
     19327       167  SAPC      H12B           30.1241779992      -21.3790424411      -19.7254812494  MEMB      167             0.0000000000
     19328       167  SAPC      C13            30.2931507822      -19.5109604720      -21.4810358679  MEMB      167             0.0000000000
     19329       167  SAPC      H13A           31.1218506482      -20.0988433800      -21.1149072678  MEMB      167             0.0000000000
     19330       167  SAPC      H13B           30.5699660780      -19.1179628184      -22.4481584199  MEMB      167             0.0000000000
     19331       167  SAPC      H13C           30.2121894648      -18.6673616928      -20.8115687715  MEMB      167             0.0000000000
     19332       167  SAPC      C14            29.3199831409      -21.6715717121      -22.3979284187  MEMB      167             0.0000000000
     19333       167  SAPC      H14A           30.3394922517      -21.9953022167      -22.2489322171  MEMB      167             0.0000000000
     19334       167  SAPC      H14B           28.7295236868      -22.5221433964      -22.0908690977  MEMB      167             0.0000000000
     19335       167  SAPC      H14C           29.0258661775      -21.2902969263      -23.3646366128  MEMB      167             0.0000000000
     19336       167  SAPC      C15            27.8503814547      -19.7247808400      -21.6892952844  MEMB      167             0.0000000000
     19337       167  SAPC      H15A           27.0799495819      -20.4804159330      -21.6462809680  MEMB      167             0.0000000000
     19338       167  SAPC      H15B           27.6153437094      -19.0152079016      -20.9097675740  MEMB      167             0.0000000000
     19339       167  SAPC      H15C           27.8326881704      -19.1849270532      -22.6245199419  MEMB      167             0.0000000000
     19340       167  SAPC      C11            28.2820607156      -22.2655310646      -19.4967994867  MEMB      167             0.0000000000
     19341       167  SAPC      H11A           28.4992679061      -22.4674613133      -18.4261146095  MEMB      167             0.0000000000
     19342       167  SAPC      H11B           28.6938695724      -23.1421864680      -20.0410508466  MEMB      167             0.0000000000
     19343       167  SAPC      P              25.8817505051      -21.7938790384      -18.6698397367  MEMB      167             0.0000000000
     19344       167  SAPC      O13            26.3504325311      -20.6732999332      -17.8254692153  MEMB      167             0.0000000000
     19345       167  SAPC      O14            24.5513974243      -21.5927877077      -19.3766443629  MEMB      167             0.0000000000
     19346       167  SAPC      O12            26.9510035888      -22.1281998489      -19.8651279345  MEMB      167             0.0000000000
     19347       167  SAPC      O11            25.7734133660      -23.0984449851      -17.8332584874  MEMB      167             0.0000000000
     19348       167  SAPC      C1             25.2648582934      -24.2734198110      -18.4650479355  MEMB      167             0.0000000000
     19349       167  SAPC      HA             24.3351832913      -24.1486025034      -19.0604017195  MEMB      167             0.0000000000
     19350       167  SAPC      HB             25.9696443633      -24.6206198050      -19.2505731491  MEMB      167             0.0000000000
     19351       167  SAPC      C2             25.0924052651      -25.3569712045      -17.4781115297  MEMB      167             0.0000000000
     19352       167  SAPC      HS             24.2334650202      -26.0115006178      -17.7391352927  MEMB      167             0.0000000000
     19353       167  SAPC      O21            24.6758839792      -24.8886552102      -16.2102029901  MEMB      167             0.0000000000
     19354       167  SAPC      C21            23.5564247193      -24.2152658530      -16.1647509635  MEMB      167             0.0000000000
     19355       167  SAPC      O22            22.7982339701      -23.9132210057      -17.0954007627  MEMB      167             0.0000000000
     19356       167  SAPC      C22            23.1428933214      -23.8714010235      -14.7455647999  MEMB      167             0.0000000000
     19357       167  SAPC      H2R            22.4185630231      -24.6132164483      -14.3463442697  MEMB      167             0.0000000000
     19358       167  SAPC      H2S            23.9335762365      -23.9806117407      -13.9727681749  MEMB      167             0.0000000000
     19359       167  SAPC      C3             26.3721594555      -26.2130992479      -17.3440563410  MEMB      167             0.0000000000
     19360       167  SAPC      HX             26.6185296627      -26.7002887488      -18.3116663426  MEMB      167             0.0000000000
     19361       167  SAPC      HY             26.1566173667      -26.9204979109      -16.5149302778  MEMB      167             0.0000000000
     19362       167  SAPC      O31            27.4784849613      -25.4132146666      -17.0020350048  MEMB      167             0.0000000000
     19363       167  SAPC      C31            27.5695890855      -25.0148462538      -15.7495420445  MEMB      167             0.0000000000
     19364       167  SAPC      O32            26.9006562051      -25.3865026961      -14.8236015389  MEMB      167             0.0000000000
     19365       167  SAPC      C32            28.9051174384      -24.2724427718      -15.4886703678  MEMB      167             0.0000000000
     19366       167  SAPC      H2X            28.6719858453      -23.2424392266      -15.8337257688  MEMB      167             0.0000000000
     19367       167  SAPC      H2Y            29.7951130521      -24.7079624224      -15.9912150860  MEMB      167             0.0000000000
     19368       167  SAPC      C23            22.5232744168      -22.4444738743      -14.4938187866  MEMB      167             0.0000000000
     19369       167  SAPC      H3R            22.1804126118      -22.3722327782      -13.4395191082  MEMB      167             0.0000000000
     19370       167  SAPC      H3S            21.6522961826      -22.4400369979      -15.1835276964  MEMB      167             0.0000000000
     19371       167  SAPC      C24            23.5856147577      -21.3629093774      -14.8373555506  MEMB      167             0.0000000000
     19372       167  SAPC      H4R            23.2596057705      -20.3173292765      -14.6508048444  MEMB      167             0.0000000000
     19373       167  SAPC      H4S            23.7877474576      -21.4614485998      -15.9253597900  MEMB      167             0.0000000000
     19374       167  SAPC      C25            24.9176122246      -21.4348475777      -14.0971158936  MEMB      167             0.0000000000
     19375       167  SAPC      H5R            25.8235621813      -21.5166535430      -14.7156324608  MEMB      167             0.0000000000
     19376       167  SAPC      C26            25.0775833648      -21.7716113988      -12.8093185832  MEMB      167             0.0000000000
     19377       167  SAPC      H6R            26.1251272453      -21.7152269874      -12.4784523879  MEMB      167             0.0000000000
     19378       167  SAPC      C27            24.1146304985      -22.0634528667      -11.6702566232  MEMB      167             0.0000000000
     19379       167  SAPC      H7R            23.5398240684      -22.9928227782      -11.8707310408  MEMB      167             0.0000000000
     19380       167  SAPC      H7S            23.3366188604      -21.2738143708      -11.5961625266  MEMB      167             0.0000000000
     19381       167  SAPC      C28            24.7882746370      -22.1980901103      -10.3357457144  MEMB      167             0.0000000000
     19382       167  SAPC      H8R            24.9117322627      -21.2127405918       -9.8626232313  MEMB      167             0.0000000000
     19383       167  SAPC      C29            25.2732081232      -23.2951595884       -9.6758036218  MEMB      167             0.0000000000
     19384       167  SAPC      H9R            25.9532217676      -23.1912694674       -8.8174397704  MEMB      167             0.0000000000
     19385       167  SAPC      C210           25.1871229634      -24.6739287607      -10.0884720202  MEMB      167             0.0000000000
     19386       167  SAPC      H10R           24.3019597610      -24.7161257208      -10.7585660171  MEMB      167             0.0000000000
     19387       167  SAPC      H10S           25.0897283932      -25.3693916928       -9.2275614740  MEMB      167             0.0000000000
     19388       167  SAPC      C211           26.2834156697      -24.9828348236      -11.0396573716  MEMB      167             0.0000000000
     19389       167  SAPC      H11R           26.5264413628      -24.1940789964      -11.7668453424  MEMB      167             0.0000000000
     19390       167  SAPC      C212           26.9513198381      -26.1533863438      -11.0310895272  MEMB      167             0.0000000000
     19391       167  SAPC      H12R           27.6001383504      -26.4290111233      -11.8755217864  MEMB      167             0.0000000000
     19392       167  SAPC      C213           26.7185014121      -27.3928598676      -10.1159024367  MEMB      167             0.0000000000
     19393       167  SAPC      H13R           26.2576619432      -28.1884942254      -10.7395319204  MEMB      167             0.0000000000
     19394       167  SAPC      H13S           25.9556148448      -27.1285781079       -9.3526986001  MEMB      167             0.0000000000
     19395       167  SAPC      C214           27.7981816268      -27.9616412761       -9.2145434755  MEMB      167             0.0000000000
     19396       167  SAPC      H14R           28.1712415922      -28.9936562133       -9.2905147878  MEMB      167             0.0000000000
     19397       167  SAPC      C215           28.4840813800      -27.1753701637       -8.3372554661  MEMB      167             0.0000000000
     19398       167  SAPC      H15R           29.2391308732      -27.7370420901       -7.7676718740  MEMB      167             0.0000000000
     19399       167  SAPC      C216           28.4476360990      -25.7391959340       -8.0145872899  MEMB      167             0.0000000000
     19400       167  SAPC      H16R           28.3467475041      -25.0470188217       -8.8777399932  MEMB      167             0.0000000000
     19401       167  SAPC      H16S           29.4748506738      -25.5895039382       -7.6186782666  MEMB      167             0.0000000000
     19402       167  SAPC      C217           27.2769825043      -25.3606968498       -6.9958314822  MEMB      167             0.0000000000
     19403       167  SAPC      H17R           26.3323118161      -25.9270515740       -7.1412983941  MEMB      167             0.0000000000
     19404       167  SAPC      H17S           27.1092813420      -24.2915478785       -7.2470644722  MEMB      167             0.0000000000
     19405       167  SAPC      C218           27.6208662795      -25.4832106872       -5.5029587868  MEMB      167             0.0000000000
     19406       167  SAPC      H18R           28.4506522654      -24.7815946288       -5.2716338089  MEMB      167             0.0000000000
     19407       167  SAPC      H18S           27.8669411803      -26.5478862378       -5.3023746626  MEMB      167             0.0000000000
     19408       167  SAPC      C219           26.4614839332      -24.9368103619       -4.5466903034  MEMB      167             0.0000000000
     19409       167  SAPC      H19R           25.5521661005      -25.3297615033       -5.0497326031  MEMB      167             0.0000000000
     19410       167  SAPC      H19S           26.4047703622      -23.8274231807       -4.5275929019  MEMB      167             0.0000000000
     19411       167  SAPC      C220           26.5448935874      -25.4035946510       -3.0737939456  MEMB      167             0.0000000000
     19412       167  SAPC      H20R           27.4363562964      -25.0171561269       -2.5350164762  MEMB      167             0.0000000000
     19413       167  SAPC      H20S           26.5642538076      -26.5122561177       -3.0043968489  MEMB      167             0.0000000000
     19414       167  SAPC      H20T           25.5858338467      -25.1520998274       -2.5725193813  MEMB      167             0.0000000000
     19415       167  SAPC      C33            29.2014931364      -24.1094004256      -13.9442471494  MEMB      167             0.0000000000
     19416       167  SAPC      H3X            29.1157234158      -25.0183077755      -13.3111187166  MEMB      167             0.0000000000
     19417       167  SAPC      H3Y            28.4186335738      -23.4533906728      -13.5070938680  MEMB      167             0.0000000000
     19418       167  SAPC      C34            30.5988352776      -23.6006428480      -13.7250343909  MEMB      167             0.0000000000
     19419       167  SAPC      H4X            30.5144731607      -22.4940379817      -13.7763129215  MEMB      167             0.0000000000
     19420       167  SAPC      H4Y            31.2969613024      -23.8749822585      -14.5445946034  MEMB      167             0.0000000000
     19421       167  SAPC      C35            31.3143388506      -24.0051722612      -12.3566189667  MEMB      167             0.0000000000
     19422       167  SAPC      H5X            32.3307089429      -23.5564936279      -12.3572299984  MEMB      167             0.0000000000
     19423       167  SAPC      H5Y            31.5053050123      -25.0985721692      -12.4048868174  MEMB      167             0.0000000000
     19424       167  SAPC      C36            30.5734438242      -23.6054269104      -11.0878914957  MEMB      167             0.0000000000
     19425       167  SAPC      H6X            31.2510864878      -23.8174302954      -10.2333876293  MEMB      167             0.0000000000
     19426       167  SAPC      H6Y            29.6258242553      -24.1043702081      -10.7922674237  MEMB      167             0.0000000000
     19427       167  SAPC      C37            30.2358877112      -22.0511799212      -11.0308371201  MEMB      167             0.0000000000
     19428       167  SAPC      H7X            29.5116448750      -21.7928333315      -11.8327419698  MEMB      167             0.0000000000
     19429       167  SAPC      H7Y            31.1758440767      -21.4868236500      -11.2105730620  MEMB      167             0.0000000000
     19430       167  SAPC      C38            29.6753374761      -21.5167438374       -9.7018001996  MEMB      167             0.0000000000
     19431       167  SAPC      H8X            30.2521724160      -21.7481958032       -8.7809235537  MEMB      167             0.0000000000
     19432       167  SAPC      H8Y            28.7574434231      -22.1324206539       -9.5889574421  MEMB      167             0.0000000000
     19433       167  SAPC      C39            29.3802102195      -20.0538371875       -9.8052953046  MEMB      167             0.0000000000
     19434       167  SAPC      H9X            29.0217167755      -19.7231217266      -10.8035097840  MEMB      167             0.0000000000
     19435       167  SAPC      H9Y            30.3473626118      -19.5753451842       -9.5407526772  MEMB      167             0.0000000000
     19436       167  SAPC      C310           28.2579487449      -19.6149213286       -8.8057738539  MEMB      167             0.0000000000
     19437       167  SAPC      H10X           27.2716648795      -20.0216685851       -9.1158095740  MEMB      167             0.0000000000
     19438       167  SAPC      H10Y           28.2619919313      -18.5104565628       -8.9260332199  MEMB      167             0.0000000000
     19439       167  SAPC      C311           28.6093068593      -20.0307581371       -7.3428483237  MEMB      167             0.0000000000
     19440       167  SAPC      H11X           29.5819916614      -19.5215770356       -7.1727312090  MEMB      167             0.0000000000
     19441       167  SAPC      H11Y           28.9279230601      -21.0874851742       -7.4698636945  MEMB      167             0.0000000000
     19442       167  SAPC      C312           27.5854466763      -19.9123621765       -6.1738007532  MEMB      167             0.0000000000
     19443       167  SAPC      H12X           26.9335150437      -19.0373775015       -6.3828644464  MEMB      167             0.0000000000
     19444       167  SAPC      H12Y           28.1597955905      -19.8351333247       -5.2259182464  MEMB      167             0.0000000000
     19445       167  SAPC      C313           26.5734787280      -21.0622042521       -5.9759625818  MEMB      167             0.0000000000
     19446       167  SAPC      H13X           26.9582131472      -21.9175599702       -5.3804233940  MEMB      167             0.0000000000
     19447       167  SAPC      H13Y           26.2318023079      -21.2578623708       -7.0148547035  MEMB      167             0.0000000000
     19448       167  SAPC      C314           25.2860621931      -20.7594958226       -5.1975901042  MEMB      167             0.0000000000
     19449       167  SAPC      H14X           24.5058575205      -21.5432997778       -5.3036705462  MEMB      167             0.0000000000
     19450       167  SAPC      H14Y           24.8565063808      -19.8624611637       -5.6926988074  MEMB      167             0.0000000000
     19451       167  SAPC      C315           25.6077279801      -20.2525500767       -3.7970983944  MEMB      167             0.0000000000
     19452       167  SAPC      H15X           24.7783886284      -19.5664365071       -3.5218431261  MEMB      167             0.0000000000
     19453       167  SAPC      H15Y           26.5496701008      -19.6638147854       -3.7757245922  MEMB      167             0.0000000000
     19454       167  SAPC      C316           25.6475878277      -21.3334745760       -2.7835017031  MEMB      167             0.0000000000
     19455       167  SAPC      H16X           26.5557270268      -21.9645733325       -2.8898905126  MEMB      167             0.0000000000
     19456       167  SAPC      H16Y           24.7938708336      -22.0387129982       -2.8736519093  MEMB      167             0.0000000000
     19457       167  SAPC      C317           25.8765658953      -20.7212610409       -1.3717543809  MEMB      167             0.0000000000
     19458       167  SAPC      H17X           25.1145931177      -19.9159969499       -1.2991771707  MEMB      167             0.0000000000
     19459       167  SAPC      H17Y           26.8605201261      -20.2098864422       -1.4399528077  MEMB      167             0.0000000000
     19460       167  SAPC      C318           25.8047897718      -21.6886480110       -0.1898699675  MEMB      167             0.0000000000
     19461       167  SAPC      H18X           25.7112765639      -21.1781449372        0.7924547810  MEMB      167             0.0000000000
     19462       167  SAPC      H18Y           26.7480574413      -22.2593862427       -0.0526655050  MEMB      167             0.0000000000
     19463       167  SAPC      H18Z           24.9026637326      -22.3319101356       -0.2717447393  MEMB      167             0.0000000000
     19464       168  SAPS      N             -34.1233245502       -8.4466046924      -21.0594784043  MEMB      168             0.0000000000
     19465       168  SAPS      HN1           -35.1106166195       -8.1212013638      -21.0283829597  MEMB      168             0.0000000000
     19466       168  SAPS      HN2           -33.7156630988       -8.3863262733      -20.1046073053  MEMB      168             0.0000000000
     19467       168  SAPS      HN3           -33.5879465947       -7.8965984388      -21.7612358765  MEMB      168             0.0000000000
     19468       168  SAPS      C12           -34.1162170896       -9.9044933657      -21.2490288056  MEMB      168             0.0000000000
     19469       168  SAPS      H12A          -34.6682416793      -10.0835337592      -22.1598599546  MEMB      168             0.0000000000
     19470       168  SAPS      C13           -32.7171096477      -10.5980396221      -21.2781673005  MEMB      168             0.0000000000
     19471       168  SAPS      O13A          -31.7179669085       -9.9615050579      -20.8929932874  MEMB      168             0.0000000000
     19472       168  SAPS      O13B          -32.6683500314      -11.8194542958      -21.5358847728  MEMB      168             0.0000000000
     19473       168  SAPS      C11           -34.9324466155      -10.7073608099      -20.0713409575  MEMB      168             0.0000000000
     19474       168  SAPS      H11A          -34.3330238079      -10.4726630015      -19.1658409491  MEMB      168             0.0000000000
     19475       168  SAPS      H11B          -34.9273589260      -11.7973983129      -20.2860811581  MEMB      168             0.0000000000
     19476       168  SAPS      P             -37.2752510134      -10.4475547432      -18.7186079011  MEMB      168             0.0000000000
     19477       168  SAPS      O13           -36.7855132191       -9.5119169783      -17.6606263706  MEMB      168             0.0000000000
     19478       168  SAPS      O14           -38.6365375005      -10.2531026862      -19.2812491196  MEMB      168             0.0000000000
     19479       168  SAPS      O12           -36.2627499262      -10.1910582991      -19.9858842547  MEMB      168             0.0000000000
     19480       168  SAPS      O11           -36.9580486403      -12.0070975889      -18.2667388615  MEMB      168             0.0000000000
     19481       168  SAPS      C1            -37.7860923296      -13.0317872516      -18.8681921266  MEMB      168             0.0000000000
     19482       168  SAPS      HA            -38.8061381186      -12.9568996903      -18.4343495345  MEMB      168             0.0000000000
     19483       168  SAPS      HB            -37.7294013435      -13.0488044910      -19.9776142999  MEMB      168             0.0000000000
     19484       168  SAPS      C2            -37.2230117702      -14.4649381719      -18.6889428655  MEMB      168             0.0000000000
     19485       168  SAPS      HS            -37.9312614291      -15.1752412671      -19.1666176535  MEMB      168             0.0000000000
     19486       168  SAPS      O21           -37.0238497887      -14.8731580985      -17.3097690365  MEMB      168             0.0000000000
     19487       168  SAPS      C21           -38.0377890557      -14.9559878079      -16.4168523271  MEMB      168             0.0000000000
     19488       168  SAPS      O22           -39.2261565898      -15.0498607798      -16.6530058572  MEMB      168             0.0000000000
     19489       168  SAPS      C22           -37.3501617594      -15.1338395701      -15.0553662990  MEMB      168             0.0000000000
     19490       168  SAPS      H2R           -36.7653307779      -16.0553518745      -15.2629928465  MEMB      168             0.0000000000
     19491       168  SAPS      H2S           -36.6101749014      -14.3976956402      -14.6747973531  MEMB      168             0.0000000000
     19492       168  SAPS      C3            -35.9132216830      -14.6899040619      -19.4130392177  MEMB      168             0.0000000000
     19493       168  SAPS      HX            -36.1585697379      -14.4338197432      -20.4659144121  MEMB      168             0.0000000000
     19494       168  SAPS      HY            -35.6456713543      -15.7682022968      -19.4163182098  MEMB      168             0.0000000000
     19495       168  SAPS      O31           -34.8483302906      -13.8624729074      -18.9053651953  MEMB      168             0.0000000000
     19496       168  SAPS      C31           -34.1178890045      -14.4407991142      -17.9498242597  MEMB      168             0.0000000000
     19497       168  SAPS      O32           -34.2853794989      -15.5554914194      -17.4315512422  MEMB      168             0.0000000000
     19498       168  SAPS      C32           -32.9811907783      -13.4948735992      -17.5777107684  MEMB      168             0.0000000000
     19499       168  SAPS      H2X           -32.7541867524      -12.7569734753      -18.3766436240  MEMB      168             0.0000000000
     19500       168  SAPS      H2Y           -32.0414407995      -13.9289051341      -17.1742168076  MEMB      168             0.0000000000
     19501       168  SAPS      C23           -38.3720262937      -15.6058497413      -13.9308777572  MEMB      168             0.0000000000
     19502       168  SAPS      H3R           -37.8347592614      -15.9888621938      -13.0370284580  MEMB      168             0.0000000000
     19503       168  SAPS      H3S           -38.8279042922      -16.5308470339      -14.3442493910  MEMB      168             0.0000000000
     19504       168  SAPS      C24           -39.4603509641      -14.5417212647      -13.4969017295  MEMB      168             0.0000000000
     19505       168  SAPS      H4R           -39.9780243905      -14.9278410780      -12.5928847958  MEMB      168             0.0000000000
     19506       168  SAPS      H4S           -40.2173491822      -14.4325684035      -14.3027308866  MEMB      168             0.0000000000
     19507       168  SAPS      C25           -38.9214763979      -13.1500741937      -13.2166149504  MEMB      168             0.0000000000
     19508       168  SAPS      H5R           -38.4452819071      -12.7965917523      -14.1430533213  MEMB      168             0.0000000000
     19509       168  SAPS      C26           -38.9840461672      -12.4290857377      -12.0851217154  MEMB      168             0.0000000000
     19510       168  SAPS      H6R           -38.5369700251      -11.4307075020      -11.9695192682  MEMB      168             0.0000000000
     19511       168  SAPS      C27           -39.6573982533      -12.7838048746      -10.7789116050  MEMB      168             0.0000000000
     19512       168  SAPS      H7R           -40.7520931320      -12.6627255352      -10.9248699936  MEMB      168             0.0000000000
     19513       168  SAPS      H7S           -39.5050541827      -12.0416115248       -9.9663473442  MEMB      168             0.0000000000
     19514       168  SAPS      C28           -39.2160386540      -14.1648392852      -10.1292502832  MEMB      168             0.0000000000
     19515       168  SAPS      H8R           -39.6854117692      -15.1344007406      -10.3520494684  MEMB      168             0.0000000000
     19516       168  SAPS      C29           -38.2087608374      -14.3048799513       -9.2877953711  MEMB      168             0.0000000000
     19517       168  SAPS      H9R           -38.0431501428      -15.3312777848       -8.9285175492  MEMB      168             0.0000000000
     19518       168  SAPS      C210          -37.2412433979      -13.2574217312       -8.8057409364  MEMB      168             0.0000000000
     19519       168  SAPS      H10R          -37.0859362784      -13.2673450334       -7.7056942243  MEMB      168             0.0000000000
     19520       168  SAPS      H10S          -37.6965294407      -12.2470591052       -8.8844984312  MEMB      168             0.0000000000
     19521       168  SAPS      C211          -35.9362101807      -13.3519224097       -9.5695365079  MEMB      168             0.0000000000
     19522       168  SAPS      H11R          -36.0972585689      -13.0621115451      -10.6183802634  MEMB      168             0.0000000000
     19523       168  SAPS      C212          -34.7048026375      -13.8428225418       -9.1935914834  MEMB      168             0.0000000000
     19524       168  SAPS      H12R          -33.8883910328      -13.7244546527       -9.9212325138  MEMB      168             0.0000000000
     19525       168  SAPS      C213          -34.3553917180      -14.4571609540       -7.8522411428  MEMB      168             0.0000000000
     19526       168  SAPS      H13R          -34.7671925873      -13.7545882150       -7.0965082112  MEMB      168             0.0000000000
     19527       168  SAPS      H13S          -33.2480563750      -14.4812148617       -7.7653450979  MEMB      168             0.0000000000
     19528       168  SAPS      C214          -34.8928944151      -15.9032993962       -7.6871494247  MEMB      168             0.0000000000
     19529       168  SAPS      H14R          -34.9188343752      -16.3598458355       -8.6875958951  MEMB      168             0.0000000000
     19530       168  SAPS      C215          -35.3614447370      -16.5521314097       -6.6064140777  MEMB      168             0.0000000000
     19531       168  SAPS      H15R          -35.7086759833      -17.5758061447       -6.8101801427  MEMB      168             0.0000000000
     19532       168  SAPS      C216          -35.4777365066      -15.9786156100       -5.2467685192  MEMB      168             0.0000000000
     19533       168  SAPS      H16R          -35.0072605593      -14.9752259634       -5.1681405452  MEMB      168             0.0000000000
     19534       168  SAPS      H16S          -35.0138229473      -16.6058313697       -4.4557526672  MEMB      168             0.0000000000
     19535       168  SAPS      C217          -36.9371377297      -15.9208891526       -4.8724641601  MEMB      168             0.0000000000
     19536       168  SAPS      H17R          -37.4117763171      -16.9248815969       -4.8402381568  MEMB      168             0.0000000000
     19537       168  SAPS      H17S          -37.5184219898      -15.3280264443       -5.6106675651  MEMB      168             0.0000000000
     19538       168  SAPS      C218          -37.1723422497      -15.5488683851       -3.3884208832  MEMB      168             0.0000000000
     19539       168  SAPS      H18R          -36.8078821732      -14.5179814159       -3.1915401101  MEMB      168             0.0000000000
     19540       168  SAPS      H18S          -36.4535611469      -16.0645680266       -2.7163129963  MEMB      168             0.0000000000
     19541       168  SAPS      C219          -38.6064487410      -15.8335048897       -2.9138782989  MEMB      168             0.0000000000
     19542       168  SAPS      H19R          -39.3727605760      -15.2353674896       -3.4517616856  MEMB      168             0.0000000000
     19543       168  SAPS      H19S          -38.6623731225      -15.5161704502       -1.8506314526  MEMB      168             0.0000000000
     19544       168  SAPS      C220          -39.1040937219      -17.3632171339       -2.8781786025  MEMB      168             0.0000000000
     19545       168  SAPS      H20R          -39.0661331890      -17.8116083117       -3.8939664305  MEMB      168             0.0000000000
     19546       168  SAPS      H20S          -40.1584128644      -17.3583462174       -2.5278786040  MEMB      168             0.0000000000
     19547       168  SAPS      H20T          -38.3763097302      -17.9051280903       -2.2370980682  MEMB      168             0.0000000000
     19548       168  SAPS      C33           -33.5936161183      -12.5407767885      -16.4566921193  MEMB      168             0.0000000000
     19549       168  SAPS      H3X           -34.0664390479      -13.0496621000      -15.5896307883  MEMB      168             0.0000000000
     19550       168  SAPS      H3Y           -34.3776729077      -11.9527807229      -16.9799864908  MEMB      168             0.0000000000
     19551       168  SAPS      C34           -32.5314899341      -11.6435589081      -15.8733602421  MEMB      168             0.0000000000
     19552       168  SAPS      H4X           -32.6622337530      -10.7031401069      -16.4502827892  MEMB      168             0.0000000000
     19553       168  SAPS      H4Y           -31.5703925812      -12.0605081825      -16.2431797633  MEMB      168             0.0000000000
     19554       168  SAPS      C35           -32.5416227253      -11.5278002683      -14.3410783718  MEMB      168             0.0000000000
     19555       168  SAPS      H5X           -31.5621622070      -11.0544352510      -14.1154602745  MEMB      168             0.0000000000
     19556       168  SAPS      H5Y           -32.5657870327      -12.5693208802      -13.9551097819  MEMB      168             0.0000000000
     19557       168  SAPS      C36           -33.6323618746      -10.6783245655      -13.8915181096  MEMB      168             0.0000000000
     19558       168  SAPS      H6X           -34.6403196435      -10.9779662116      -14.2500666771  MEMB      168             0.0000000000
     19559       168  SAPS      H6Y           -33.4879808110       -9.6488395763      -14.2834819962  MEMB      168             0.0000000000
     19560       168  SAPS      C37           -33.7171293108      -10.5940731069      -12.3074084197  MEMB      168             0.0000000000
     19561       168  SAPS      H7X           -32.6637872385      -10.3925312932      -12.0172830327  MEMB      168             0.0000000000
     19562       168  SAPS      H7Y           -34.0114794864      -11.5984354878      -11.9346676958  MEMB      168             0.0000000000
     19563       168  SAPS      C38           -34.7239450481       -9.4895897440      -11.9861552009  MEMB      168             0.0000000000
     19564       168  SAPS      H8X           -35.6308079102       -9.6747095233      -12.6006883167  MEMB      168             0.0000000000
     19565       168  SAPS      H8Y           -34.2240047832       -8.5552315564      -12.3198534191  MEMB      168             0.0000000000
     19566       168  SAPS      C39           -35.0575273548       -9.5307674120      -10.4746014520  MEMB      168             0.0000000000
     19567       168  SAPS      H9X           -34.2258381099       -9.1583934654       -9.8390298526  MEMB      168             0.0000000000
     19568       168  SAPS      H9Y           -35.1553847041      -10.6153599155      -10.2545931593  MEMB      168             0.0000000000
     19569       168  SAPS      C310          -36.3540641467       -8.8103193246      -10.1150263023  MEMB      168             0.0000000000
     19570       168  SAPS      H10X          -37.2973391841       -9.3606044405      -10.3193277378  MEMB      168             0.0000000000
     19571       168  SAPS      H10Y          -36.2391075783       -7.8743713460      -10.7024842567  MEMB      168             0.0000000000
     19572       168  SAPS      C311          -36.5255089952       -8.2351210667       -8.6642667460  MEMB      168             0.0000000000
     19573       168  SAPS      H11X          -37.1496134215       -7.3207828705       -8.7580786757  MEMB      168             0.0000000000
     19574       168  SAPS      H11Y          -35.6044583120       -8.0424786730       -8.0736099893  MEMB      168             0.0000000000
     19575       168  SAPS      C312          -37.3315934010       -9.2730014124       -7.8606345417  MEMB      168             0.0000000000
     19576       168  SAPS      H12X          -36.7476321857      -10.2108539677       -7.7434031228  MEMB      168             0.0000000000
     19577       168  SAPS      H12Y          -38.3063431179       -9.4089516020       -8.3760970395  MEMB      168             0.0000000000
     19578       168  SAPS      C313          -37.6331423514       -8.6883912726       -6.4019928753  MEMB      168             0.0000000000
     19579       168  SAPS      H13X          -38.2089635113       -7.7386087023       -6.4277627625  MEMB      168             0.0000000000
     19580       168  SAPS      H13Y          -36.6826182356       -8.5133745347       -5.8540928112  MEMB      168             0.0000000000
     19581       168  SAPS      C314          -38.5129040218       -9.6697766646       -5.5251347500  MEMB      168             0.0000000000
     19582       168  SAPS      H14X          -39.5456754506       -9.6292331727       -5.9326403730  MEMB      168             0.0000000000
     19583       168  SAPS      H14Y          -38.5481580060       -9.2713063925       -4.4886507298  MEMB      168             0.0000000000
     19584       168  SAPS      C315          -37.9953245531      -11.0645923525       -5.3350782717  MEMB      168             0.0000000000
     19585       168  SAPS      H15X          -37.0118286919      -11.0258726252       -4.8197548642  MEMB      168             0.0000000000
     19586       168  SAPS      H15Y          -37.7976907918      -11.5193235132       -6.3293015627  MEMB      168             0.0000000000
     19587       168  SAPS      C316          -39.0735468331      -11.9728175966       -4.6535556862  MEMB      168             0.0000000000
     19588       168  SAPS      H16X          -38.6210228871      -12.9872852018       -4.6735202606  MEMB      168             0.0000000000
     19589       168  SAPS      H16Y          -39.9377513015      -11.9016190788       -5.3481075999  MEMB      168             0.0000000000
     19590       168  SAPS      C317          -39.5022146513      -11.5953681693       -3.1902325525  MEMB      168             0.0000000000
     19591       168  SAPS      H17X          -38.8250994693      -10.9093884897       -2.6377219114  MEMB      168             0.0000000000
     19592       168  SAPS      H17Y          -39.4857414120      -12.5683492518       -2.6541754429  MEMB      168             0.0000000000
     19593       168  SAPS      C318          -40.8244388604      -10.9177165500       -3.1827069586  MEMB      168             0.0000000000
     19594       168  SAPS      H18X          -40.6698639491       -9.8206188756       -3.2651933370  MEMB      168             0.0000000000
     19595       168  SAPS      H18Y          -41.1306920388      -10.9097527202       -2.1147800932  MEMB      168             0.0000000000
     19596       168  SAPS      H18Z          -41.5420511990      -11.3303114662       -3.9237326420  MEMB      168             0.0000000000
     19597       169  OSM       N             -20.2911262709      -27.5661395864      -20.1268117702  MEMB      169             0.0000000000
     19598       169  OSM       C15           -19.1228329719      -27.6120516309      -19.2018003760  MEMB      169             0.0000000000
     19599       169  OSM       H15A          -18.6415940752      -28.5732706282      -19.0975551013  MEMB      169             0.0000000000
     19600       169  OSM       H15B          -19.4218025885      -27.2353357943      -18.2347934797  MEMB      169             0.0000000000
     19601       169  OSM       H15C          -18.3202566648      -26.9663842140      -19.5264305688  MEMB      169             0.0000000000
     19602       169  OSM       C14           -20.6444064417      -26.1143277896      -20.2421350488  MEMB      169             0.0000000000
     19603       169  OSM       H14A          -20.7598760762      -25.6908127706      -19.2553717902  MEMB      169             0.0000000000
     19604       169  OSM       H14B          -21.5684756749      -26.0961690500      -20.8008535033  MEMB      169             0.0000000000
     19605       169  OSM       H14C          -19.8591325490      -25.5766499548      -20.7526714163  MEMB      169             0.0000000000
     19606       169  OSM       C13           -19.8748828251      -28.1460235645      -21.4130209112  MEMB      169             0.0000000000
     19607       169  OSM       H13A          -19.0146652884      -27.8036061135      -21.9690571236  MEMB      169             0.0000000000
     19608       169  OSM       H13B          -20.7131207450      -28.0765803190      -22.0904681417  MEMB      169             0.0000000000
     19609       169  OSM       H13C          -19.7053566610      -29.2070512286      -21.3040196999  MEMB      169             0.0000000000
     19610       169  OSM       C12           -21.5446138492      -28.2467002098      -19.5859152585  MEMB      169             0.0000000000
     19611       169  OSM       H12A          -21.6636244354      -27.8725831723      -18.5797974139  MEMB      169             0.0000000000
     19612       169  OSM       H12B          -21.2153623897      -29.2646303149      -19.4382268887  MEMB      169             0.0000000000
     19613       169  OSM       C11           -22.9843173400      -28.0024208353      -20.3010086269  MEMB      169             0.0000000000
     19614       169  OSM       H11A          -23.1032995678      -26.9125901314      -20.1209168590  MEMB      169             0.0000000000
     19615       169  OSM       H11B          -23.7638490123      -28.5754047052      -19.7548027602  MEMB      169             0.0000000000
     19616       169  OSM       P             -23.0011722789      -29.8586915653      -22.0990421869  MEMB      169             0.0000000000
     19617       169  OSM       O13           -24.4338462135      -30.1766125530      -22.1079456314  MEMB      169             0.0000000000
     19618       169  OSM       O14           -22.2904992805      -29.9366586246      -23.3987031127  MEMB      169             0.0000000000
     19619       169  OSM       O11           -22.3303286156      -30.6248866212      -20.8608222171  MEMB      169             0.0000000000
     19620       169  OSM       O12           -22.9396979055      -28.2690658880      -21.6627948917  MEMB      169             0.0000000000
     19621       169  OSM       C1S           -22.5619372831      -31.9130126411      -20.5467535781  MEMB      169             0.0000000000
     19622       169  OSM       H1S           -22.3083287558      -32.5859483122      -21.3936072483  MEMB      169             0.0000000000
     19623       169  OSM       H1T           -23.6322445599      -31.9567231499      -20.2520459450  MEMB      169             0.0000000000
     19624       169  OSM       NF            -22.0158678232      -31.3407118719      -18.2134837743  MEMB      169             0.0000000000
     19625       169  OSM       HNF           -21.3398271348      -30.6082488887      -18.1916697847  MEMB      169             0.0000000000
     19626       169  OSM       C2S           -21.7258644205      -32.2173890398      -19.2703160104  MEMB      169             0.0000000000
     19627       169  OSM       H2S           -21.7620699687      -33.2681467309      -18.9112636361  MEMB      169             0.0000000000
     19628       169  OSM       C3S           -20.2535600760      -32.1335966693      -19.6880918120  MEMB      169             0.0000000000
     19629       169  OSM       H3S           -20.1955359172      -31.1371461694      -20.1759858501  MEMB      169             0.0000000000
     19630       169  OSM       O3            -19.9018922553      -33.1550425530      -20.5330740321  MEMB      169             0.0000000000
     19631       169  OSM       HO3           -20.7023792793      -33.6631186588      -20.6836700932  MEMB      169             0.0000000000
     19632       169  OSM       C4S           -19.3343559626      -32.3156624305      -18.4768635257  MEMB      169             0.0000000000
     19633       169  OSM       H4S           -19.1638484297      -33.3697840753      -18.2127534765  MEMB      169             0.0000000000
     19634       169  OSM       C5S           -18.5401189463      -31.3882035292      -17.8664041711  MEMB      169             0.0000000000
     19635       169  OSM       H5S           -18.5905754803      -30.3882070499      -18.3218830177  MEMB      169             0.0000000000
     19636       169  OSM       C6S           -17.7152800672      -31.6454505023      -16.6620975789  MEMB      169             0.0000000000
     19637       169  OSM       H6S           -16.6733307014      -31.4042650580      -16.9629171789  MEMB      169             0.0000000000
     19638       169  OSM       H6T           -17.7242774381      -32.7436184905      -16.4939690667  MEMB      169             0.0000000000
     19639       169  OSM       C7S           -18.1831114279      -30.7151124326      -15.5335570864  MEMB      169             0.0000000000
     19640       169  OSM       H7S           -19.2554311518      -30.9266369913      -15.3342873280  MEMB      169             0.0000000000
     19641       169  OSM       H7T           -18.1436887057      -29.6288094722      -15.7631496565  MEMB      169             0.0000000000
     19642       169  OSM       C8S           -17.3304200681      -30.7785527931      -14.2485752895  MEMB      169             0.0000000000
     19643       169  OSM       H8S           -16.2628085282      -30.6469634226      -14.5264435166  MEMB      169             0.0000000000
     19644       169  OSM       H8T           -17.3981679389      -31.8052519414      -13.8295046924  MEMB      169             0.0000000000
     19645       169  OSM       C9S           -17.5775276742      -29.7032582428      -13.0609678109  MEMB      169             0.0000000000
     19646       169  OSM       H9S           -18.0090283361      -28.7614452302      -13.4623612480  MEMB      169             0.0000000000
     19647       169  OSM       H9T           -16.5810910144      -29.5579429127      -12.5915863932  MEMB      169             0.0000000000
     19648       169  OSM       C10S          -18.6329463953      -30.2440139877      -12.0872735497  MEMB      169             0.0000000000
     19649       169  OSM       H10S          -18.2108912885      -31.2288711122      -11.7935954786  MEMB      169             0.0000000000
     19650       169  OSM       H10T          -19.6063921162      -30.3451892893      -12.6130944378  MEMB      169             0.0000000000
     19651       169  OSM       C11S          -18.8273202254      -29.4238229898      -10.7749615200  MEMB      169             0.0000000000
     19652       169  OSM       H11S          -18.9695322515      -28.3750680655      -11.1129109423  MEMB      169             0.0000000000
     19653       169  OSM       H11T          -17.9648027110      -29.4912626574      -10.0779429633  MEMB      169             0.0000000000
     19654       169  OSM       C12S          -20.0465632515      -29.8265185583       -9.8725895001  MEMB      169             0.0000000000
     19655       169  OSM       H12S          -19.8552927080      -30.8609423334       -9.5152318131  MEMB      169             0.0000000000
     19656       169  OSM       H12T          -21.0040395404      -29.8260643894      -10.4361133378  MEMB      169             0.0000000000
     19657       169  OSM       C13S          -20.1918246208      -28.7816774313       -8.8001044493  MEMB      169             0.0000000000
     19658       169  OSM       H13S          -20.4980280523      -27.8040738739       -9.2300485509  MEMB      169             0.0000000000
     19659       169  OSM       H13T          -19.1334840589      -28.5892478650       -8.5222427738  MEMB      169             0.0000000000
     19660       169  OSM       C14S          -21.2018038773      -29.1643482042       -7.7102839144  MEMB      169             0.0000000000
     19661       169  OSM       H14S          -21.0682530464      -30.1669558402       -7.2506505073  MEMB      169             0.0000000000
     19662       169  OSM       H14T          -22.1985774711      -29.1380875863       -8.2002574830  MEMB      169             0.0000000000
     19663       169  OSM       C15S          -21.1606378750      -28.0353795895       -6.5623807994  MEMB      169             0.0000000000
     19664       169  OSM       H15S          -22.1458738057      -27.5278135175       -6.4848714430  MEMB      169             0.0000000000
     19665       169  OSM       H15T          -20.3692617622      -27.3323386115       -6.8996910602  MEMB      169             0.0000000000
     19666       169  OSM       C16S          -20.5751287753      -28.5284464222       -5.2294888293  MEMB      169             0.0000000000
     19667       169  OSM       H16S          -20.3052152455      -27.5963835497       -4.6884467500  MEMB      169             0.0000000000
     19668       169  OSM       H16T          -19.6791129548      -29.1535779782       -5.4311989456  MEMB      169             0.0000000000
     19669       169  OSM       C17S          -21.4619762711      -29.3089520547       -4.2524976305  MEMB      169             0.0000000000
     19670       169  OSM       H17S          -21.7467356105      -30.2598000431       -4.7516178252  MEMB      169             0.0000000000
     19671       169  OSM       H17T          -22.4147143306      -28.7564031041       -4.1065496177  MEMB      169             0.0000000000
     19672       169  OSM       C18S          -20.8602655474      -29.6554342640       -2.9335729828  MEMB      169             0.0000000000
     19673       169  OSM       H18S          -21.4797664388      -30.4385108120       -2.4464069559  MEMB      169             0.0000000000
     19674       169  OSM       H18T          -20.9254474627      -28.8341371517       -2.1882265170  MEMB      169             0.0000000000
     19675       169  OSM       H18U          -19.8355700385      -30.0827745746       -2.8923387439  MEMB      169             0.0000000000
     19676       169  OSM       C1F           -23.0676847274      -31.5196760043      -17.4773701623  MEMB      169             0.0000000000
     19677       169  OSM       OF            -23.9963568466      -32.1833290691      -17.9470019703  MEMB      169             0.0000000000
     19678       169  OSM       C2F           -23.2082739895      -30.9298116806      -16.1278386294  MEMB      169             0.0000000000
     19679       169  OSM       H2F           -24.2623394362      -30.5823598426      -16.0773982066  MEMB      169             0.0000000000
     19680       169  OSM       H2G           -22.4881733076      -30.0899443631      -16.0258633168  MEMB      169             0.0000000000
     19681       169  OSM       C3F           -23.0827093860      -31.8752066674      -14.8823628322  MEMB      169             0.0000000000
     19682       169  OSM       H3F           -22.0789853708      -32.3514317068      -14.8906596291  MEMB      169             0.0000000000
     19683       169  OSM       H3G           -23.7592023061      -32.7247610202      -15.1167468138  MEMB      169             0.0000000000
     19684       169  OSM       C4F           -23.4009024794      -31.0563903996      -13.6137564217  MEMB      169             0.0000000000
     19685       169  OSM       H4F           -24.4639687691      -30.7760062136      -13.7737428279  MEMB      169             0.0000000000
     19686       169  OSM       H4G           -22.7317116694      -30.1698402194      -13.6368521565  MEMB      169             0.0000000000
     19687       169  OSM       C5F           -23.1918393984      -31.7863393732      -12.2378886663  MEMB      169             0.0000000000
     19688       169  OSM       H5F           -23.3704632895      -31.0475474539      -11.4275796743  MEMB      169             0.0000000000
     19689       169  OSM       H5G           -22.1181218280      -32.0661816687      -12.1818528597  MEMB      169             0.0000000000
     19690       169  OSM       C6F           -24.2308353278      -32.8959733659      -12.1112830418  MEMB      169             0.0000000000
     19691       169  OSM       H6F           -24.0779764084      -33.8114262615      -12.7219400059  MEMB      169             0.0000000000
     19692       169  OSM       H6G           -25.2246310241      -32.4861672267      -12.3919076197  MEMB      169             0.0000000000
     19693       169  OSM       C7F           -24.3773378319      -33.3309471605      -10.5830881540  MEMB      169             0.0000000000
     19694       169  OSM       H7F           -23.3822132042      -33.5153271827      -10.1247745970  MEMB      169             0.0000000000
     19695       169  OSM       H7G           -24.8750444121      -34.3241165436      -10.5681187447  MEMB      169             0.0000000000
     19696       169  OSM       C8F           -25.3364885241      -32.3367594090       -9.9035368493  MEMB      169             0.0000000000
     19697       169  OSM       H8F           -26.2855875531      -32.2740498424      -10.4776445194  MEMB      169             0.0000000000
     19698       169  OSM       H8G           -24.8902213184      -31.3208605797       -9.9593595776  MEMB      169             0.0000000000
     19699       169  OSM       C9F           -25.7502605780      -32.7551255801       -8.5227920804  MEMB      169             0.0000000000
     19700       169  OSM       H9F           -26.4873696172      -33.5573265857       -8.3706606099  MEMB      169             0.0000000000
     19701       169  OSM       C10F          -25.1713877852      -32.1890946163       -7.4366786443  MEMB      169             0.0000000000
     19702       169  OSM       H10F          -25.5950574700      -32.4830606963       -6.4650365501  MEMB      169             0.0000000000
     19703       169  OSM       C11F          -24.0833080473      -31.1249872435       -7.2748855140  MEMB      169             0.0000000000
     19704       169  OSM       H11F          -24.1911045229      -30.5701809906       -8.2313854594  MEMB      169             0.0000000000
     19705       169  OSM       H11G          -23.1180968506      -31.6363404373       -7.0718926623  MEMB      169             0.0000000000
     19706       169  OSM       C12F          -24.4798429315      -29.9686233724       -6.2231384657  MEMB      169             0.0000000000
     19707       169  OSM       H12F          -23.8848689305      -29.0423396374       -6.3725543591  MEMB      169             0.0000000000
     19708       169  OSM       H12G          -24.3602209354      -30.4779109336       -5.2430178461  MEMB      169             0.0000000000
     19709       169  OSM       C13F          -25.8910508813      -29.4320124657       -6.5164418769  MEMB      169             0.0000000000
     19710       169  OSM       H13F          -26.6689584149      -30.2252017956       -6.5108031657  MEMB      169             0.0000000000
     19711       169  OSM       H13G          -25.8790122369      -28.9380303981       -7.5115091975  MEMB      169             0.0000000000
     19712       169  OSM       C14F          -26.3156882662      -28.3956900327       -5.4717222068  MEMB      169             0.0000000000
     19713       169  OSM       H14F          -27.3147679003      -28.0234643164       -5.7841466009  MEMB      169             0.0000000000
     19714       169  OSM       H14G          -25.5157029454      -27.6247534177       -5.4728930518  MEMB      169             0.0000000000
     19715       169  OSM       C15F          -26.5545167110      -28.8955032815       -4.0663632499  MEMB      169             0.0000000000
     19716       169  OSM       H15F          -25.6667318978      -29.5226380272       -3.8364489683  MEMB      169             0.0000000000
     19717       169  OSM       H15G          -27.3975772237      -29.6188628758       -4.0842720787  MEMB      169             0.0000000000
     19718       169  OSM       C16F          -26.7415866635      -27.8531044112       -2.9160308747  MEMB      169             0.0000000000
     19719       169  OSM       H16F          -26.9625542341      -28.4202299984       -1.9865894822  MEMB      169             0.0000000000
     19720       169  OSM       H16G          -27.5399475062      -27.1159003674       -3.1472691162  MEMB      169             0.0000000000
     19721       169  OSM       C17F          -25.4249102462      -27.0806700263       -2.6842543703  MEMB      169             0.0000000000
     19722       169  OSM       H17F          -25.6418294310      -26.0262452682       -2.4095619337  MEMB      169             0.0000000000
     19723       169  OSM       H17G          -24.9010411549      -26.8495555523       -3.6363412468  MEMB      169             0.0000000000
     19724       169  OSM       C18F          -24.4663822257      -27.5335585185       -1.5978936517  MEMB      169             0.0000000000
     19725       169  OSM       H18F          -24.0658297973      -28.5427644914       -1.8332268030  MEMB      169             0.0000000000
     19726       169  OSM       H18G          -24.9372293997      -27.5692856092       -0.5922349296  MEMB      169             0.0000000000
     19727       169  OSM       H18H          -23.5841470278      -26.8588913993       -1.5694978850  MEMB      169             0.0000000000
     19728       170  SLPC      N             -34.4181191357       -4.9794855048      -17.1579887587  MEMB      170             0.0000000000
     19729       170  SLPC      C13           -33.1341116697       -5.6608896290      -16.7978314374  MEMB      170             0.0000000000
     19730       170  SLPC      H13A          -33.2800485508       -6.5731399378      -16.2384550402  MEMB      170             0.0000000000
     19731       170  SLPC      H13B          -32.5484457908       -5.8467415430      -17.6860062782  MEMB      170             0.0000000000
     19732       170  SLPC      H13C          -32.5281683889       -4.9968048161      -16.1993130093  MEMB      170             0.0000000000
     19733       170  SLPC      C14           -35.1997831587       -5.8329525896      -18.1405573959  MEMB      170             0.0000000000
     19734       170  SLPC      H14A          -36.0808912114       -5.3858773679      -18.5766448841  MEMB      170             0.0000000000
     19735       170  SLPC      H14B          -34.5743861459       -6.1616497033      -18.9574030059  MEMB      170             0.0000000000
     19736       170  SLPC      H14C          -35.5815673633       -6.7151198512      -17.6481940155  MEMB      170             0.0000000000
     19737       170  SLPC      C15           -34.0960501384       -3.6160544982      -17.7130796098  MEMB      170             0.0000000000
     19738       170  SLPC      H15A          -35.0159495102       -3.0940813649      -17.9315491579  MEMB      170             0.0000000000
     19739       170  SLPC      H15B          -33.6826511003       -3.0457573798      -16.8943840066  MEMB      170             0.0000000000
     19740       170  SLPC      H15C          -33.4373950237       -3.7699319415      -18.5550387671  MEMB      170             0.0000000000
     19741       170  SLPC      C12           -35.2896218167       -4.8349657807      -15.9487260030  MEMB      170             0.0000000000
     19742       170  SLPC      H12A          -34.7965778894       -4.1362086170      -15.2891457033  MEMB      170             0.0000000000
     19743       170  SLPC      H12B          -35.3909936155       -5.7980758550      -15.4706645565  MEMB      170             0.0000000000
     19744       170  SLPC      C11           -36.8776606775       -4.4764789746      -16.2949121370  MEMB      170             0.0000000000
     19745       170  SLPC      H11A          -37.2575884326       -4.2096368471      -15.2855701656  MEMB      170             0.0000000000
     19746       170  SLPC      H11B          -37.3252521167       -5.4040101833      -16.7116479976  MEMB      170             0.0000000000
     19747       170  SLPC      P             -37.9353078794       -2.1493194102      -17.0570682063  MEMB      170             0.0000000000
     19748       170  SLPC      O13           -37.8353943517       -1.2240499898      -18.2185341027  MEMB      170             0.0000000000
     19749       170  SLPC      O14           -39.2656678238       -2.6538458109      -16.7302783426  MEMB      170             0.0000000000
     19750       170  SLPC      O12           -37.0445372907       -3.4825767225      -17.2498425155  MEMB      170             0.0000000000
     19751       170  SLPC      O11           -37.3876098587       -1.4586458501      -15.6911814927  MEMB      170             0.0000000000
     19752       170  SLPC      C1            -36.1402062157       -0.7734082543      -15.6818792349  MEMB      170             0.0000000000
     19753       170  SLPC      HA            -35.3916923189       -1.2007284927      -16.3829109357  MEMB      170             0.0000000000
     19754       170  SLPC      HB            -36.3040209097        0.3109272041      -15.8599301030  MEMB      170             0.0000000000
     19755       170  SLPC      C2            -35.5540576883       -0.8352600682      -14.2401905286  MEMB      170             0.0000000000
     19756       170  SLPC      HS            -34.6039705765       -0.2595101400      -14.2531243848  MEMB      170             0.0000000000
     19757       170  SLPC      O21           -35.2537699881       -2.1538330674      -13.8555472668  MEMB      170             0.0000000000
     19758       170  SLPC      C21           -34.6736910569       -2.4752631026      -12.7916222090  MEMB      170             0.0000000000
     19759       170  SLPC      O22           -34.0102092882       -1.7787325191      -12.0511962071  MEMB      170             0.0000000000
     19760       170  SLPC      C22           -35.0975087366       -3.8878491970      -12.3356645891  MEMB      170             0.0000000000
     19761       170  SLPC      H2R           -35.0056869545       -3.8802311571      -11.2284918669  MEMB      170             0.0000000000
     19762       170  SLPC      H2S           -36.0483844942       -4.2993299525      -12.7367130758  MEMB      170             0.0000000000
     19763       170  SLPC      C3            -36.5241991250       -0.3063237435      -13.1020106103  MEMB      170             0.0000000000
     19764       170  SLPC      HX            -36.7959343539        0.7492640474      -13.3169874744  MEMB      170             0.0000000000
     19765       170  SLPC      HY            -35.9619643367       -0.3504812012      -12.1447944249  MEMB      170             0.0000000000
     19766       170  SLPC      O31           -37.5936875865       -1.1988173789      -12.9996705254  MEMB      170             0.0000000000
     19767       170  SLPC      C31           -38.1834378753       -1.2318561317      -11.7793338200  MEMB      170             0.0000000000
     19768       170  SLPC      O32           -37.9803710735       -0.4807761647      -10.9079768877  MEMB      170             0.0000000000
     19769       170  SLPC      C32           -38.9985074277       -2.5166263633      -11.6319281049  MEMB      170             0.0000000000
     19770       170  SLPC      H2X           -38.5781294804       -3.3087289169      -12.2878067449  MEMB      170             0.0000000000
     19771       170  SLPC      H2Y           -40.0324225287       -2.4546734603      -12.0338018151  MEMB      170             0.0000000000
     19772       170  SLPC      C23           -34.0450487472       -4.9125759181      -12.8351412306  MEMB      170             0.0000000000
     19773       170  SLPC      H3R           -33.0854497027       -4.7805438768      -12.2910289692  MEMB      170             0.0000000000
     19774       170  SLPC      H3S           -33.7792088558       -4.7015123273      -13.8930175246  MEMB      170             0.0000000000
     19775       170  SLPC      C24           -34.4594298173       -6.4324496657      -12.7883973595  MEMB      170             0.0000000000
     19776       170  SLPC      H4R           -33.5654161201       -7.0839334861      -12.8914960698  MEMB      170             0.0000000000
     19777       170  SLPC      H4S           -35.1680740340       -6.6340564350      -13.6199615734  MEMB      170             0.0000000000
     19778       170  SLPC      C25           -35.0580147693       -6.8615773485      -11.4157032265  MEMB      170             0.0000000000
     19779       170  SLPC      H5R           -35.8067165997       -7.6764276278      -11.5146246997  MEMB      170             0.0000000000
     19780       170  SLPC      H5S           -35.7265697395       -6.0666411922      -11.0214547887  MEMB      170             0.0000000000
     19781       170  SLPC      C26           -34.0149090687       -7.2127600844      -10.3533171165  MEMB      170             0.0000000000
     19782       170  SLPC      H6R           -33.2479354306       -6.4177938075      -10.2345687513  MEMB      170             0.0000000000
     19783       170  SLPC      H6S           -33.4051384116       -8.0279388466      -10.7982716491  MEMB      170             0.0000000000
     19784       170  SLPC      C27           -34.7306519063       -7.5552868659       -8.9880706630  MEMB      170             0.0000000000
     19785       170  SLPC      H7R           -33.9913549660       -7.9903818406       -8.2820588478  MEMB      170             0.0000000000
     19786       170  SLPC      H7S           -35.4318344080       -8.3629404210       -9.2886694234  MEMB      170             0.0000000000
     19787       170  SLPC      C28           -35.3670486890       -6.4072687065       -8.2542377157  MEMB      170             0.0000000000
     19788       170  SLPC      H8R           -35.8700650227       -6.9191122635       -7.4061153179  MEMB      170             0.0000000000
     19789       170  SLPC      H8S           -36.1635574239       -5.9569247455       -8.8843849480  MEMB      170             0.0000000000
     19790       170  SLPC      C29           -34.3708961291       -5.4422112349       -7.8213602074  MEMB      170             0.0000000000
     19791       170  SLPC      H9R           -33.4050744935       -5.9057826828       -7.5717806436  MEMB      170             0.0000000000
     19792       170  SLPC      C210          -34.5632713119       -4.0898741784       -7.7847550421  MEMB      170             0.0000000000
     19793       170  SLPC      H10R          -33.7737436028       -3.4661103994       -7.3402730910  MEMB      170             0.0000000000
     19794       170  SLPC      C211          -35.7745561282       -3.2471282501       -8.1217651247  MEMB      170             0.0000000000
     19795       170  SLPC      H11R          -36.6965277180       -3.6790313593       -7.6770756027  MEMB      170             0.0000000000
     19796       170  SLPC      H11S          -35.9340792383       -3.3625209974       -9.2151813061  MEMB      170             0.0000000000
     19797       170  SLPC      C212          -35.6381724754       -1.8032675815       -7.7739117142  MEMB      170             0.0000000000
     19798       170  SLPC      H12R          -34.7735409515       -1.4339068907       -8.3448627735  MEMB      170             0.0000000000
     19799       170  SLPC      C213          -36.5619840261       -0.9849909611       -7.1328707123  MEMB      170             0.0000000000
     19800       170  SLPC      H13R          -36.3556140890        0.0805547890       -6.9539193704  MEMB      170             0.0000000000
     19801       170  SLPC      C214          -37.9741339385       -1.2964316681       -6.5289444257  MEMB      170             0.0000000000
     19802       170  SLPC      H14R          -38.4987401254       -2.1606223141       -6.9896867233  MEMB      170             0.0000000000
     19803       170  SLPC      H14S          -38.5884020145       -0.3706952262       -6.5262318099  MEMB      170             0.0000000000
     19804       170  SLPC      C215          -37.8103275018       -1.6195254833       -5.0411416276  MEMB      170             0.0000000000
     19805       170  SLPC      H15R          -37.1465135295       -2.5087690653       -4.9871233501  MEMB      170             0.0000000000
     19806       170  SLPC      H15S          -38.7602598492       -1.9264888083       -4.5535735451  MEMB      170             0.0000000000
     19807       170  SLPC      C216          -37.1734545963       -0.5987905484       -4.0844729557  MEMB      170             0.0000000000
     19808       170  SLPC      H16R          -37.6937190570        0.3787858638       -4.1738624139  MEMB      170             0.0000000000
     19809       170  SLPC      H16S          -36.1365831889       -0.5762923621       -4.4828601692  MEMB      170             0.0000000000
     19810       170  SLPC      C217          -37.0817574026       -1.0554515301       -2.6002829776  MEMB      170             0.0000000000
     19811       170  SLPC      H17R          -36.3130056535       -0.3875903280       -2.1560945905  MEMB      170             0.0000000000
     19812       170  SLPC      H17S          -36.6628475592       -2.0790513634       -2.4950259583  MEMB      170             0.0000000000
     19813       170  SLPC      C218          -38.3642376326       -1.0266707041       -1.7867093023  MEMB      170             0.0000000000
     19814       170  SLPC      H18R          -38.1178558212       -1.5245614176       -0.8245638833  MEMB      170             0.0000000000
     19815       170  SLPC      H18S          -39.1868207851       -1.5705255750       -2.2984702516  MEMB      170             0.0000000000
     19816       170  SLPC      H18T          -38.7796853931       -0.0025351341       -1.6732605275  MEMB      170             0.0000000000
     19817       170  SLPC      C33           -39.1199361308       -2.9790730413      -10.1523733466  MEMB      170             0.0000000000
     19818       170  SLPC      H3X           -39.3829252590       -2.1920392746       -9.4136341288  MEMB      170             0.0000000000
     19819       170  SLPC      H3Y           -38.1140875020       -3.3417849300       -9.8506620638  MEMB      170             0.0000000000
     19820       170  SLPC      C34           -40.2309326598       -4.0374448730      -10.0644706098  MEMB      170             0.0000000000
     19821       170  SLPC      H4X           -39.9146989952       -4.7968940481      -10.8111663780  MEMB      170             0.0000000000
     19822       170  SLPC      H4Y           -41.1875664568       -3.6014105355      -10.4237010303  MEMB      170             0.0000000000
     19823       170  SLPC      C35           -40.3894433762       -4.6374233360       -8.6978787980  MEMB      170             0.0000000000
     19824       170  SLPC      H5X           -41.4293756617       -5.0092415183       -8.5769917286  MEMB      170             0.0000000000
     19825       170  SLPC      H5Y           -40.1183300757       -3.8426560463       -7.9704433681  MEMB      170             0.0000000000
     19826       170  SLPC      C36           -39.2960007985       -5.7060627184       -8.3487449127  MEMB      170             0.0000000000
     19827       170  SLPC      H6X           -38.3039531142       -5.2081099569       -8.3957059355  MEMB      170             0.0000000000
     19828       170  SLPC      H6Y           -39.2147753222       -6.5866362175       -9.0212874967  MEMB      170             0.0000000000
     19829       170  SLPC      C37           -39.5458054608       -6.3439268659       -6.9120384029  MEMB      170             0.0000000000
     19830       170  SLPC      H7X           -38.9304123539       -7.2688948768       -6.9052390244  MEMB      170             0.0000000000
     19831       170  SLPC      H7Y           -40.5962763760       -6.7036700238       -6.8743948353  MEMB      170             0.0000000000
     19832       170  SLPC      C38           -39.1313583446       -5.5376107121       -5.6498530516  MEMB      170             0.0000000000
     19833       170  SLPC      H8X           -39.5368833317       -4.5033519487       -5.6632505517  MEMB      170             0.0000000000
     19834       170  SLPC      H8Y           -38.0293154229       -5.3999700005       -5.6202312594  MEMB      170             0.0000000000
     19835       170  SLPC      C39           -39.6404964459       -6.2503718106       -4.4127069836  MEMB      170             0.0000000000
     19836       170  SLPC      H9X           -39.3437950953       -7.3134770409       -4.5395806700  MEMB      170             0.0000000000
     19837       170  SLPC      H9Y           -40.7485787318       -6.3071205326       -4.3556621930  MEMB      170             0.0000000000
     19838       170  SLPC      C310          -39.0158703290       -5.7331272704       -3.1505879468  MEMB      170             0.0000000000
     19839       170  SLPC      H10X          -39.5036010255       -4.7604597324       -2.9261820501  MEMB      170             0.0000000000
     19840       170  SLPC      H10Y          -37.9235522383       -5.5902849767       -3.2946647066  MEMB      170             0.0000000000
     19841       170  SLPC      C311          -39.1339790075       -6.7388710742       -1.9506780999  MEMB      170             0.0000000000
     19842       170  SLPC      H11X          -38.4825878929       -7.6135402590       -2.1627264126  MEMB      170             0.0000000000
     19843       170  SLPC      H11Y          -40.2000595444       -7.0324299917       -1.8428996458  MEMB      170             0.0000000000
     19844       170  SLPC      C312          -38.8287779749       -5.9022833761       -0.7024244883  MEMB      170             0.0000000000
     19845       170  SLPC      H12X          -38.8711060720       -6.5137277816        0.2242177682  MEMB      170             0.0000000000
     19846       170  SLPC      H12Y          -39.6171047779       -5.1330103185       -0.5572299009  MEMB      170             0.0000000000
     19847       170  SLPC      C313          -37.5511777148       -5.0359347883       -0.6476772126  MEMB      170             0.0000000000
     19848       170  SLPC      H13X          -37.5682100182       -4.4613666267        0.3030604220  MEMB      170             0.0000000000
     19849       170  SLPC      H13Y          -37.5728599559       -4.3064318505       -1.4853375564  MEMB      170             0.0000000000
     19850       170  SLPC      C314          -36.2291780682       -5.8217092308       -0.7003696284  MEMB      170             0.0000000000
     19851       170  SLPC      H14X          -36.2938451644       -6.7677012029       -1.2793675187  MEMB      170             0.0000000000
     19852       170  SLPC      H14Y          -36.0517470671       -6.1362060842        0.3503122232  MEMB      170             0.0000000000
     19853       170  SLPC      C315          -35.1290339648       -4.9009574924       -1.2563937041  MEMB      170             0.0000000000
     19854       170  SLPC      H15X          -35.5323276586       -4.4684004563       -2.1969086148  MEMB      170             0.0000000000
     19855       170  SLPC      H15Y          -34.2192481014       -5.4865552171       -1.5087539094  MEMB      170             0.0000000000
     19856       170  SLPC      C316          -34.7627129242       -3.7573465682       -0.3791178492  MEMB      170             0.0000000000
     19857       170  SLPC      H16X          -35.6687181905       -3.2209055693       -0.0245659365  MEMB      170             0.0000000000
     19858       170  SLPC      H16Y          -34.1593128359       -2.9828401081       -0.8990874500  MEMB      170             0.0000000000
     19859       170  SLPC      C317          -33.7570427289       -4.1390012936        0.7441521182  MEMB      170             0.0000000000
     19860       170  SLPC      H17X          -32.9459125467       -4.6671477072        0.1987624687  MEMB      170             0.0000000000
     19861       170  SLPC      H17Y          -34.1203972548       -4.8790882964        1.4888438095  MEMB      170             0.0000000000
     19862       170  SLPC      C318          -33.3035338727       -2.9436866145        1.5752955019  MEMB      170             0.0000000000
     19863       170  SLPC      H18X          -33.1454637749       -2.1138309850        0.8537167457  MEMB      170             0.0000000000
     19864       170  SLPC      H18Y          -32.3467487331       -3.1714406366        2.0920255618  MEMB      170             0.0000000000
     19865       170  SLPC      H18Z          -34.0598842109       -2.7551228390        2.3669389182  MEMB      170             0.0000000000
     19866       171  SOPE      N             -34.1081881852      -19.3972033194      -21.9286697281  MEMB      171             0.0000000000
     19867       171  SOPE      HN1           -34.4596835467      -19.8040011011      -21.0384076378  MEMB      171             0.0000000000
     19868       171  SOPE      HN2           -34.8111297713      -19.4127359619      -22.6949800606  MEMB      171             0.0000000000
     19869       171  SOPE      HN3           -33.2617884531      -19.9112500269      -22.2464177711  MEMB      171             0.0000000000
     19870       171  SOPE      C12           -33.8422522412      -17.9140826092      -21.7841110849  MEMB      171             0.0000000000
     19871       171  SOPE      H12A          -34.8795414647      -17.5162929588      -21.7733664326  MEMB      171             0.0000000000
     19872       171  SOPE      H12B          -33.3784170109      -17.5106218967      -22.7095284054  MEMB      171             0.0000000000
     19873       171  SOPE      C11           -32.8740037584      -17.6240974684      -20.5831211533  MEMB      171             0.0000000000
     19874       171  SOPE      H11A          -33.2045143150      -18.2273000523      -19.7106359556  MEMB      171             0.0000000000
     19875       171  SOPE      H11B          -32.9977011959      -16.5533805629      -20.3137049286  MEMB      171             0.0000000000
     19876       171  SOPE      P             -30.5989207400      -18.9270935866      -20.7577166752  MEMB      171             0.0000000000
     19877       171  SOPE      O13           -29.8425633856      -18.4362725975      -19.5878404185  MEMB      171             0.0000000000
     19878       171  SOPE      O14           -29.8615208898      -19.3855931930      -21.9907738994  MEMB      171             0.0000000000
     19879       171  SOPE      O12           -31.5392701976      -17.7777737251      -21.0842460988  MEMB      171             0.0000000000
     19880       171  SOPE      O11           -31.4627054058      -20.0985835013      -20.2835209654  MEMB      171             0.0000000000
     19881       171  SOPE      C1            -30.9409340080      -21.4589327386      -20.2382688879  MEMB      171             0.0000000000
     19882       171  SOPE      HA            -30.3353063322      -21.7738168524      -21.1148441399  MEMB      171             0.0000000000
     19883       171  SOPE      HB            -31.7573103283      -22.2098508402      -20.3012952849  MEMB      171             0.0000000000
     19884       171  SOPE      C2            -30.1739213330      -21.6786856112      -18.9407916563  MEMB      171             0.0000000000
     19885       171  SOPE      HS            -30.3245354836      -22.7549387897      -18.7098909950  MEMB      171             0.0000000000
     19886       171  SOPE      O21           -30.7229886573      -20.9063096826      -17.8678328037  MEMB      171             0.0000000000
     19887       171  SOPE      C21           -31.9554585145      -21.3522147387      -17.4112337629  MEMB      171             0.0000000000
     19888       171  SOPE      O22           -32.5470014853      -22.3460933654      -17.7604473548  MEMB      171             0.0000000000
     19889       171  SOPE      C22           -32.5284485544      -20.2860695720      -16.4815843490  MEMB      171             0.0000000000
     19890       171  SOPE      H2R           -33.2003674558      -19.6695584200      -17.1162177932  MEMB      171             0.0000000000
     19891       171  SOPE      H2S           -31.6384076516      -19.7344732932      -16.1102489946  MEMB      171             0.0000000000
     19892       171  SOPE      C3            -28.6618988144      -21.4321954338      -19.0043868373  MEMB      171             0.0000000000
     19893       171  SOPE      HX            -28.3674193210      -20.4728758047      -19.4811558159  MEMB      171             0.0000000000
     19894       171  SOPE      HY            -28.1943429143      -22.1257020891      -19.7356603159  MEMB      171             0.0000000000
     19895       171  SOPE      O31           -28.1117927656      -21.7685969713      -17.7159530175  MEMB      171             0.0000000000
     19896       171  SOPE      C31           -27.4565689532      -20.8405479826      -16.9573263870  MEMB      171             0.0000000000
     19897       171  SOPE      O32           -27.0792227606      -19.7932889370      -17.4363213813  MEMB      171             0.0000000000
     19898       171  SOPE      C32           -27.3091555246      -21.5242580355      -15.5554187112  MEMB      171             0.0000000000
     19899       171  SOPE      H2X           -26.2867112383      -21.9576061075      -15.5216726451  MEMB      171             0.0000000000
     19900       171  SOPE      H2Y           -28.0575639741      -22.3429031553      -15.4919699295  MEMB      171             0.0000000000
     19901       171  SOPE      C23           -33.2020017391      -20.9125783491      -15.2274947090  MEMB      171             0.0000000000
     19902       171  SOPE      H3R           -32.5225991063      -21.6845002728      -14.8069360784  MEMB      171             0.0000000000
     19903       171  SOPE      H3S           -34.1153336782      -21.4120075528      -15.6157166824  MEMB      171             0.0000000000
     19904       171  SOPE      C24           -33.7228129640      -19.9342218538      -14.1748554706  MEMB      171             0.0000000000
     19905       171  SOPE      H4R           -32.8626236036      -19.3215481784      -13.8298537469  MEMB      171             0.0000000000
     19906       171  SOPE      H4S           -34.4626344998      -19.2502389759      -14.6429925947  MEMB      171             0.0000000000
     19907       171  SOPE      C25           -34.3032043832      -20.6858759143      -13.0104117214  MEMB      171             0.0000000000
     19908       171  SOPE      H5R           -35.0706544125      -21.4044442266      -13.3695794062  MEMB      171             0.0000000000
     19909       171  SOPE      H5S           -33.4263579877      -21.2944301556      -12.7019914273  MEMB      171             0.0000000000
     19910       171  SOPE      C26           -34.8673281418      -19.8389551997      -11.8005882299  MEMB      171             0.0000000000
     19911       171  SOPE      H6R           -34.1521261339      -19.0017153883      -11.6528152752  MEMB      171             0.0000000000
     19912       171  SOPE      H6S           -35.7908254846      -19.2916702911      -12.0868621637  MEMB      171             0.0000000000
     19913       171  SOPE      C27           -34.9444346600      -20.6066038341      -10.5138514260  MEMB      171             0.0000000000
     19914       171  SOPE      H7R           -35.6320051477      -20.0152435019       -9.8720878659  MEMB      171             0.0000000000
     19915       171  SOPE      H7S           -35.3679288145      -21.6145924479      -10.7111642523  MEMB      171             0.0000000000
     19916       171  SOPE      C28           -33.6077566099      -20.7298426301       -9.6731718105  MEMB      171             0.0000000000
     19917       171  SOPE      H8R           -32.9084920463      -21.1183347755      -10.4441600899  MEMB      171             0.0000000000
     19918       171  SOPE      H8S           -33.3010912732      -19.6804460602       -9.4755751167  MEMB      171             0.0000000000
     19919       171  SOPE      C29           -33.7687130708      -21.5656633187       -8.4443047671  MEMB      171             0.0000000000
     19920       171  SOPE      H91           -33.5891551193      -22.6286862547       -8.6628031563  MEMB      171             0.0000000000
     19921       171  SOPE      C210          -34.0731165851      -21.2976030309       -7.2001339066  MEMB      171             0.0000000000
     19922       171  SOPE      H101          -34.2937454804      -22.0872631219       -6.4668127807  MEMB      171             0.0000000000
     19923       171  SOPE      C211          -34.3426699065      -19.9043108718       -6.6646564468  MEMB      171             0.0000000000
     19924       171  SOPE      H11R          -34.8803497551      -19.9910870748       -5.6963113856  MEMB      171             0.0000000000
     19925       171  SOPE      H11S          -35.0917029730      -19.4216053004       -7.3281815828  MEMB      171             0.0000000000
     19926       171  SOPE      C212          -33.1022954073      -19.1582731457       -6.3477580179  MEMB      171             0.0000000000
     19927       171  SOPE      H12R          -32.3613248084      -19.2305788914       -7.1724135722  MEMB      171             0.0000000000
     19928       171  SOPE      H12S          -32.6115733086      -19.5720049020       -5.4409293915  MEMB      171             0.0000000000
     19929       171  SOPE      C213          -33.4894354068      -17.6942781580       -6.1527218318  MEMB      171             0.0000000000
     19930       171  SOPE      H13R          -33.7474826968      -17.3745396918       -7.1849521163  MEMB      171             0.0000000000
     19931       171  SOPE      H13S          -32.6511070367      -17.0074845591       -5.9080972608  MEMB      171             0.0000000000
     19932       171  SOPE      C214          -34.7604846219      -17.3934131743       -5.2792950776  MEMB      171             0.0000000000
     19933       171  SOPE      H14R          -35.5727892706      -18.1077982132       -5.5325464679  MEMB      171             0.0000000000
     19934       171  SOPE      H14S          -35.1540962291      -16.3546443783       -5.2980172430  MEMB      171             0.0000000000
     19935       171  SOPE      C215          -34.3915063242      -17.6386605934       -3.8313081023  MEMB      171             0.0000000000
     19936       171  SOPE      H15R          -33.5094482880      -17.0863782991       -3.4423620500  MEMB      171             0.0000000000
     19937       171  SOPE      H15S          -34.1009216827      -18.7103056943       -3.7931215200  MEMB      171             0.0000000000
     19938       171  SOPE      C216          -35.5913721392      -17.4525025580       -2.8997288190  MEMB      171             0.0000000000
     19939       171  SOPE      H16R          -36.4853688633      -17.9223883624       -3.3626527579  MEMB      171             0.0000000000
     19940       171  SOPE      H16S          -35.7359163502      -16.3575198761       -2.7795573177  MEMB      171             0.0000000000
     19941       171  SOPE      C217          -35.4867530741      -18.0204497411       -1.4562725434  MEMB      171             0.0000000000
     19942       171  SOPE      H17R          -34.8644285770      -18.9327412161       -1.5777513328  MEMB      171             0.0000000000
     19943       171  SOPE      H17S          -36.5112605806      -18.3415396628       -1.1706028761  MEMB      171             0.0000000000
     19944       171  SOPE      C218          -34.9652235979      -16.8698761122       -0.5568902445  MEMB      171             0.0000000000
     19945       171  SOPE      H18R          -35.3891206274      -15.8694827941       -0.7889358902  MEMB      171             0.0000000000
     19946       171  SOPE      H18S          -33.8587719887      -16.7757681042       -0.5919516956  MEMB      171             0.0000000000
     19947       171  SOPE      H18T          -35.2997121947      -16.9855289919        0.4962311704  MEMB      171             0.0000000000
     19948       171  SOPE      C33           -27.3316256820      -20.4746835020      -14.3873878574  MEMB      171             0.0000000000
     19949       171  SOPE      H3X           -26.7100732414      -19.5976715314      -14.6681786406  MEMB      171             0.0000000000
     19950       171  SOPE      H3Y           -26.7760157065      -21.0681128435      -13.6301163382  MEMB      171             0.0000000000
     19951       171  SOPE      C34           -28.7021363905      -20.0928910217      -13.7672374831  MEMB      171             0.0000000000
     19952       171  SOPE      H4X           -29.0785963271      -21.0389764315      -13.3228038313  MEMB      171             0.0000000000
     19953       171  SOPE      H4Y           -29.2672598851      -19.6584661687      -14.6194296446  MEMB      171             0.0000000000
     19954       171  SOPE      C35           -28.6581934507      -18.9706359949      -12.6442568258  MEMB      171             0.0000000000
     19955       171  SOPE      H5X           -28.0607647384      -18.0760091966      -12.9218227801  MEMB      171             0.0000000000
     19956       171  SOPE      H5Y           -28.2071692275      -19.3821794688      -11.7160703158  MEMB      171             0.0000000000
     19957       171  SOPE      C36           -30.1235864261      -18.5960303281      -12.2131941695  MEMB      171             0.0000000000
     19958       171  SOPE      H6X           -30.7020743580      -19.5302963133      -12.0494260982  MEMB      171             0.0000000000
     19959       171  SOPE      H6Y           -30.6064579753      -18.1585188019      -13.1130494526  MEMB      171             0.0000000000
     19960       171  SOPE      C37           -30.2503947422      -17.6463371703      -11.0582247420  MEMB      171             0.0000000000
     19961       171  SOPE      H7X           -29.8325193610      -16.6299465255      -11.2214759735  MEMB      171             0.0000000000
     19962       171  SOPE      H7Y           -29.8310093248      -18.1066351164      -10.1381364164  MEMB      171             0.0000000000
     19963       171  SOPE      C38           -31.7335134613      -17.4897205822      -10.5805659525  MEMB      171             0.0000000000
     19964       171  SOPE      H8X           -32.2804790331      -18.4541864351      -10.5101714458  MEMB      171             0.0000000000
     19965       171  SOPE      H8Y           -32.2170318319      -16.8855787884      -11.3777763367  MEMB      171             0.0000000000
     19966       171  SOPE      C39           -31.8087383455      -16.7967518012       -9.2532771412  MEMB      171             0.0000000000
     19967       171  SOPE      H9X           -31.2386460731      -17.3659491102       -8.4882085163  MEMB      171             0.0000000000
     19968       171  SOPE      H9Y           -32.8547663393      -16.9340519006       -8.9050025132  MEMB      171             0.0000000000
     19969       171  SOPE      C310          -31.4104512994      -15.2639570372       -9.1333713542  MEMB      171             0.0000000000
     19970       171  SOPE      H10X          -32.2439338665      -14.6665506571       -9.5608441221  MEMB      171             0.0000000000
     19971       171  SOPE      H10Y          -30.4708870132      -14.9299352535       -9.6232384518  MEMB      171             0.0000000000
     19972       171  SOPE      C311          -31.2774442480      -14.8382813274       -7.6555951685  MEMB      171             0.0000000000
     19973       171  SOPE      H11X          -32.1917122430      -15.2693881746       -7.1945281027  MEMB      171             0.0000000000
     19974       171  SOPE      H11Y          -31.3830372017      -13.7342509077       -7.7210725000  MEMB      171             0.0000000000
     19975       171  SOPE      C312          -29.9994146084      -15.3044233393       -6.9672724688  MEMB      171             0.0000000000
     19976       171  SOPE      H12X          -29.1708372853      -14.7414008781       -7.4476747615  MEMB      171             0.0000000000
     19977       171  SOPE      H12Y          -29.8388883475      -16.4014712266       -7.0382502203  MEMB      171             0.0000000000
     19978       171  SOPE      C313          -30.0512468709      -14.8875578255       -5.4139992553  MEMB      171             0.0000000000
     19979       171  SOPE      H13X          -31.0861739136      -14.5039561738       -5.2871268993  MEMB      171             0.0000000000
     19980       171  SOPE      H13Y          -29.2825916014      -14.1547449844       -5.0876940603  MEMB      171             0.0000000000
     19981       171  SOPE      C314          -29.6480274001      -16.1496626131       -4.5158094499  MEMB      171             0.0000000000
     19982       171  SOPE      H14X          -28.5572711927      -16.3520520217       -4.5758956450  MEMB      171             0.0000000000
     19983       171  SOPE      H14Y          -30.0794408334      -17.0481830782       -5.0065882094  MEMB      171             0.0000000000
     19984       171  SOPE      C315          -30.2123950723      -16.0263042581       -3.0855124023  MEMB      171             0.0000000000
     19985       171  SOPE      H15X          -31.3000512798      -16.0739762674       -3.3069904259  MEMB      171             0.0000000000
     19986       171  SOPE      H15Y          -30.1137600881      -15.0199290635       -2.6252942038  MEMB      171             0.0000000000
     19987       171  SOPE      C316          -29.7783329218      -16.9327128783       -1.9088536456  MEMB      171             0.0000000000
     19988       171  SOPE      H16X          -28.9091533497      -16.4998265058       -1.3689864214  MEMB      171             0.0000000000
     19989       171  SOPE      H16Y          -29.6119988405      -17.9757435217       -2.2534429230  MEMB      171             0.0000000000
     19990       171  SOPE      C317          -31.0568431684      -16.9001135132       -0.9457975445  MEMB      171             0.0000000000
     19991       171  SOPE      H17X          -31.8535105342      -17.4254993834       -1.5146659528  MEMB      171             0.0000000000
     19992       171  SOPE      H17Y          -31.4440868420      -15.8921978250       -0.6841290810  MEMB      171             0.0000000000
     19993       171  SOPE      C318          -30.8974570864      -17.6209050859        0.3978322169  MEMB      171             0.0000000000
     19994       171  SOPE      H18X          -31.8552568860      -18.0755591940        0.7298397373  MEMB      171             0.0000000000
     19995       171  SOPE      H18Y          -30.3764639356      -16.9620544608        1.1250199312  MEMB      171             0.0000000000
     19996       171  SOPE      H18Z          -30.3046937923      -18.5476814905        0.2427885346  MEMB      171             0.0000000000
     19997       172  SAPE      N             -10.8172973279       32.7075455396      -21.4057463337  MEMB      172             0.0000000000
     19998       172  SAPE      HN1           -10.6233755349       32.1154392962      -22.2384555233  MEMB      172             0.0000000000
     19999       172  SAPE      HN2           -10.9504190584       32.1430326932      -20.5424944950  MEMB      172             0.0000000000
     20000       172  SAPE      HN3           -11.7419113813       33.1835459667      -21.4163513901  MEMB      172             0.0000000000
     20001       172  SAPE      C12            -9.6972160439       33.7477870382      -21.2269767652  MEMB      172             0.0000000000
     20002       172  SAPE      H12A           -9.4349165525       34.1667343359      -22.2219659166  MEMB      172             0.0000000000
     20003       172  SAPE      H12B           -8.7793821786       33.3329012373      -20.7581784980  MEMB      172             0.0000000000
     20004       172  SAPE      C11           -10.1807714196       34.8356137758      -20.2334360743  MEMB      172             0.0000000000
     20005       172  SAPE      H11A           -9.4659143057       35.6856776682      -20.2597356137  MEMB      172             0.0000000000
     20006       172  SAPE      H11B          -10.1110476359       34.3893078930      -19.2184135832  MEMB      172             0.0000000000
     20007       172  SAPE      P             -12.2468765916       36.1370159392      -19.4380401873  MEMB      172             0.0000000000
     20008       172  SAPE      O13           -11.3991857762       37.2878597667      -18.9469976131  MEMB      172             0.0000000000
     20009       172  SAPE      O14           -13.5247099064       36.4322894224      -20.0645138275  MEMB      172             0.0000000000
     20010       172  SAPE      O12           -11.4728110051       35.3032927656      -20.5165174981  MEMB      172             0.0000000000
     20011       172  SAPE      O11           -12.3657694899       35.1014717785      -18.1677716845  MEMB      172             0.0000000000
     20012       172  SAPE      C1            -13.2091801347       33.9571860312      -18.4074524685  MEMB      172             0.0000000000
     20013       172  SAPE      HA            -14.2381084653       34.3744635976      -18.4462729249  MEMB      172             0.0000000000
     20014       172  SAPE      HB            -12.9652860553       33.3618818733      -19.3132392120  MEMB      172             0.0000000000
     20015       172  SAPE      C2            -12.9728154688       32.9414973448      -17.2091599646  MEMB      172             0.0000000000
     20016       172  SAPE      HS            -13.8982408394       32.3283449903      -17.1649671118  MEMB      172             0.0000000000
     20017       172  SAPE      O21           -12.8343301580       33.5694624790      -15.9437008893  MEMB      172             0.0000000000
     20018       172  SAPE      C21           -13.6752393942       34.3708008536      -15.4776939359  MEMB      172             0.0000000000
     20019       172  SAPE      O22           -14.8558053579       34.5213470967      -15.7924811284  MEMB      172             0.0000000000
     20020       172  SAPE      C22           -13.0641270199       35.2345486281      -14.3868355361  MEMB      172             0.0000000000
     20021       172  SAPE      H2R           -12.5115815937       34.5624637694      -13.6959543021  MEMB      172             0.0000000000
     20022       172  SAPE      H2S           -12.3289002900       35.9500910281      -14.8131705898  MEMB      172             0.0000000000
     20023       172  SAPE      C3            -11.7982728802       31.9422274510      -17.3052482708  MEMB      172             0.0000000000
     20024       172  SAPE      HX            -11.8282687205       31.5393604883      -18.3401972753  MEMB      172             0.0000000000
     20025       172  SAPE      HY            -11.8328567347       31.1158796237      -16.5634434921  MEMB      172             0.0000000000
     20026       172  SAPE      O31           -10.5819428231       32.7209287822      -17.2680712520  MEMB      172             0.0000000000
     20027       172  SAPE      C31            -9.8571589087       32.7186186237      -16.1629408438  MEMB      172             0.0000000000
     20028       172  SAPE      O32           -10.1059427900       32.1719376876      -15.1172715869  MEMB      172             0.0000000000
     20029       172  SAPE      C32            -8.6073709441       33.5196971171      -16.3559411765  MEMB      172             0.0000000000
     20030       172  SAPE      H2X            -8.6870709104       33.9823738994      -17.3628668143  MEMB      172             0.0000000000
     20031       172  SAPE      H2Y            -7.7846783962       32.7761860067      -16.2874655998  MEMB      172             0.0000000000
     20032       172  SAPE      C23           -14.0679902637       36.1951166102      -13.6688852067  MEMB      172             0.0000000000
     20033       172  SAPE      H3R           -14.6480812957       36.6623430099      -14.4932121413  MEMB      172             0.0000000000
     20034       172  SAPE      H3S           -13.4990575887       36.9711297456      -13.1135114549  MEMB      172             0.0000000000
     20035       172  SAPE      C24           -14.9169198855       35.5464774969      -12.5954465313  MEMB      172             0.0000000000
     20036       172  SAPE      H4R           -14.2765387803       34.9268417028      -11.9319073006  MEMB      172             0.0000000000
     20037       172  SAPE      H4S           -15.5751550940       34.8213232560      -13.1200399229  MEMB      172             0.0000000000
     20038       172  SAPE      C25           -15.8490733007       36.5541580648      -11.8854926515  MEMB      172             0.0000000000
     20039       172  SAPE      H5R           -16.9031389891       36.4791195005      -12.1909661222  MEMB      172             0.0000000000
     20040       172  SAPE      C26           -15.5321781779       37.4838062297      -10.9760316380  MEMB      172             0.0000000000
     20041       172  SAPE      H6R           -16.3405642662       38.1025859090      -10.5593497859  MEMB      172             0.0000000000
     20042       172  SAPE      C27           -14.1733058526       37.6757827418      -10.4359826282  MEMB      172             0.0000000000
     20043       172  SAPE      H7R           -13.5192070069       38.2075642440      -11.1596435442  MEMB      172             0.0000000000
     20044       172  SAPE      H7S           -13.7141615473       36.6873401504      -10.2203712196  MEMB      172             0.0000000000
     20045       172  SAPE      C28           -14.2266094151       38.6175868152       -9.2649349754  MEMB      172             0.0000000000
     20046       172  SAPE      H8R           -14.9987739883       39.3767446409       -9.4584315986  MEMB      172             0.0000000000
     20047       172  SAPE      C29           -13.6091782071       38.6436476808       -8.1071993447  MEMB      172             0.0000000000
     20048       172  SAPE      H9R           -13.9031019760       39.4849269419       -7.4623285256  MEMB      172             0.0000000000
     20049       172  SAPE      C210          -12.5776122668       37.6804748624       -7.4844761316  MEMB      172             0.0000000000
     20050       172  SAPE      H10R          -12.5338032117       37.8251171841       -6.3838033928  MEMB      172             0.0000000000
     20051       172  SAPE      H10S          -11.5756954677       37.9803058736       -7.8594225670  MEMB      172             0.0000000000
     20052       172  SAPE      C211          -12.7736181286       36.2222441258       -7.8472790060  MEMB      172             0.0000000000
     20053       172  SAPE      H11R          -12.2332839108       35.9728869605       -8.7724058098  MEMB      172             0.0000000000
     20054       172  SAPE      C212          -13.5282091079       35.2793502053       -7.2076735564  MEMB      172             0.0000000000
     20055       172  SAPE      H12R          -13.3452667539       34.2062894778       -7.3660183266  MEMB      172             0.0000000000
     20056       172  SAPE      C213          -14.3327357933       35.6482142289       -5.9779418422  MEMB      172             0.0000000000
     20057       172  SAPE      H13R          -14.7652939011       36.6595008858       -6.1345098439  MEMB      172             0.0000000000
     20058       172  SAPE      H13S          -13.5410965367       35.7295848412       -5.2026949175  MEMB      172             0.0000000000
     20059       172  SAPE      C214          -15.4473231020       34.7063545468       -5.7127836317  MEMB      172             0.0000000000
     20060       172  SAPE      H14R          -16.3704148141       35.2874683921       -5.5706254967  MEMB      172             0.0000000000
     20061       172  SAPE      C215          -15.5242430714       33.3249994971       -5.5877775444  MEMB      172             0.0000000000
     20062       172  SAPE      H15R          -16.5362269772       32.8938553827       -5.5895714584  MEMB      172             0.0000000000
     20063       172  SAPE      C216          -14.4307669788       32.2512321707       -5.7227170352  MEMB      172             0.0000000000
     20064       172  SAPE      H16R          -13.9818844603       32.2089387681       -6.7381162175  MEMB      172             0.0000000000
     20065       172  SAPE      H16S          -14.9032173898       31.2673779077       -5.5150090484  MEMB      172             0.0000000000
     20066       172  SAPE      C217          -13.2096571808       32.4266920872       -4.7545758796  MEMB      172             0.0000000000
     20067       172  SAPE      H17R          -12.6582239817       33.3613410051       -4.9926394004  MEMB      172             0.0000000000
     20068       172  SAPE      H17S          -12.5275708581       31.5741292083       -4.9600415314  MEMB      172             0.0000000000
     20069       172  SAPE      C218          -13.6210869945       32.4116728507       -3.3382119662  MEMB      172             0.0000000000
     20070       172  SAPE      H18R          -14.2855381703       31.5268151454       -3.2389513712  MEMB      172             0.0000000000
     20071       172  SAPE      H18S          -14.2345693727       33.3301884270       -3.2186749310  MEMB      172             0.0000000000
     20072       172  SAPE      C219          -12.5353106514       32.4008680694       -2.2986596485  MEMB      172             0.0000000000
     20073       172  SAPE      H19R          -13.1320610651       32.3892015493       -1.3616033501  MEMB      172             0.0000000000
     20074       172  SAPE      H19S          -11.7282063750       33.1642950238       -2.2895495719  MEMB      172             0.0000000000
     20075       172  SAPE      C220          -11.7621342879       31.0953164015       -2.2274360876  MEMB      172             0.0000000000
     20076       172  SAPE      H20R          -10.9602943069       31.0651500988       -2.9958517280  MEMB      172             0.0000000000
     20077       172  SAPE      H20S          -12.4878910540       30.2814898111       -2.4402368408  MEMB      172             0.0000000000
     20078       172  SAPE      H20T          -11.3682075069       30.8657373738       -1.2143035440  MEMB      172             0.0000000000
     20079       172  SAPE      C33            -8.4490895468       34.5436403528      -15.1924103093  MEMB      172             0.0000000000
     20080       172  SAPE      H3X            -9.3935162785       35.0042714214      -14.8315798902  MEMB      172             0.0000000000
     20081       172  SAPE      H3Y            -7.8122586525       35.3249402406      -15.6596764253  MEMB      172             0.0000000000
     20082       172  SAPE      C34            -7.6264715164       34.0008732718      -13.9870142559  MEMB      172             0.0000000000
     20083       172  SAPE      H4X            -6.5270958806       33.9143480208      -14.1219493782  MEMB      172             0.0000000000
     20084       172  SAPE      H4Y            -8.1039552391       33.0640076220      -13.6283881162  MEMB      172             0.0000000000
     20085       172  SAPE      C35            -7.6347895574       34.9270992020      -12.8446819264  MEMB      172             0.0000000000
     20086       172  SAPE      H5X            -8.5623530276       35.5378405384      -12.8139896448  MEMB      172             0.0000000000
     20087       172  SAPE      H5Y            -6.8222646525       35.6747592302      -12.9676798607  MEMB      172             0.0000000000
     20088       172  SAPE      C36            -7.5017746541       34.1585085272      -11.5048070597  MEMB      172             0.0000000000
     20089       172  SAPE      H6X            -6.4413442586       33.8325162286      -11.4453303165  MEMB      172             0.0000000000
     20090       172  SAPE      H6Y            -8.1197895381       33.2430589509      -11.6245179191  MEMB      172             0.0000000000
     20091       172  SAPE      C37            -7.7949965524       34.8183249199      -10.1790449712  MEMB      172             0.0000000000
     20092       172  SAPE      H7X            -8.6127246523       35.5645376303      -10.2728988456  MEMB      172             0.0000000000
     20093       172  SAPE      H7Y            -6.9170911022       35.3750548830       -9.7870571670  MEMB      172             0.0000000000
     20094       172  SAPE      C38            -8.2556391819       33.7481309125       -9.1093242517  MEMB      172             0.0000000000
     20095       172  SAPE      H8X            -7.5928755428       32.8682504184       -9.2538092681  MEMB      172             0.0000000000
     20096       172  SAPE      H8Y            -9.2884107162       33.3634783655       -9.2498461882  MEMB      172             0.0000000000
     20097       172  SAPE      C39            -8.1458338547       34.4644513346       -7.7874060221  MEMB      172             0.0000000000
     20098       172  SAPE      H9X            -8.8851460247       35.2909038800       -7.8560709124  MEMB      172             0.0000000000
     20099       172  SAPE      H9Y            -7.1426807579       34.9080556412       -7.6107144802  MEMB      172             0.0000000000
     20100       172  SAPE      C310           -8.7813351836       33.6241930863       -6.6712524237  MEMB      172             0.0000000000
     20101       172  SAPE      H10X           -8.1388457440       32.8913457396       -6.1379020023  MEMB      172             0.0000000000
     20102       172  SAPE      H10Y           -9.6064484933       32.9881932836       -7.0572747009  MEMB      172             0.0000000000
     20103       172  SAPE      C311           -9.3827531790       34.4420769161       -5.4238395914  MEMB      172             0.0000000000
     20104       172  SAPE      H11X           -9.9024702034       33.6257650334       -4.8780829106  MEMB      172             0.0000000000
     20105       172  SAPE      H11Y          -10.2259439498       35.0614197782       -5.7976906806  MEMB      172             0.0000000000
     20106       172  SAPE      C312           -8.4799494720       35.1922382451       -4.4431025407  MEMB      172             0.0000000000
     20107       172  SAPE      H12X           -7.9450814007       36.0264359052       -4.9454484605  MEMB      172             0.0000000000
     20108       172  SAPE      H12Y           -7.7207087082       34.5537191435       -3.9429352136  MEMB      172             0.0000000000
     20109       172  SAPE      C313           -9.4044613696       35.8487368345       -3.3381109291  MEMB      172             0.0000000000
     20110       172  SAPE      H13X           -8.7302601606       36.3124302019       -2.5866046805  MEMB      172             0.0000000000
     20111       172  SAPE      H13Y           -9.9185707104       35.0116953628       -2.8190972166  MEMB      172             0.0000000000
     20112       172  SAPE      C314          -10.4348910061       36.8566075967       -3.8413285449  MEMB      172             0.0000000000
     20113       172  SAPE      H14X          -11.1617379221       36.4163475831       -4.5570004511  MEMB      172             0.0000000000
     20114       172  SAPE      H14Y           -9.9034611878       37.6221854448       -4.4461372450  MEMB      172             0.0000000000
     20115       172  SAPE      C315          -11.1326775223       37.5499420895       -2.6808875736  MEMB      172             0.0000000000
     20116       172  SAPE      H15X          -11.7604795306       38.3991819712       -3.0258178197  MEMB      172             0.0000000000
     20117       172  SAPE      H15Y          -10.4128906239       37.9902708758       -1.9581573758  MEMB      172             0.0000000000
     20118       172  SAPE      C316          -11.9872803868       36.6652245268       -1.7732397910  MEMB      172             0.0000000000
     20119       172  SAPE      H16X          -11.2758196647       35.9054434825       -1.3848100969  MEMB      172             0.0000000000
     20120       172  SAPE      H16Y          -12.7296184554       36.0855115509       -2.3624660710  MEMB      172             0.0000000000
     20121       172  SAPE      C317          -12.7600294634       37.2826225345       -0.6145118359  MEMB      172             0.0000000000
     20122       172  SAPE      H17X          -13.4780499326       38.0089840932       -1.0517360860  MEMB      172             0.0000000000
     20123       172  SAPE      H17Y          -12.0026614435       37.6633487922        0.1036543288  MEMB      172             0.0000000000
     20124       172  SAPE      C318          -13.4924291442       36.2825655337        0.2421079266  MEMB      172             0.0000000000
     20125       172  SAPE      H18X          -13.9803868739       36.7439921771        1.1271524905  MEMB      172             0.0000000000
     20126       172  SAPE      H18Y          -12.8281747983       35.4545478450        0.5699399425  MEMB      172             0.0000000000
     20127       172  SAPE      H18Z          -14.2869381852       35.8593758778       -0.4090347379  MEMB      172             0.0000000000
     20128       173  SAPS      N               8.5555594525      -36.8485276192      -22.2115384893  MEMB      173             0.0000000000
     20129       173  SAPS      HN1             7.5595486872      -37.0505201358      -21.9907181564  MEMB      173             0.0000000000
     20130       173  SAPS      HN2             8.6064841536      -36.4365498310      -23.1651007002  MEMB      173             0.0000000000
     20131       173  SAPS      HN3             9.2447598575      -37.5943105936      -21.9870153843  MEMB      173             0.0000000000
     20132       173  SAPS      C12             8.8396464537      -35.6650684780      -21.3308904902  MEMB      173             0.0000000000
     20133       173  SAPS      H12A            9.8814525342      -35.3807445312      -21.3450322855  MEMB      173             0.0000000000
     20134       173  SAPS      C13             8.0781609800      -34.3897858983      -21.6704749288  MEMB      173             0.0000000000
     20135       173  SAPS      O13A            7.1549755309      -34.4649116286      -22.4966503337  MEMB      173             0.0000000000
     20136       173  SAPS      O13B            8.3468114500      -33.3466396190      -21.0252384591  MEMB      173             0.0000000000
     20137       173  SAPS      C11             8.5193770381      -36.0619164696      -19.8288308895  MEMB      173             0.0000000000
     20138       173  SAPS      H11A            7.4150606392      -36.1233398246      -19.7237902906  MEMB      173             0.0000000000
     20139       173  SAPS      H11B            8.9583570504      -35.1783203399      -19.3180712789  MEMB      173             0.0000000000
     20140       173  SAPS      P              10.1669987703      -37.2867979889      -18.1920714628  MEMB      173             0.0000000000
     20141       173  SAPS      O13             9.4241706457      -36.9854327670      -16.9724449112  MEMB      173             0.0000000000
     20142       173  SAPS      O14            10.8887159673      -38.5701695525      -18.2583800919  MEMB      173             0.0000000000
     20143       173  SAPS      O12             9.0690215952      -37.2833552180      -19.3851570825  MEMB      173             0.0000000000
     20144       173  SAPS      O11            11.0345177827      -36.0000558651      -18.6283228149  MEMB      173             0.0000000000
     20145       173  SAPS      C1             12.4746948473      -36.1815837684      -18.8299546518  MEMB      173             0.0000000000
     20146       173  SAPS      HA             12.7957878996      -37.2446424659      -18.7963941569  MEMB      173             0.0000000000
     20147       173  SAPS      HB             12.7889674919      -35.7239458116      -19.7923065769  MEMB      173             0.0000000000
     20148       173  SAPS      C2             13.1909809724      -35.4019725232      -17.6806295494  MEMB      173             0.0000000000
     20149       173  SAPS      HS             14.2552824331      -35.4569843625      -17.9945676433  MEMB      173             0.0000000000
     20150       173  SAPS      O21            12.9053089512      -35.9396030870      -16.3518451457  MEMB      173             0.0000000000
     20151       173  SAPS      C21            13.7643149833      -35.7200744445      -15.4265817124  MEMB      173             0.0000000000
     20152       173  SAPS      O22            14.7602609784      -34.9896874304      -15.4874764340  MEMB      173             0.0000000000
     20153       173  SAPS      C22            13.3973551853      -36.5287496247      -14.1440324432  MEMB      173             0.0000000000
     20154       173  SAPS      H2R            12.5199291122      -36.1386946157      -13.5851930654  MEMB      173             0.0000000000
     20155       173  SAPS      H2S            13.1294307700      -37.5684714799      -14.4295426491  MEMB      173             0.0000000000
     20156       173  SAPS      C3             12.8549136312      -33.9058522617      -17.7207620286  MEMB      173             0.0000000000
     20157       173  SAPS      HX             13.0206295355      -33.5698103226      -18.7666756093  MEMB      173             0.0000000000
     20158       173  SAPS      HY             13.7033586810      -33.3621655634      -17.2529300623  MEMB      173             0.0000000000
     20159       173  SAPS      O31            11.5212838053      -33.5845640538      -17.2394169672  MEMB      173             0.0000000000
     20160       173  SAPS      C31            11.3563490703      -32.8228933945      -16.0963794961  MEMB      173             0.0000000000
     20161       173  SAPS      O32            12.2720140382      -32.3395896688      -15.4663318893  MEMB      173             0.0000000000
     20162       173  SAPS      C32             9.8225914921      -32.8269737237      -15.6878714599  MEMB      173             0.0000000000
     20163       173  SAPS      H2X             9.1559007253      -32.5782665541      -16.5410941023  MEMB      173             0.0000000000
     20164       173  SAPS      H2Y             9.6611062748      -32.1206823820      -14.8456148353  MEMB      173             0.0000000000
     20165       173  SAPS      C23            14.5994303587      -36.6846270979      -13.1236772113  MEMB      173             0.0000000000
     20166       173  SAPS      H3R            14.9180458283      -35.6990093605      -12.7219774796  MEMB      173             0.0000000000
     20167       173  SAPS      H3S            15.5262446453      -37.1228482238      -13.5518104721  MEMB      173             0.0000000000
     20168       173  SAPS      C24            14.1696633028      -37.4531280474      -11.9128022496  MEMB      173             0.0000000000
     20169       173  SAPS      H4R            15.0378999263      -37.8300384379      -11.3310587168  MEMB      173             0.0000000000
     20170       173  SAPS      H4S            13.6124294101      -38.2704593428      -12.4185501624  MEMB      173             0.0000000000
     20171       173  SAPS      C25            13.3146294033      -36.5702191079      -11.0236851519  MEMB      173             0.0000000000
     20172       173  SAPS      H5R            12.2730965245      -36.3677413560      -11.3138781350  MEMB      173             0.0000000000
     20173       173  SAPS      C26            13.7897536163      -35.9415147528       -9.8902365133  MEMB      173             0.0000000000
     20174       173  SAPS      H6R            13.0338278111      -35.4932446435       -9.2287003379  MEMB      173             0.0000000000
     20175       173  SAPS      C27            15.1895925194      -35.9502910867       -9.3625238095  MEMB      173             0.0000000000
     20176       173  SAPS      H7R            15.8531305236      -35.4776882282      -10.1179606592  MEMB      173             0.0000000000
     20177       173  SAPS      H7S            15.4483824880      -37.0273467305       -9.4479631440  MEMB      173             0.0000000000
     20178       173  SAPS      C28            15.3631782490      -35.4316588262       -7.9636869842  MEMB      173             0.0000000000
     20179       173  SAPS      H8R            15.4830918282      -36.1866428707       -7.1727248851  MEMB      173             0.0000000000
     20180       173  SAPS      C29            15.6188073682      -34.1385912880       -7.6416219245  MEMB      173             0.0000000000
     20181       173  SAPS      H9R            15.7836888279      -33.9166024567       -6.5769453031  MEMB      173             0.0000000000
     20182       173  SAPS      C210           15.7564089382      -32.9899140742       -8.6603280620  MEMB      173             0.0000000000
     20183       173  SAPS      H10R           15.1674370122      -33.1797069335       -9.5830473589  MEMB      173             0.0000000000
     20184       173  SAPS      H10S           16.7945555052      -32.6813045903       -8.9079819292  MEMB      173             0.0000000000
     20185       173  SAPS      C211           15.1552844882      -31.6277126866       -8.1579361967  MEMB      173             0.0000000000
     20186       173  SAPS      H11R           15.9180631857      -30.9142139119       -7.8128447228  MEMB      173             0.0000000000
     20187       173  SAPS      C212           13.8396997118      -31.2858228050       -8.1478485644  MEMB      173             0.0000000000
     20188       173  SAPS      H12R           13.6628869889      -30.2706823038       -7.7628464448  MEMB      173             0.0000000000
     20189       173  SAPS      C213           12.7489401519      -32.1948074038       -8.6132416361  MEMB      173             0.0000000000
     20190       173  SAPS      H13R           12.9699284167      -33.2358014328       -8.2941544104  MEMB      173             0.0000000000
     20191       173  SAPS      H13S           12.7287872600      -32.0816664356       -9.7182817583  MEMB      173             0.0000000000
     20192       173  SAPS      C214           11.4404342457      -31.7676544829       -8.0112059252  MEMB      173             0.0000000000
     20193       173  SAPS      H14R           10.9585879733      -30.9441709858       -8.5586529191  MEMB      173             0.0000000000
     20194       173  SAPS      C215           10.8112645627      -32.2993359880       -6.9364860977  MEMB      173             0.0000000000
     20195       173  SAPS      H15R            9.8166470779      -31.8785443593       -6.7275104346  MEMB      173             0.0000000000
     20196       173  SAPS      C216           11.2010269318      -33.4136712777       -6.0194076381  MEMB      173             0.0000000000
     20197       173  SAPS      H16R           11.4463932963      -34.2680347362       -6.6858753969  MEMB      173             0.0000000000
     20198       173  SAPS      H16S           10.3895846478      -33.7226252445       -5.3262771578  MEMB      173             0.0000000000
     20199       173  SAPS      C217           12.4133759309      -33.1568759703       -5.0797130950  MEMB      173             0.0000000000
     20200       173  SAPS      H17R           12.0836214214      -32.2411667053       -4.5439335770  MEMB      173             0.0000000000
     20201       173  SAPS      H17S           13.3205973814      -32.9709514820       -5.6934739581  MEMB      173             0.0000000000
     20202       173  SAPS      C218           12.5989277116      -34.2912199156       -4.0233834004  MEMB      173             0.0000000000
     20203       173  SAPS      H18R           12.5348976048      -35.2230613054       -4.6249592498  MEMB      173             0.0000000000
     20204       173  SAPS      H18S           11.7754153144      -34.3165992420       -3.2780623161  MEMB      173             0.0000000000
     20205       173  SAPS      C219           13.9527830173      -34.3349294027       -3.2737753145  MEMB      173             0.0000000000
     20206       173  SAPS      H19R           14.0044593914      -33.2973555620       -2.8799596614  MEMB      173             0.0000000000
     20207       173  SAPS      H19S           14.7197476758      -34.5016571823       -4.0600881354  MEMB      173             0.0000000000
     20208       173  SAPS      C220           14.1440747904      -35.3736291261       -2.1779365639  MEMB      173             0.0000000000
     20209       173  SAPS      H20R           14.2159000820      -36.3553795051       -2.6930371199  MEMB      173             0.0000000000
     20210       173  SAPS      H20S           13.2709910572      -35.3523621621       -1.4912097156  MEMB      173             0.0000000000
     20211       173  SAPS      H20T           15.0726852724      -35.3303017430       -1.5695549745  MEMB      173             0.0000000000
     20212       173  SAPS      C33             9.4909742495      -34.1409428394      -14.9852172607  MEMB      173             0.0000000000
     20213       173  SAPS      H3X             9.9369249910      -35.0254356146      -15.4883290519  MEMB      173             0.0000000000
     20214       173  SAPS      H3Y             8.4078604755      -34.3776474989      -14.9134090249  MEMB      173             0.0000000000
     20215       173  SAPS      C34             9.9747104625      -34.2763981257      -13.5280771615  MEMB      173             0.0000000000
     20216       173  SAPS      H4X            11.0790209815      -34.1550456687      -13.5377130789  MEMB      173             0.0000000000
     20217       173  SAPS      H4Y             9.7495819965      -35.3351229756      -13.2775979096  MEMB      173             0.0000000000
     20218       173  SAPS      C35             9.3542380648      -33.3188882669      -12.4467690556  MEMB      173             0.0000000000
     20219       173  SAPS      H5X             8.2470782842      -33.4107425262      -12.4377532147  MEMB      173             0.0000000000
     20220       173  SAPS      H5Y             9.5064214716      -32.2490769276      -12.7049641797  MEMB      173             0.0000000000
     20221       173  SAPS      C36             9.6562658022      -33.5593750499      -10.9904989445  MEMB      173             0.0000000000
     20222       173  SAPS      H6X             9.4622005391      -32.6279596361      -10.4168055628  MEMB      173             0.0000000000
     20223       173  SAPS      H6Y            10.7531559909      -33.7099949353      -10.8984896169  MEMB      173             0.0000000000
     20224       173  SAPS      C37             9.0508190990      -34.8604207991      -10.4506332950  MEMB      173             0.0000000000
     20225       173  SAPS      H7X             9.5747985693      -35.8031684070      -10.7170795408  MEMB      173             0.0000000000
     20226       173  SAPS      H7Y             7.9870291282      -34.8591883148      -10.7710540626  MEMB      173             0.0000000000
     20227       173  SAPS      C38             9.0037035324      -34.8091100595       -8.8707943568  MEMB      173             0.0000000000
     20228       173  SAPS      H8X             8.7558325927      -33.7947943030       -8.4912622404  MEMB      173             0.0000000000
     20229       173  SAPS      H8Y            10.0646423608      -34.9757504491       -8.5862582109  MEMB      173             0.0000000000
     20230       173  SAPS      C39             8.0536202823      -35.9568492453       -8.3126603326  MEMB      173             0.0000000000
     20231       173  SAPS      H9X             6.9630376443      -35.8971800417       -8.5161042679  MEMB      173             0.0000000000
     20232       173  SAPS      H9Y             8.0747143766      -35.9620741313       -7.2018731284  MEMB      173             0.0000000000
     20233       173  SAPS      C310            8.5235746846      -37.3256625138       -8.7458862076  MEMB      173             0.0000000000
     20234       173  SAPS      H10X            8.3496958548      -37.3396369443       -9.8431058851  MEMB      173             0.0000000000
     20235       173  SAPS      H10Y            7.8335891855      -38.0741036950       -8.3008274447  MEMB      173             0.0000000000
     20236       173  SAPS      C311           10.0292226210      -37.7106382180       -8.3887661821  MEMB      173             0.0000000000
     20237       173  SAPS      H11X           10.2897903996      -37.0027036450       -7.5731350890  MEMB      173             0.0000000000
     20238       173  SAPS      H11Y           10.7053109846      -37.5541119056       -9.2563630209  MEMB      173             0.0000000000
     20239       173  SAPS      C312           10.2199314434      -39.1265879365       -7.9700863083  MEMB      173             0.0000000000
     20240       173  SAPS      H12X            9.6713348262      -39.7288733688       -8.7254768471  MEMB      173             0.0000000000
     20241       173  SAPS      H12Y            9.8466346634      -39.3075209325       -6.9394387370  MEMB      173             0.0000000000
     20242       173  SAPS      C313           11.7118272904      -39.4642696707       -7.8922120028  MEMB      173             0.0000000000
     20243       173  SAPS      H13X           12.2088333211      -39.6571493661       -8.8669444793  MEMB      173             0.0000000000
     20244       173  SAPS      H13Y           11.6874227999      -40.4682943580       -7.4171743449  MEMB      173             0.0000000000
     20245       173  SAPS      C314           12.5924560604      -38.4947732753       -7.1139043443  MEMB      173             0.0000000000
     20246       173  SAPS      H14X           12.8172891482      -37.4973611325       -7.5485767978  MEMB      173             0.0000000000
     20247       173  SAPS      H14Y           13.6444878618      -38.8499002384       -7.0760276941  MEMB      173             0.0000000000
     20248       173  SAPS      C315           12.1974537939      -38.3654505108       -5.6532393549  MEMB      173             0.0000000000
     20249       173  SAPS      H15X           11.2162917379      -37.8509725323       -5.5698441650  MEMB      173             0.0000000000
     20250       173  SAPS      H15Y           12.8768161954      -37.5866711820       -5.2454524410  MEMB      173             0.0000000000
     20251       173  SAPS      C316           12.1140721130      -39.5768733346       -4.7699599188  MEMB      173             0.0000000000
     20252       173  SAPS      H16X           13.1200067592      -40.0468292285       -4.8094316859  MEMB      173             0.0000000000
     20253       173  SAPS      H16Y           11.5053792375      -40.3281905261       -5.3170759261  MEMB      173             0.0000000000
     20254       173  SAPS      C317           11.4960056457      -39.4333620250       -3.3742763331  MEMB      173             0.0000000000
     20255       173  SAPS      H17X           11.5638593124      -40.4193048755       -2.8666994174  MEMB      173             0.0000000000
     20256       173  SAPS      H17Y           10.4539229342      -39.0534357472       -3.4378386919  MEMB      173             0.0000000000
     20257       173  SAPS      C318           12.1484781898      -38.3531315840       -2.4928552708  MEMB      173             0.0000000000
     20258       173  SAPS      H18X           11.7717847311      -37.3167374283       -2.6281700614  MEMB      173             0.0000000000
     20259       173  SAPS      H18Y           13.2590638959      -38.3495622639       -2.5229804507  MEMB      173             0.0000000000
     20260       173  SAPS      H18Z           11.8009150462      -38.5071809698       -1.4489255607  MEMB      173             0.0000000000
     20261       174  OSM       N              27.5213527656       23.5908904013      -20.9886566927  MEMB      174             0.0000000000
     20262       174  OSM       C15            26.2626387142       23.7284007443      -20.2004240287  MEMB      174             0.0000000000
     20263       174  OSM       H15A           25.4231720942       23.7812215907      -20.8778498758  MEMB      174             0.0000000000
     20264       174  OSM       H15B           26.3430083225       24.6867944640      -19.7090766062  MEMB      174             0.0000000000
     20265       174  OSM       H15C           26.2455693755       22.8840753970      -19.5272053053  MEMB      174             0.0000000000
     20266       174  OSM       C14            28.7750376140       24.0649019909      -20.1967044264  MEMB      174             0.0000000000
     20267       174  OSM       H14A           29.4920966138       24.4072802437      -20.9281437201  MEMB      174             0.0000000000
     20268       174  OSM       H14B           29.0604738459       23.2015941530      -19.6139304733  MEMB      174             0.0000000000
     20269       174  OSM       H14C           28.4990740324       24.8363188626      -19.4930281979  MEMB      174             0.0000000000
     20270       174  OSM       C13            27.8055584735       22.1496162118      -21.4080738065  MEMB      174             0.0000000000
     20271       174  OSM       H13A           26.9644501030       21.7626739983      -21.9641424852  MEMB      174             0.0000000000
     20272       174  OSM       H13B           27.7699813784       21.4974508378      -20.5479489661  MEMB      174             0.0000000000
     20273       174  OSM       H13C           28.7582791250       22.0831172763      -21.9123568748  MEMB      174             0.0000000000
     20274       174  OSM       C12            27.4244381767       24.4190927984      -22.2871322834  MEMB      174             0.0000000000
     20275       174  OSM       H12A           26.4310263688       24.1969638491      -22.6479532620  MEMB      174             0.0000000000
     20276       174  OSM       H12B           28.0882216611       23.8939645974      -22.9579764573  MEMB      174             0.0000000000
     20277       174  OSM       C11            27.3354344792       25.9829853716      -22.1732584698  MEMB      174             0.0000000000
     20278       174  OSM       H11A           26.7598403050       26.3262770792      -23.0593527593  MEMB      174             0.0000000000
     20279       174  OSM       H11B           28.3721036028       26.3808655562      -22.1367973960  MEMB      174             0.0000000000
     20280       174  OSM       P              26.2274742046       27.7974612571      -20.7932322757  MEMB      174             0.0000000000
     20281       174  OSM       O13            27.3682743074       28.7042555392      -21.0335587237  MEMB      174             0.0000000000
     20282       174  OSM       O14            25.0164652559       28.0335794539      -21.6273428482  MEMB      174             0.0000000000
     20283       174  OSM       O11            25.7358385220       27.9159355535      -19.3237623460  MEMB      174             0.0000000000
     20284       174  OSM       O12            26.6469275919       26.3274567774      -20.9678540986  MEMB      174             0.0000000000
     20285       174  OSM       C1S            25.7911432156       26.7476543885      -18.5065385596  MEMB      174             0.0000000000
     20286       174  OSM       H1S            26.7454504129       26.1923072627      -18.6298604644  MEMB      174             0.0000000000
     20287       174  OSM       H1T            24.9305394227       26.1518945927      -18.8790334655  MEMB      174             0.0000000000
     20288       174  OSM       NF             25.7849624555       25.6169678144      -16.3242472175  MEMB      174             0.0000000000
     20289       174  OSM       HNF            25.0043262753       24.9983648932      -16.2801286535  MEMB      174             0.0000000000
     20290       174  OSM       C2S            25.6414800479       26.9221948936      -16.9400248108  MEMB      174             0.0000000000
     20291       174  OSM       H2S            26.3581451917       27.6746845564      -16.5469962653  MEMB      174             0.0000000000
     20292       174  OSM       C3S            24.1968844786       27.4682928475      -16.7456694875  MEMB      174             0.0000000000
     20293       174  OSM       H3S            23.5509921844       26.6710208665      -17.1716994543  MEMB      174             0.0000000000
     20294       174  OSM       O3             24.0456194691       28.6949604239      -17.4084053556  MEMB      174             0.0000000000
     20295       174  OSM       HO3            24.7956953203       28.6970120105      -18.0075563177  MEMB      174             0.0000000000
     20296       174  OSM       C4S            23.8983032198       27.6084261063      -15.3509797075  MEMB      174             0.0000000000
     20297       174  OSM       H4S            24.5217193200       28.3261163032      -14.7975603670  MEMB      174             0.0000000000
     20298       174  OSM       C5S            22.8848865220       26.9371704134      -14.7776622792  MEMB      174             0.0000000000
     20299       174  OSM       H5S            22.3775439415       26.1789469495      -15.3922355369  MEMB      174             0.0000000000
     20300       174  OSM       C6S            22.5094997301       26.9504947781      -13.3676260910  MEMB      174             0.0000000000
     20301       174  OSM       H6S            22.6622918234       25.9488098602      -12.9119919809  MEMB      174             0.0000000000
     20302       174  OSM       H6T            21.4821088865       27.2448735941      -13.0640969615  MEMB      174             0.0000000000
     20303       174  OSM       C7S            23.2843817680       28.0032820650      -12.5293788164  MEMB      174             0.0000000000
     20304       174  OSM       H7S            23.2650687989       28.9879992025      -13.0434603398  MEMB      174             0.0000000000
     20305       174  OSM       H7T            24.3340014924       27.6396784588      -12.5496738523  MEMB      174             0.0000000000
     20306       174  OSM       C8S            22.6736423927       28.1079874697      -11.0929706187  MEMB      174             0.0000000000
     20307       174  OSM       H8S            21.5792433793       28.2763549807      -11.1838769286  MEMB      174             0.0000000000
     20308       174  OSM       H8T            23.1127803724       28.9578562282      -10.5279910163  MEMB      174             0.0000000000
     20309       174  OSM       C9S            22.8885290676       26.8300217705      -10.2175898680  MEMB      174             0.0000000000
     20310       174  OSM       H9S            22.6921277161       25.9121268999      -10.8119105073  MEMB      174             0.0000000000
     20311       174  OSM       H9T            22.2241735964       26.7147048499       -9.3346093609  MEMB      174             0.0000000000
     20312       174  OSM       C10S           24.3285894262       26.7201283767       -9.6302789571  MEMB      174             0.0000000000
     20313       174  OSM       H10S           24.5338811244       27.3466232377       -8.7360306876  MEMB      174             0.0000000000
     20314       174  OSM       H10T           24.9983219083       27.0967898786      -10.4327154446  MEMB      174             0.0000000000
     20315       174  OSM       C11S           24.7074666863       25.2429151702       -9.2689419641  MEMB      174             0.0000000000
     20316       174  OSM       H11S           24.7391514783       24.6479645045      -10.2066789195  MEMB      174             0.0000000000
     20317       174  OSM       H11T           23.8679426891       24.8578988147       -8.6514613688  MEMB      174             0.0000000000
     20318       174  OSM       C12S           26.0815702377       25.0027718064       -8.7292022803  MEMB      174             0.0000000000
     20319       174  OSM       H12S           26.8573799726       25.2783909535       -9.4751745259  MEMB      174             0.0000000000
     20320       174  OSM       H12T           26.2231974635       23.9540498093       -8.3909057752  MEMB      174             0.0000000000
     20321       174  OSM       C13S           26.5083595672       25.7450566474       -7.4536356937  MEMB      174             0.0000000000
     20322       174  OSM       H13S           26.5062252909       26.8460085232       -7.6027036398  MEMB      174             0.0000000000
     20323       174  OSM       H13T           27.5240444951       25.3817226098       -7.1877528685  MEMB      174             0.0000000000
     20324       174  OSM       C14S           25.4700415943       25.5711234143       -6.3167290379  MEMB      174             0.0000000000
     20325       174  OSM       H14S           25.5812207170       24.5197292185       -5.9753624471  MEMB      174             0.0000000000
     20326       174  OSM       H14T           24.4270929338       25.7593703583       -6.6501086742  MEMB      174             0.0000000000
     20327       174  OSM       C15S           25.7351271268       26.5360019119       -5.1656978569  MEMB      174             0.0000000000
     20328       174  OSM       H15S           25.6551078141       27.5938268666       -5.4957345593  MEMB      174             0.0000000000
     20329       174  OSM       H15T           26.8064225402       26.4125442748       -4.8984806171  MEMB      174             0.0000000000
     20330       174  OSM       C16S           24.8391325059       26.3147645293       -3.9342909267  MEMB      174             0.0000000000
     20331       174  OSM       H16S           25.1978118620       25.4669863781       -3.3122429648  MEMB      174             0.0000000000
     20332       174  OSM       H16T           23.7750588112       26.1994774404       -4.2322452773  MEMB      174             0.0000000000
     20333       174  OSM       C17S           24.9110476426       27.5259160155       -2.8935318527  MEMB      174             0.0000000000
     20334       174  OSM       H17S           24.3927575863       27.2033972145       -1.9652642955  MEMB      174             0.0000000000
     20335       174  OSM       H17T           24.2320574726       28.2844274997       -3.3384508918  MEMB      174             0.0000000000
     20336       174  OSM       C18S           26.2709330955       28.1258141678       -2.5138361881  MEMB      174             0.0000000000
     20337       174  OSM       H18S           26.8706712505       27.3772995188       -1.9531577384  MEMB      174             0.0000000000
     20338       174  OSM       H18T           26.1173889113       29.0196098348       -1.8720615893  MEMB      174             0.0000000000
     20339       174  OSM       H18U           26.8815186662       28.3830575692       -3.4056491024  MEMB      174             0.0000000000
     20340       174  OSM       C1F            27.0239409409       25.2258720756      -15.9357709864  MEMB      174             0.0000000000
     20341       174  OSM       OF             28.0700098565       25.7947367424      -16.3739344779  MEMB      174             0.0000000000
     20342       174  OSM       C2F            27.0861281348       24.1624021642      -14.9257431884  MEMB      174             0.0000000000
     20343       174  OSM       H2F            27.5779430627       23.2708042562      -15.3701443557  MEMB      174             0.0000000000
     20344       174  OSM       H2G            26.0421028308       23.9940672903      -14.5851623034  MEMB      174             0.0000000000
     20345       174  OSM       C3F            27.8669623030       24.6325383911      -13.6708328901  MEMB      174             0.0000000000
     20346       174  OSM       H3F            27.4973641010       25.5650886946      -13.1932683971  MEMB      174             0.0000000000
     20347       174  OSM       H3G            28.9480514856       24.7430252226      -13.9018303630  MEMB      174             0.0000000000
     20348       174  OSM       C4F            27.8864498150       23.6209075370      -12.4893602354  MEMB      174             0.0000000000
     20349       174  OSM       H4F            27.6719580366       22.6170340065      -12.9142744062  MEMB      174             0.0000000000
     20350       174  OSM       H4G            27.0251092045       23.9180629175      -11.8536614840  MEMB      174             0.0000000000
     20351       174  OSM       C5F            29.1185393524       23.3468198840      -11.5224157567  MEMB      174             0.0000000000
     20352       174  OSM       H5F            29.8828816083       22.7129752180      -12.0207562797  MEMB      174             0.0000000000
     20353       174  OSM       H5G            28.5831435427       22.7708373160      -10.7376124724  MEMB      174             0.0000000000
     20354       174  OSM       C6F            29.7742285307       24.5700840300      -10.9179405569  MEMB      174             0.0000000000
     20355       174  OSM       H6F            28.9812765173       25.2339263051      -10.5119094655  MEMB      174             0.0000000000
     20356       174  OSM       H6G            30.2302789828       25.1053185204      -11.7780940813  MEMB      174             0.0000000000
     20357       174  OSM       C7F            30.8452160498       24.0725272298       -9.9195403108  MEMB      174             0.0000000000
     20358       174  OSM       H7F            31.6551728800       23.5229129033      -10.4451019233  MEMB      174             0.0000000000
     20359       174  OSM       H7G            30.5082208600       23.2843111764       -9.2128075856  MEMB      174             0.0000000000
     20360       174  OSM       C8F            31.5525615355       25.1572317167       -9.1388106804  MEMB      174             0.0000000000
     20361       174  OSM       H8F            32.1100175244       25.8595481495       -9.7947951591  MEMB      174             0.0000000000
     20362       174  OSM       H8G            32.4210492242       24.6541322765       -8.6624277666  MEMB      174             0.0000000000
     20363       174  OSM       C9F            30.6924200127       25.9624866131       -8.2641257414  MEMB      174             0.0000000000
     20364       174  OSM       H9F            30.0241928487       26.6101171482       -8.8506805806  MEMB      174             0.0000000000
     20365       174  OSM       C10F           30.7330936584       26.0224148263       -6.9126508741  MEMB      174             0.0000000000
     20366       174  OSM       H10F           30.1900472206       26.8195842252       -6.3838584127  MEMB      174             0.0000000000
     20367       174  OSM       C11F           31.6963153878       25.1685051075       -6.0798302392  MEMB      174             0.0000000000
     20368       174  OSM       H11F           32.5223617774       25.7419142772       -5.6074211585  MEMB      174             0.0000000000
     20369       174  OSM       H11G           32.1213148804       24.3417323404       -6.6882250220  MEMB      174             0.0000000000
     20370       174  OSM       C12F           30.9679566270       24.3543893631       -4.9815402162  MEMB      174             0.0000000000
     20371       174  OSM       H12F           31.7287413769       23.5935790888       -4.7046027762  MEMB      174             0.0000000000
     20372       174  OSM       H12G           30.1178536509       23.8988169687       -5.5329935657  MEMB      174             0.0000000000
     20373       174  OSM       C13F           30.4102930819       24.9330130637       -3.7395267413  MEMB      174             0.0000000000
     20374       174  OSM       H13F           29.4771283286       25.4985131319       -3.9486519839  MEMB      174             0.0000000000
     20375       174  OSM       H13G           31.0576704586       25.7482889516       -3.3515206027  MEMB      174             0.0000000000
     20376       174  OSM       C14F           30.1134744703       23.9482498898       -2.6482413132  MEMB      174             0.0000000000
     20377       174  OSM       H14F           29.8034314109       24.6031903222       -1.8060726767  MEMB      174             0.0000000000
     20378       174  OSM       H14G           30.9757598620       23.3205254498       -2.3371990031  MEMB      174             0.0000000000
     20379       174  OSM       C15F           28.8851625939       23.0373087876       -2.9042655782  MEMB      174             0.0000000000
     20380       174  OSM       H15F           29.0149139285       22.4164236948       -3.8163976338  MEMB      174             0.0000000000
     20381       174  OSM       H15G           27.9543345648       23.6015921577       -3.1266714026  MEMB      174             0.0000000000
     20382       174  OSM       C16F           28.6135588900       21.9985797854       -1.7462427711  MEMB      174             0.0000000000
     20383       174  OSM       H16F           28.3796981860       22.4692485205       -0.7674162643  MEMB      174             0.0000000000
     20384       174  OSM       H16G           29.4767255521       21.3374870913       -1.5177243944  MEMB      174             0.0000000000
     20385       174  OSM       C17F           27.4111553549       21.1002045516       -2.1007664397  MEMB      174             0.0000000000
     20386       174  OSM       H17F           27.4738076152       20.2675252814       -1.3679354871  MEMB      174             0.0000000000
     20387       174  OSM       H17G           27.6362352434       20.6944710692       -3.1102425389  MEMB      174             0.0000000000
     20388       174  OSM       C18F           26.0211748300       21.7644817295       -2.0965932868  MEMB      174             0.0000000000
     20389       174  OSM       H18F           25.2925815223       20.9595130577       -1.8610122590  MEMB      174             0.0000000000
     20390       174  OSM       H18G           25.6700915381       22.1283050983       -3.0858832521  MEMB      174             0.0000000000
     20391       174  OSM       H18H           25.9860603735       22.4670837752       -1.2366871537  MEMB      174             0.0000000000
     20392       175  SLPC      N              35.7717113372      -16.9940053084      -18.5300260298  MEMB      175             0.0000000000
     20393       175  SLPC      C13            36.8459993741      -16.1851536586      -17.7609293619  MEMB      175             0.0000000000
     20394       175  SLPC      H13A           37.2861999187      -15.4847464450      -18.4552299629  MEMB      175             0.0000000000
     20395       175  SLPC      H13B           36.3761406662      -15.5920685872      -16.9902913099  MEMB      175             0.0000000000
     20396       175  SLPC      H13C           37.7141128195      -16.6949622782      -17.3699381351  MEMB      175             0.0000000000
     20397       175  SLPC      C14            35.4461764131      -18.2787104761      -17.8334658671  MEMB      175             0.0000000000
     20398       175  SLPC      H14A           34.9596452757      -17.9067928155      -16.9438791502  MEMB      175             0.0000000000
     20399       175  SLPC      H14B           34.8645211607      -18.8795134006      -18.5169225721  MEMB      175             0.0000000000
     20400       175  SLPC      H14C           36.3413367835      -18.8105704615      -17.5467375782  MEMB      175             0.0000000000
     20401       175  SLPC      C15            36.3451454662      -17.3375383898      -19.8459584615  MEMB      175             0.0000000000
     20402       175  SLPC      H15A           37.1695489269      -17.9967643361      -19.6175290560  MEMB      175             0.0000000000
     20403       175  SLPC      H15B           35.5931742846      -17.6719232620      -20.5453340074  MEMB      175             0.0000000000
     20404       175  SLPC      H15C           36.7263377679      -16.4001562345      -20.2233270906  MEMB      175             0.0000000000
     20405       175  SLPC      C12            34.5449099269      -16.0144434858      -18.7940613341  MEMB      175             0.0000000000
     20406       175  SLPC      H12A           33.7545759773      -16.4934318052      -19.3529372799  MEMB      175             0.0000000000
     20407       175  SLPC      H12B           35.0863682653      -15.2741005527      -19.3642499922  MEMB      175             0.0000000000
     20408       175  SLPC      C11            33.9605962226      -15.2960381389      -17.5968999162  MEMB      175             0.0000000000
     20409       175  SLPC      H11A           33.3216019651      -14.4933098070      -18.0230859178  MEMB      175             0.0000000000
     20410       175  SLPC      H11B           34.7971971940      -14.8483162501      -17.0190030565  MEMB      175             0.0000000000
     20411       175  SLPC      P              32.8821962959      -15.6809950117      -15.2715369217  MEMB      175             0.0000000000
     20412       175  SLPC      O13            33.6465064443      -16.6198176639      -14.4138833492  MEMB      175             0.0000000000
     20413       175  SLPC      O14            33.0423178250      -14.2154090559      -15.0840012442  MEMB      175             0.0000000000
     20414       175  SLPC      O12            33.1419608428      -16.0853258090      -16.7900894417  MEMB      175             0.0000000000
     20415       175  SLPC      O11            31.3807723200      -16.0058320690      -15.0791480217  MEMB      175             0.0000000000
     20416       175  SLPC      C1             30.7958708916      -17.1242198690      -15.7939628355  MEMB      175             0.0000000000
     20417       175  SLPC      HA             30.7526510950      -16.8750952520      -16.8758084309  MEMB      175             0.0000000000
     20418       175  SLPC      HB             31.4211123761      -18.0386213114      -15.7087324248  MEMB      175             0.0000000000
     20419       175  SLPC      C2             29.5076032117      -17.6575255272      -15.1541962707  MEMB      175             0.0000000000
     20420       175  SLPC      HS             28.8565228220      -16.7674610699      -15.0192867250  MEMB      175             0.0000000000
     20421       175  SLPC      O21            29.9906473219      -18.1843580760      -13.8588416481  MEMB      175             0.0000000000
     20422       175  SLPC      C21            28.9936343285      -18.4075912595      -13.0274375781  MEMB      175             0.0000000000
     20423       175  SLPC      O22            27.8343205255      -18.1857007169      -13.1759468677  MEMB      175             0.0000000000
     20424       175  SLPC      C22            29.5662828575      -19.0935145970      -11.7322131025  MEMB      175             0.0000000000
     20425       175  SLPC      H2R            30.3358983539      -19.8378356132      -12.0288599381  MEMB      175             0.0000000000
     20426       175  SLPC      H2S            30.1513832305      -18.3528100362      -11.1462646799  MEMB      175             0.0000000000
     20427       175  SLPC      C3             28.8931949878      -18.7810501301      -15.9684729580  MEMB      175             0.0000000000
     20428       175  SLPC      HX             28.5390638793      -18.3345585998      -16.9221800190  MEMB      175             0.0000000000
     20429       175  SLPC      HY             28.0681282281      -19.2343009145      -15.3784313232  MEMB      175             0.0000000000
     20430       175  SLPC      O31            30.0397446209      -19.6260016049      -16.3373327010  MEMB      175             0.0000000000
     20431       175  SLPC      C31            30.0274116301      -20.8981681066      -15.9195091725  MEMB      175             0.0000000000
     20432       175  SLPC      O32            29.2950232425      -21.2377393751      -15.0268926083  MEMB      175             0.0000000000
     20433       175  SLPC      C32            31.1587689101      -21.7283722342      -16.5196983277  MEMB      175             0.0000000000
     20434       175  SLPC      H2X            31.7579606031      -21.0235302511      -17.1349128073  MEMB      175             0.0000000000
     20435       175  SLPC      H2Y            30.6522448524      -22.5306940664      -17.0976545043  MEMB      175             0.0000000000
     20436       175  SLPC      C23            28.5013500245      -19.8528264354      -10.8629023502  MEMB      175             0.0000000000
     20437       175  SLPC      H3R            28.0664707349      -20.6233928553      -11.5347868177  MEMB      175             0.0000000000
     20438       175  SLPC      H3S            27.7834940974      -19.0205408350      -10.7007162166  MEMB      175             0.0000000000
     20439       175  SLPC      C24            28.8125323777      -20.6138129169       -9.5370151719  MEMB      175             0.0000000000
     20440       175  SLPC      H4R            27.9163272470      -21.2214576627       -9.2882081494  MEMB      175             0.0000000000
     20441       175  SLPC      H4S            29.1287826678      -19.8146094605       -8.8330401194  MEMB      175             0.0000000000
     20442       175  SLPC      C25            30.0127962045      -21.5423277262       -9.6758320507  MEMB      175             0.0000000000
     20443       175  SLPC      H5R            30.8360105852      -20.8064552225       -9.7988379448  MEMB      175             0.0000000000
     20444       175  SLPC      H5S            29.9117550966      -22.1293171919      -10.6136775417  MEMB      175             0.0000000000
     20445       175  SLPC      C26            30.4491810019      -22.3673791664       -8.4793429689  MEMB      175             0.0000000000
     20446       175  SLPC      H6R            31.3076388302      -23.0506861678       -8.6538786654  MEMB      175             0.0000000000
     20447       175  SLPC      H6S            29.5732420299      -22.9906851782       -8.1990893375  MEMB      175             0.0000000000
     20448       175  SLPC      C27            30.9225865478      -21.4941010109       -7.3412121742  MEMB      175             0.0000000000
     20449       175  SLPC      H7R            31.3414372738      -22.0841375375       -6.4981572800  MEMB      175             0.0000000000
     20450       175  SLPC      H7S            30.1031321138      -20.8925423222       -6.8929460633  MEMB      175             0.0000000000
     20451       175  SLPC      C28            32.0017290321      -20.3120059643       -7.5553449996  MEMB      175             0.0000000000
     20452       175  SLPC      H8R            32.0139947425      -19.6281032905       -6.6798746545  MEMB      175             0.0000000000
     20453       175  SLPC      H8S            31.4985014898      -19.6752760994       -8.3140663096  MEMB      175             0.0000000000
     20454       175  SLPC      C29            33.4760884563      -20.6751555293       -7.9899548179  MEMB      175             0.0000000000
     20455       175  SLPC      H9R            33.7386181089      -20.3683505339       -9.0131608736  MEMB      175             0.0000000000
     20456       175  SLPC      C210           34.4363295379      -21.2329947169       -7.2208641161  MEMB      175             0.0000000000
     20457       175  SLPC      H10R           35.3640249895      -21.4926244317       -7.7518757886  MEMB      175             0.0000000000
     20458       175  SLPC      C211           34.1562153254      -21.6074678739       -5.7671650627  MEMB      175             0.0000000000
     20459       175  SLPC      H11R           34.0794880797      -22.7157382135       -5.7802027699  MEMB      175             0.0000000000
     20460       175  SLPC      H11S           33.1138000008      -21.3539507283       -5.4783404169  MEMB      175             0.0000000000
     20461       175  SLPC      C212           35.1879726612      -21.0750051187       -4.7903228685  MEMB      175             0.0000000000
     20462       175  SLPC      H12R           36.0301339525      -21.7804750037       -4.7348527160  MEMB      175             0.0000000000
     20463       175  SLPC      C213           35.1413908059      -19.9855034061       -3.9871482968  MEMB      175             0.0000000000
     20464       175  SLPC      H13R           36.0544716814      -19.6942292879       -3.4472944233  MEMB      175             0.0000000000
     20465       175  SLPC      C214           34.0087602382      -19.0044175565       -3.9539572211  MEMB      175             0.0000000000
     20466       175  SLPC      H14R           33.3009227339      -19.0290461120       -4.8099245060  MEMB      175             0.0000000000
     20467       175  SLPC      H14S           34.4307936106      -17.9773004530       -3.9891653288  MEMB      175             0.0000000000
     20468       175  SLPC      C215           33.1249972809      -19.1781552744       -2.6341296927  MEMB      175             0.0000000000
     20469       175  SLPC      H15R           32.6534763349      -18.1768643346       -2.5371486833  MEMB      175             0.0000000000
     20470       175  SLPC      H15S           33.6698962344      -19.3393204231       -1.6794401632  MEMB      175             0.0000000000
     20471       175  SLPC      C216           32.1475661828      -20.3591038934       -2.7487139538  MEMB      175             0.0000000000
     20472       175  SLPC      H16R           32.8335694381      -21.1765703842       -3.0576944117  MEMB      175             0.0000000000
     20473       175  SLPC      H16S           31.4849802046      -20.1729412138       -3.6208630585  MEMB      175             0.0000000000
     20474       175  SLPC      C217           31.3897962869      -20.6995390084       -1.4497947312  MEMB      175             0.0000000000
     20475       175  SLPC      H17R           30.7275009484      -19.8387398842       -1.2158916108  MEMB      175             0.0000000000
     20476       175  SLPC      H17S           32.1067748603      -20.7054943508       -0.6011329653  MEMB      175             0.0000000000
     20477       175  SLPC      C218           30.6978472300      -22.0274983933       -1.4030594334  MEMB      175             0.0000000000
     20478       175  SLPC      H18R           31.4283234922      -22.8574919237       -1.2942626623  MEMB      175             0.0000000000
     20479       175  SLPC      H18S           30.0642866839      -22.1765627847       -2.3034487666  MEMB      175             0.0000000000
     20480       175  SLPC      H18T           29.8837645904      -22.1703598564       -0.6606437134  MEMB      175             0.0000000000
     20481       175  SLPC      C33            31.9116402131      -22.4682725152      -15.4091324122  MEMB      175             0.0000000000
     20482       175  SLPC      H3X            32.6302759731      -23.1405632840      -15.9247959109  MEMB      175             0.0000000000
     20483       175  SLPC      H3Y            31.1675246424      -23.1412228862      -14.9318997515  MEMB      175             0.0000000000
     20484       175  SLPC      C34            32.7045770683      -21.6442464393      -14.3072736025  MEMB      175             0.0000000000
     20485       175  SLPC      H4X            33.2848109118      -22.3358084413      -13.6596694643  MEMB      175             0.0000000000
     20486       175  SLPC      H4Y            31.8333578798      -21.2604672765      -13.7345510204  MEMB      175             0.0000000000
     20487       175  SLPC      C35            33.5317566141      -20.4298911740      -14.7035827076  MEMB      175             0.0000000000
     20488       175  SLPC      H5X            32.8977830195      -19.7725093761      -15.3362340704  MEMB      175             0.0000000000
     20489       175  SLPC      H5Y            34.4159840780      -20.7501758936      -15.2950900347  MEMB      175             0.0000000000
     20490       175  SLPC      C36            34.0824128216      -19.6560695469      -13.4883749948  MEMB      175             0.0000000000
     20491       175  SLPC      H6X            34.6833021023      -18.8706593896      -13.9947186640  MEMB      175             0.0000000000
     20492       175  SLPC      H6Y            34.8545913748      -20.3230927482      -13.0488965141  MEMB      175             0.0000000000
     20493       175  SLPC      C37            33.0368550098      -19.0901644117      -12.4969639659  MEMB      175             0.0000000000
     20494       175  SLPC      H7X            32.5000305978      -19.9390361138      -12.0220358209  MEMB      175             0.0000000000
     20495       175  SLPC      H7Y            32.2137990246      -18.5441458858      -13.0056522927  MEMB      175             0.0000000000
     20496       175  SLPC      C38            33.7603997727      -18.2324630219      -11.4020420667  MEMB      175             0.0000000000
     20497       175  SLPC      H8X            34.5254929124      -17.5787130468      -11.8727483754  MEMB      175             0.0000000000
     20498       175  SLPC      H8Y            34.3377831133      -19.0346059488      -10.8945815123  MEMB      175             0.0000000000
     20499       175  SLPC      C39            32.6533557825      -17.4645727339      -10.6498461830  MEMB      175             0.0000000000
     20500       175  SLPC      H9X            32.0069282610      -18.2367092068      -10.1805302287  MEMB      175             0.0000000000
     20501       175  SLPC      H9Y            32.0549124016      -16.8242465520      -11.3326120360  MEMB      175             0.0000000000
     20502       175  SLPC      C310           33.1483028979      -16.6312606615       -9.4601991322  MEMB      175             0.0000000000
     20503       175  SLPC      H10X           33.9013008079      -15.8862240764       -9.7952152918  MEMB      175             0.0000000000
     20504       175  SLPC      H10Y           33.6020340488      -17.1445190426       -8.5855479430  MEMB      175             0.0000000000
     20505       175  SLPC      C311           32.0105865508      -15.7949273272       -8.7446970638  MEMB      175             0.0000000000
     20506       175  SLPC      H11X           31.5951460551      -15.1619704498       -9.5577753506  MEMB      175             0.0000000000
     20507       175  SLPC      H11Y           32.3691430120      -15.2089096009       -7.8715753354  MEMB      175             0.0000000000
     20508       175  SLPC      C312           30.9337040768      -16.5655040008       -8.1116252889  MEMB      175             0.0000000000
     20509       175  SLPC      H12X           31.2506292010      -17.2717317430       -7.3146802251  MEMB      175             0.0000000000
     20510       175  SLPC      H12Y           30.3380656196      -17.1768109448       -8.8228494246  MEMB      175             0.0000000000
     20511       175  SLPC      C313           29.9197755292      -15.8826265557       -7.2050109668  MEMB      175             0.0000000000
     20512       175  SLPC      H13X           29.4463822197      -15.0700430508       -7.7965570687  MEMB      175             0.0000000000
     20513       175  SLPC      H13Y           30.5115347783      -15.3400997341       -6.4370219412  MEMB      175             0.0000000000
     20514       175  SLPC      C314           28.7651815126      -16.7955062100       -6.6353190477  MEMB      175             0.0000000000
     20515       175  SLPC      H14X           27.9930667462      -17.1080037567       -7.3705096908  MEMB      175             0.0000000000
     20516       175  SLPC      H14Y           28.2309264808      -16.2768568855       -5.8107616227  MEMB      175             0.0000000000
     20517       175  SLPC      C315           29.0873377449      -18.1544416113       -5.9353783787  MEMB      175             0.0000000000
     20518       175  SLPC      H15X           29.7226409914      -17.9734649952       -5.0420932519  MEMB      175             0.0000000000
     20519       175  SLPC      H15Y           29.6212209806      -18.5616677484       -6.8205088052  MEMB      175             0.0000000000
     20520       175  SLPC      C316           28.0154380736      -19.2638833037       -5.7708151042  MEMB      175             0.0000000000
     20521       175  SLPC      H16X           28.4071273683      -20.2434828147       -5.4225547591  MEMB      175             0.0000000000
     20522       175  SLPC      H16Y           27.4586768181      -19.1920418095       -6.7295523825  MEMB      175             0.0000000000
     20523       175  SLPC      C317           27.0130271196      -18.8789144392       -4.7345430894  MEMB      175             0.0000000000
     20524       175  SLPC      H17X           26.1864354420      -19.6207585788       -4.7616411470  MEMB      175             0.0000000000
     20525       175  SLPC      H17Y           26.5737690634      -17.9035592458       -5.0346359912  MEMB      175             0.0000000000
     20526       175  SLPC      C318           27.5485410434      -18.7330848680       -3.3072851672  MEMB      175             0.0000000000
     20527       175  SLPC      H18X           26.7791188376      -18.7815634302       -2.5073103729  MEMB      175             0.0000000000
     20528       175  SLPC      H18Y           28.1063686862      -17.7750693809       -3.2341018395  MEMB      175             0.0000000000
     20529       175  SLPC      H18Z           28.3060252131      -19.5421601136       -3.2302386887  MEMB      175             0.0000000000
     20530       176  CHL1      C3            -30.5006715997       21.9153333032      -17.3152850000  MEMB      176             0.0000000000
     20531       176  CHL1      H3            -29.5925201214       22.3857814120      -16.8813850000  MEMB      176             0.0000000000
     20532       176  CHL1      O3            -30.2098926003       21.5113850968      -18.6847150000  MEMB      176             0.0000000000
     20533       176  CHL1      H3'           -29.4308070071       20.9507161483      -18.6679750000  MEMB      176             0.0000000000
     20534       176  CHL1      C4            -30.8671627208       20.6735055706      -16.3119250000  MEMB      176             0.0000000000
     20535       176  CHL1      H4A           -31.7301565381       20.1618526884      -16.7891650000  MEMB      176             0.0000000000
     20536       176  CHL1      H4B           -30.0107486552       19.9760252120      -16.4319250000  MEMB      176             0.0000000000
     20537       176  CHL1      C5            -31.0684211154       21.1648010438      -14.8902750000  MEMB      176             0.0000000000
     20538       176  CHL1      C6            -30.3974183982       20.6811952766      -13.8048050000  MEMB      176             0.0000000000
     20539       176  CHL1      H6            -29.7083097707       19.8620389894      -14.0580150000  MEMB      176             0.0000000000
     20540       176  CHL1      C7            -30.5616373959       21.1446392151      -12.3740150000  MEMB      176             0.0000000000
     20541       176  CHL1      H7A           -30.7068284233       20.2335462250      -11.7550350000  MEMB      176             0.0000000000
     20542       176  CHL1      H7B           -29.6409713439       21.6922923396      -12.0794250000  MEMB      176             0.0000000000
     20543       176  CHL1      C8            -31.7905271517       22.0339758416      -12.2628550000  MEMB      176             0.0000000000
     20544       176  CHL1      H8            -32.6947229750       21.3914545920      -12.2003650000  MEMB      176             0.0000000000
     20545       176  CHL1      C14           -31.7352360361       22.7884362086      -10.8877050000  MEMB      176             0.0000000000
     20546       176  CHL1      H14           -30.7805979569       23.3553663859      -10.8481550000  MEMB      176             0.0000000000
     20547       176  CHL1      C15           -31.6177741449       21.8467748417       -9.6758050000  MEMB      176             0.0000000000
     20548       176  CHL1      H15A          -32.4589624093       21.1210726344       -9.6668250000  MEMB      176             0.0000000000
     20549       176  CHL1      H15B          -30.6022370240       21.3966556686       -9.6559650000  MEMB      176             0.0000000000
     20550       176  CHL1      C16           -31.8850409005       22.8780379417       -8.5469650000  MEMB      176             0.0000000000
     20551       176  CHL1      H16A          -32.5099420464       22.4162320816       -7.7528950000  MEMB      176             0.0000000000
     20552       176  CHL1      H16B          -30.9373167695       23.2207737874       -8.0793250000  MEMB      176             0.0000000000
     20553       176  CHL1      C17           -32.7045303582       24.0392064281       -9.1416350000  MEMB      176             0.0000000000
     20554       176  CHL1      H17           -32.0368361910       24.9239896284       -9.0664850000  MEMB      176             0.0000000000
     20555       176  CHL1      C13           -32.9094909579       23.7648557387      -10.6166650000  MEMB      176             0.0000000000
     20556       176  CHL1      C18           -34.2373567353       22.9565565972      -10.7465350000  MEMB      176             0.0000000000
     20557       176  CHL1      H18A          -35.1010743184       23.6504382570      -10.6638650000  MEMB      176             0.0000000000
     20558       176  CHL1      H18B          -34.2781113695       22.5802654110      -11.7910750000  MEMB      176             0.0000000000
     20559       176  CHL1      H18C          -34.3652611593       22.1900103522       -9.9525650000  MEMB      176             0.0000000000
     20560       176  CHL1      C12           -32.9190507509       24.8525580440      -11.7228350000  MEMB      176             0.0000000000
     20561       176  CHL1      H12A          -33.7587638801       25.5639641637      -11.5707950000  MEMB      176             0.0000000000
     20562       176  CHL1      H12B          -31.9527179189       25.3981967945      -11.6699350000  MEMB      176             0.0000000000
     20563       176  CHL1      C11           -32.9774402042       24.1908651989      -13.1053450000  MEMB      176             0.0000000000
     20564       176  CHL1      H11A          -34.0374565476       23.8855105135      -13.2374350000  MEMB      176             0.0000000000
     20565       176  CHL1      H11B          -32.8290897197       24.9145216186      -13.9351850000  MEMB      176             0.0000000000
     20566       176  CHL1      C9            -31.8513239606       23.0838203632      -13.3540850000  MEMB      176             0.0000000000
     20567       176  CHL1      H9            -30.8737736950       23.6112590564      -13.3312150000  MEMB      176             0.0000000000
     20568       176  CHL1      C10           -31.9907754976       22.4133289331      -14.7828350000  MEMB      176             0.0000000000
     20569       176  CHL1      C19           -33.3549952514       21.8652087532      -15.0529050000  MEMB      176             0.0000000000
     20570       176  CHL1      H19A          -34.0838716283       22.7031168885      -15.0839450000  MEMB      176             0.0000000000
     20571       176  CHL1      H19B          -33.3797390501       21.1744528400      -15.9227150000  MEMB      176             0.0000000000
     20572       176  CHL1      H19C          -33.7154538945       21.2183461030      -14.2246750000  MEMB      176             0.0000000000
     20573       176  CHL1      C1            -31.6151786260       23.5449028667      -15.8368350000  MEMB      176             0.0000000000
     20574       176  CHL1      H1A           -32.4247241403       24.3046652146      -15.8784650000  MEMB      176             0.0000000000
     20575       176  CHL1      H1B           -30.6807364007       24.1042818066      -15.6172450000  MEMB      176             0.0000000000
     20576       176  CHL1      C2            -31.4519977689       23.0865747432      -17.2972250000  MEMB      176             0.0000000000
     20577       176  CHL1      H2A           -30.9906801121       23.8938439387      -17.9053650000  MEMB      176             0.0000000000
     20578       176  CHL1      H2B           -32.4018738828       22.7913848182      -17.7921150000  MEMB      176             0.0000000000
     20579       176  CHL1      C20           -33.9246124776       24.5348234828       -8.2407450000  MEMB      176             0.0000000000
     20580       176  CHL1      H20           -34.6281143475       23.7266092875       -7.9471350000  MEMB      176             0.0000000000
     20581       176  CHL1      C21           -34.6622542751       25.7056857464       -8.9096150000  MEMB      176             0.0000000000
     20582       176  CHL1      H21A          -35.2099294581       25.3955696139       -9.8251450000  MEMB      176             0.0000000000
     20583       176  CHL1      H21B          -34.0400053474       26.5999306170       -9.1274650000  MEMB      176             0.0000000000
     20584       176  CHL1      H21C          -35.3883486262       26.0965887582       -8.1651050000  MEMB      176             0.0000000000
     20585       176  CHL1      C22           -33.4562779014       25.0783267833       -6.9175750000  MEMB      176             0.0000000000
     20586       176  CHL1      H22A          -32.6356898178       24.4476360348       -6.5136050000  MEMB      176             0.0000000000
     20587       176  CHL1      H22B          -33.0943375763       26.0910310351       -7.1964150000  MEMB      176             0.0000000000
     20588       176  CHL1      C23           -34.4788560203       25.2204593677       -5.8143950000  MEMB      176             0.0000000000
     20589       176  CHL1      H23A          -34.8194263264       26.2770530576       -5.8584150000  MEMB      176             0.0000000000
     20590       176  CHL1      H23B          -35.3339797631       24.5112704655       -5.8023750000  MEMB      176             0.0000000000
     20591       176  CHL1      C24           -33.7279572782       25.0543691997       -4.4407850000  MEMB      176             0.0000000000
     20592       176  CHL1      H24A          -33.1453364893       24.1084014611       -4.4364850000  MEMB      176             0.0000000000
     20593       176  CHL1      H24B          -33.0336838516       25.9216996790       -4.4339250000  MEMB      176             0.0000000000
     20594       176  CHL1      C25           -34.6367312179       25.2285935477       -3.1498250000  MEMB      176             0.0000000000
     20595       176  CHL1      H25           -35.1066633771       26.2285301898       -3.2664550000  MEMB      176             0.0000000000
     20596       176  CHL1      C26           -35.6062497847       24.1040474531       -3.0557150000  MEMB      176             0.0000000000
     20597       176  CHL1      H26A          -35.0676086964       23.1615501665       -2.8193250000  MEMB      176             0.0000000000
     20598       176  CHL1      H26B          -36.3218026318       24.2484447351       -2.2181850000  MEMB      176             0.0000000000
     20599       176  CHL1      H26C          -36.1201344413       24.0423701493       -4.0387850000  MEMB      176             0.0000000000
     20600       176  CHL1      C27           -33.8197501523       25.4066532753       -1.9101350000  MEMB      176             0.0000000000
     20601       176  CHL1      H27A          -33.3873984426       24.4397014087       -1.5748750000  MEMB      176             0.0000000000
     20602       176  CHL1      H27B          -33.0534466193       26.2064463592       -1.9962650000  MEMB      176             0.0000000000
     20603       176  CHL1      H27C          -34.5807339232       25.6740500019       -1.1461150000  MEMB      176             0.0000000000
     20604       177  CHL1      C3             17.4157445905       35.7430592894      -17.3376000000  MEMB      177             0.0000000000
     20605       177  CHL1      H3             16.3650516499       36.0748642386      -17.1951800000  MEMB      177             0.0000000000
     20606       177  CHL1      O3             17.8154584829       35.7033863106      -18.6624000000  MEMB      177             0.0000000000
     20607       177  CHL1      H3'            17.7812199151       36.5936102189      -19.0200500000  MEMB      177             0.0000000000
     20608       177  CHL1      C4             18.4272272378       36.6498334477      -16.6136300000  MEMB      177             0.0000000000
     20609       177  CHL1      H4A            19.4324672977       36.2387107898      -16.8476900000  MEMB      177             0.0000000000
     20610       177  CHL1      H4B            18.4419146888       37.6198134849      -17.1551600000  MEMB      177             0.0000000000
     20611       177  CHL1      C5             18.0663580794       36.6727687701      -15.1559100000  MEMB      177             0.0000000000
     20612       177  CHL1      C6             17.7496060120       37.8430856999      -14.5437200000  MEMB      177             0.0000000000
     20613       177  CHL1      H6             17.7236740737       38.7929419896      -15.0978800000  MEMB      177             0.0000000000
     20614       177  CHL1      C7             17.4870871052       38.0505974512      -13.1404200000  MEMB      177             0.0000000000
     20615       177  CHL1      H7A            18.0793781954       38.8730730986      -12.6853900000  MEMB      177             0.0000000000
     20616       177  CHL1      H7B            16.3992737046       38.1176724243      -12.9248200000  MEMB      177             0.0000000000
     20617       177  CHL1      C8             17.8517192871       36.7377383325      -12.2845200000  MEMB      177             0.0000000000
     20618       177  CHL1      H8             18.9582975506       36.7559077372      -12.1871900000  MEMB      177             0.0000000000
     20619       177  CHL1      C14            17.1575965445       36.7548867445      -10.9110000000  MEMB      177             0.0000000000
     20620       177  CHL1      H14            16.1046354607       36.4514717660      -11.0941200000  MEMB      177             0.0000000000
     20621       177  CHL1      C15            17.1579718053       38.0480667046      -10.1132500000  MEMB      177             0.0000000000
     20622       177  CHL1      H15A           18.1276184709       38.5875436194      -10.0577400000  MEMB      177             0.0000000000
     20623       177  CHL1      H15B           16.4985827326       38.8183362423      -10.5673600000  MEMB      177             0.0000000000
     20624       177  CHL1      C16            16.7252528938       37.6377971418       -8.7424600000  MEMB      177             0.0000000000
     20625       177  CHL1      H16A           17.4795205726       38.0104950662       -8.0168600000  MEMB      177             0.0000000000
     20626       177  CHL1      H16B           15.7537641836       38.1266785768       -8.5154800000  MEMB      177             0.0000000000
     20627       177  CHL1      C17            16.6662080845       36.0638018526       -8.6602600000  MEMB      177             0.0000000000
     20628       177  CHL1      H17            15.6470745036       35.7629041233       -8.9845300000  MEMB      177             0.0000000000
     20629       177  CHL1      C13            17.5245788534       35.6782070496       -9.9331900000  MEMB      177             0.0000000000
     20630       177  CHL1      C18            18.9706326025       35.8264288560       -9.4507100000  MEMB      177             0.0000000000
     20631       177  CHL1      H18A           19.2463406123       35.0071245976       -8.7528200000  MEMB      177             0.0000000000
     20632       177  CHL1      H18B           19.5881818056       35.8585165026      -10.3737000000  MEMB      177             0.0000000000
     20633       177  CHL1      H18C           19.1965284315       36.7717344863       -8.9124900000  MEMB      177             0.0000000000
     20634       177  CHL1      C12            17.2354988715       34.2685213473      -10.5921200000  MEMB      177             0.0000000000
     20635       177  CHL1      H12A           17.5733162911       33.3946603769       -9.9949900000  MEMB      177             0.0000000000
     20636       177  CHL1      H12B           16.1435101629       34.1772482123      -10.7753100000  MEMB      177             0.0000000000
     20637       177  CHL1      C11            17.9186642863       34.2750801382      -12.0394400000  MEMB      177             0.0000000000
     20638       177  CHL1      H11A           19.0056652217       34.3567933192      -11.8247900000  MEMB      177             0.0000000000
     20639       177  CHL1      H11B           17.7469053057       33.2766753163      -12.4955200000  MEMB      177             0.0000000000
     20640       177  CHL1      C9             17.4482495234       35.4277953488      -12.9622200000  MEMB      177             0.0000000000
     20641       177  CHL1      H9             16.3409225156       35.3610432901      -13.0229900000  MEMB      177             0.0000000000
     20642       177  CHL1      C10            17.9725937260       35.3228836218      -14.3795800000  MEMB      177             0.0000000000
     20643       177  CHL1      C19            19.3064648730       34.6474631894      -14.3857700000  MEMB      177             0.0000000000
     20644       177  CHL1      H19A           19.1630277574       33.5836575039      -14.0992900000  MEMB      177             0.0000000000
     20645       177  CHL1      H19B           19.9462202184       34.6801119473      -15.2934900000  MEMB      177             0.0000000000
     20646       177  CHL1      H19C           19.8816946052       35.0440186112      -13.5219600000  MEMB      177             0.0000000000
     20647       177  CHL1      C1             17.0391207860       34.4054854448      -15.1780300000  MEMB      177             0.0000000000
     20648       177  CHL1      H1A            17.1402582876       33.4113608668      -14.6924200000  MEMB      177             0.0000000000
     20649       177  CHL1      H1B            16.0104884565       34.8239393866      -15.1442000000  MEMB      177             0.0000000000
     20650       177  CHL1      C2             17.3999735137       34.3108457443      -16.6975600000  MEMB      177             0.0000000000
     20651       177  CHL1      H2A            16.6258162048       33.6627332241      -17.1611900000  MEMB      177             0.0000000000
     20652       177  CHL1      H2B            18.3874459246       33.8105720395      -16.7921600000  MEMB      177             0.0000000000
     20653       177  CHL1      C20            16.8067980915       35.5200029876       -7.2168700000  MEMB      177             0.0000000000
     20654       177  CHL1      H20            17.6917861154       36.0139460537       -6.7617300000  MEMB      177             0.0000000000
     20655       177  CHL1      C21            16.8940794361       34.0068787062       -7.2244000000  MEMB      177             0.0000000000
     20656       177  CHL1      H21A           17.8797874415       33.7065418712       -7.6397200000  MEMB      177             0.0000000000
     20657       177  CHL1      H21B           16.1082661183       33.6487799311       -7.9234000000  MEMB      177             0.0000000000
     20658       177  CHL1      H21C           16.7663506961       33.6931451834       -6.1663000000  MEMB      177             0.0000000000
     20659       177  CHL1      C22            15.5979525042       36.1081716353       -6.4656000000  MEMB      177             0.0000000000
     20660       177  CHL1      H22A           15.4585547552       37.1917481550       -6.6674900000  MEMB      177             0.0000000000
     20661       177  CHL1      H22B           14.7173088381       35.5787079407       -6.8880400000  MEMB      177             0.0000000000
     20662       177  CHL1      C23            15.6234631508       35.9185172038       -4.9271900000  MEMB      177             0.0000000000
     20663       177  CHL1      H23A           14.5679707112       36.0438432607       -4.6038300000  MEMB      177             0.0000000000
     20664       177  CHL1      H23B           15.9394559677       34.8839470031       -4.6739300000  MEMB      177             0.0000000000
     20665       177  CHL1      C24            16.4680554114       37.0070924903       -4.3482100000  MEMB      177             0.0000000000
     20666       177  CHL1      H24A           17.4299279669       36.9960490400       -4.9040800000  MEMB      177             0.0000000000
     20667       177  CHL1      H24B           16.0743724251       38.0345616992       -4.5020000000  MEMB      177             0.0000000000
     20668       177  CHL1      C25            16.7180469677       36.7160492359       -2.8447500000  MEMB      177             0.0000000000
     20669       177  CHL1      H25            15.8071201335       36.1936375078       -2.4819800000  MEMB      177             0.0000000000
     20670       177  CHL1      C26            18.0045428431       35.8138838092       -2.5945400000  MEMB      177             0.0000000000
     20671       177  CHL1      H26A           17.7697886891       34.7739271278       -2.9071300000  MEMB      177             0.0000000000
     20672       177  CHL1      H26B           18.8547341096       36.1498271104       -3.2259100000  MEMB      177             0.0000000000
     20673       177  CHL1      H26C           18.1757736808       35.7174189206       -1.5010600000  MEMB      177             0.0000000000
     20674       177  CHL1      C27            16.9427885020       38.0409808460       -2.0800500000  MEMB      177             0.0000000000
     20675       177  CHL1      H27A           17.7248550870       38.6722665616       -2.5535300000  MEMB      177             0.0000000000
     20676       177  CHL1      H27B           15.9770608312       38.5850244865       -2.1555900000  MEMB      177             0.0000000000
     20677       177  CHL1      H27C           17.1145158402       37.8197104880       -1.0049400000  MEMB      177             0.0000000000
     20678       178  SAPC      N              20.7891693928      -31.0132072755      -21.2468416611  MEMB      178             0.0000000000
     20679       178  SAPC      C12            22.2966771288      -30.8890010108      -20.9100935755  MEMB      178             0.0000000000
     20680       178  SAPC      H12A           22.3340041830      -30.0109591439      -20.2823599778  MEMB      178             0.0000000000
     20681       178  SAPC      H12B           22.8735804422      -30.6258433608      -21.7843536515  MEMB      178             0.0000000000
     20682       178  SAPC      C13            20.5950353609      -32.3074308427      -21.9528182362  MEMB      178             0.0000000000
     20683       178  SAPC      H13A           20.3969462079      -33.1289093352      -21.2802606311  MEMB      178             0.0000000000
     20684       178  SAPC      H13B           19.7811366820      -32.1588264814      -22.6469979626  MEMB      178             0.0000000000
     20685       178  SAPC      H13C           21.5241047314      -32.4332251772      -22.4889209335  MEMB      178             0.0000000000
     20686       178  SAPC      C14            19.8463917493      -30.8382863202      -19.9969500604  MEMB      178             0.0000000000
     20687       178  SAPC      H14A           20.3178653152      -31.2787325418      -19.1308555246  MEMB      178             0.0000000000
     20688       178  SAPC      H14B           19.7493846441      -29.7723204988      -19.8530521100  MEMB      178             0.0000000000
     20689       178  SAPC      H14C           18.8659202839      -31.2147888954      -20.2485879609  MEMB      178             0.0000000000
     20690       178  SAPC      C15            20.4294220456      -29.8775331468      -22.2552452253  MEMB      178             0.0000000000
     20691       178  SAPC      H15A           21.1244063513      -29.0980914939      -21.9798044900  MEMB      178             0.0000000000
     20692       178  SAPC      H15B           20.5893744200      -30.3138047752      -23.2301721240  MEMB      178             0.0000000000
     20693       178  SAPC      H15C           19.4113006940      -29.6128632731      -22.0107482303  MEMB      178             0.0000000000
     20694       178  SAPC      C11            22.9910394976      -32.0822080669      -20.2527820237  MEMB      178             0.0000000000
     20695       178  SAPC      H11A           23.9834333135      -31.8010914957      -19.8399273065  MEMB      178             0.0000000000
     20696       178  SAPC      H11B           23.0987359320      -32.8473417983      -21.0510882684  MEMB      178             0.0000000000
     20697       178  SAPC      P              22.5027521682      -34.0381052470      -18.6238806356  MEMB      178             0.0000000000
     20698       178  SAPC      O13            22.2376608431      -34.0692525281      -17.1211944279  MEMB      178             0.0000000000
     20699       178  SAPC      O14            21.6994834982      -34.9919093019      -19.4755282697  MEMB      178             0.0000000000
     20700       178  SAPC      O12            22.2592624647      -32.5917425642      -19.2161672078  MEMB      178             0.0000000000
     20701       178  SAPC      O11            24.0276277014      -34.2382722632      -18.9484986764  MEMB      178             0.0000000000
     20702       178  SAPC      C1             24.9776019803      -35.1201018634      -18.5437495235  MEMB      178             0.0000000000
     20703       178  SAPC      HA             24.5364951226      -36.0618391259      -18.1527548092  MEMB      178             0.0000000000
     20704       178  SAPC      HB             25.6375604348      -35.4515396617      -19.3737641821  MEMB      178             0.0000000000
     20705       178  SAPC      C2             25.8543820242      -34.5641685722      -17.3735583968  MEMB      178             0.0000000000
     20706       178  SAPC      HS             26.7331055461      -35.2399882056      -17.2998402409  MEMB      178             0.0000000000
     20707       178  SAPC      O21            25.1501869529      -34.4911538853      -16.1006311974  MEMB      178             0.0000000000
     20708       178  SAPC      C21            25.3403495653      -35.5502893087      -15.2981098373  MEMB      178             0.0000000000
     20709       178  SAPC      O22            25.6480915070      -36.6842695907      -15.6521145981  MEMB      178             0.0000000000
     20710       178  SAPC      C22            24.9665580291      -35.1091150034      -13.8712729175  MEMB      178             0.0000000000
     20711       178  SAPC      H2R            25.7498910503      -35.4930846602      -13.1833211168  MEMB      178             0.0000000000
     20712       178  SAPC      H2S            24.6978443623      -34.0318957431      -13.8298883948  MEMB      178             0.0000000000
     20713       178  SAPC      C3             26.3959766968      -33.1051985379      -17.7720338083  MEMB      178             0.0000000000
     20714       178  SAPC      HX             26.5981313435      -33.2943309859      -18.8479907218  MEMB      178             0.0000000000
     20715       178  SAPC      HY             27.2565473027      -32.9102511238      -17.0969528036  MEMB      178             0.0000000000
     20716       178  SAPC      O31            25.4956471666      -32.0591390781      -17.7224609938  MEMB      178             0.0000000000
     20717       178  SAPC      C31            25.1001808842      -31.4436394839      -16.5666737357  MEMB      178             0.0000000000
     20718       178  SAPC      O32            25.6737700364      -31.6101126765      -15.4921578937  MEMB      178             0.0000000000
     20719       178  SAPC      C32            23.7349970265      -30.6223644588      -16.6849120463  MEMB      178             0.0000000000
     20720       178  SAPC      H2X            22.9961632729      -31.3018944310      -17.1610263380  MEMB      178             0.0000000000
     20721       178  SAPC      H2Y            23.9841983949      -29.8751618271      -17.4684346521  MEMB      178             0.0000000000
     20722       178  SAPC      C23            23.6839254294      -36.0156980204      -13.6462053869  MEMB      178             0.0000000000
     20723       178  SAPC      H3R            24.0569343238      -37.0591324301      -13.7263942641  MEMB      178             0.0000000000
     20724       178  SAPC      H3S            22.9887055001      -35.9048432464      -14.5056828598  MEMB      178             0.0000000000
     20725       178  SAPC      C24            22.8766848926      -35.6707587139      -12.3432956869  MEMB      178             0.0000000000
     20726       178  SAPC      H4R            23.5712859346      -35.2992906438      -11.5598029262  MEMB      178             0.0000000000
     20727       178  SAPC      H4S            22.5031402394      -36.6251675850      -11.9144734811  MEMB      178             0.0000000000
     20728       178  SAPC      C25            21.7675761208      -34.6630308675      -12.5522517538  MEMB      178             0.0000000000
     20729       178  SAPC      H5R            22.0860566492      -33.7993332280      -13.1544117213  MEMB      178             0.0000000000
     20730       178  SAPC      C26            20.5508038500      -34.6986409295      -11.9743728682  MEMB      178             0.0000000000
     20731       178  SAPC      H6R            19.8008682654      -33.9563454770      -12.2851686504  MEMB      178             0.0000000000
     20732       178  SAPC      C27            19.9110180655      -35.6857010681      -11.0536756517  MEMB      178             0.0000000000
     20733       178  SAPC      H7R            20.5520402184      -36.5615079876      -10.8162443318  MEMB      178             0.0000000000
     20734       178  SAPC      H7S            19.0630507262      -36.0892806384      -11.6473045552  MEMB      178             0.0000000000
     20735       178  SAPC      C28            19.2295769166      -34.9764730438       -9.8600130395  MEMB      178             0.0000000000
     20736       178  SAPC      H8R            18.5262968478      -34.1628982031      -10.0912993929  MEMB      178             0.0000000000
     20737       178  SAPC      C29            19.5430670414      -35.1667903353       -8.5262044569  MEMB      178             0.0000000000
     20738       178  SAPC      H9R            18.8778748448      -34.8482873511       -7.7100702952  MEMB      178             0.0000000000
     20739       178  SAPC      C210           20.6045093540      -36.0477330281       -7.9458724594  MEMB      178             0.0000000000
     20740       178  SAPC      H10R           21.4579551688      -36.0552440208       -8.6571351633  MEMB      178             0.0000000000
     20741       178  SAPC      H10S           20.2685783240      -37.1060542010       -7.9836608558  MEMB      178             0.0000000000
     20742       178  SAPC      C211           21.0699822755      -35.6773143937       -6.5637522830  MEMB      178             0.0000000000
     20743       178  SAPC      H11R           22.0705311272      -35.2202584198       -6.5650672078  MEMB      178             0.0000000000
     20744       178  SAPC      C212           20.4492389250      -35.7485248623       -5.3658962366  MEMB      178             0.0000000000
     20745       178  SAPC      H12R           21.0800032752      -35.5006528797       -4.4994689449  MEMB      178             0.0000000000
     20746       178  SAPC      C213           19.0480351888      -36.2965043628       -4.9910322277  MEMB      178             0.0000000000
     20747       178  SAPC      H13R           18.4410039494      -36.5784845782       -5.8777794667  MEMB      178             0.0000000000
     20748       178  SAPC      H13S           18.4326469270      -35.4495691085       -4.6191203304  MEMB      178             0.0000000000
     20749       178  SAPC      C214           19.0733777645      -37.5591478409       -4.0437655758  MEMB      178             0.0000000000
     20750       178  SAPC      H14R           19.2444123228      -38.4746971738       -4.6290151563  MEMB      178             0.0000000000
     20751       178  SAPC      C215           18.9348768752      -37.6366327240       -2.7473691745  MEMB      178             0.0000000000
     20752       178  SAPC      H15R           18.9957936753      -38.6142996706       -2.2469137238  MEMB      178             0.0000000000
     20753       178  SAPC      C216           18.6843668987      -36.5430938244       -1.7016096105  MEMB      178             0.0000000000
     20754       178  SAPC      H16R           17.9792969995      -36.8649495152       -0.9056147985  MEMB      178             0.0000000000
     20755       178  SAPC      H16S           18.2040173357      -35.6896313374       -2.2261928182  MEMB      178             0.0000000000
     20756       178  SAPC      C217           19.9583283193      -36.0575128821       -1.0774095132  MEMB      178             0.0000000000
     20757       178  SAPC      H17R           19.6566781531      -35.3514427290       -0.2744190571  MEMB      178             0.0000000000
     20758       178  SAPC      H17S           20.5448285187      -35.6145217481       -1.9105348675  MEMB      178             0.0000000000
     20759       178  SAPC      C218           20.9596738348      -37.0454055611       -0.3510255633  MEMB      178             0.0000000000
     20760       178  SAPC      H18R           21.3026521663      -37.8278751173       -1.0612570195  MEMB      178             0.0000000000
     20761       178  SAPC      H18S           20.6195916470      -37.5402262558        0.5837565197  MEMB      178             0.0000000000
     20762       178  SAPC      C219           22.2964266906      -36.3807741352        0.1508766571  MEMB      178             0.0000000000
     20763       178  SAPC      H19R           23.0407289578      -37.1808834812        0.3512767632  MEMB      178             0.0000000000
     20764       178  SAPC      H19S           22.1593781993      -35.8013547162        1.0888594168  MEMB      178             0.0000000000
     20765       178  SAPC      C220           23.1488118528      -35.4164201469       -0.7477741469  MEMB      178             0.0000000000
     20766       178  SAPC      H20R           22.5109956765      -34.6045373594       -1.1580899174  MEMB      178             0.0000000000
     20767       178  SAPC      H20S           23.6728137697      -36.0352904262       -1.5072108396  MEMB      178             0.0000000000
     20768       178  SAPC      H20T           23.9684073561      -34.9877035000       -0.1323189404  MEMB      178             0.0000000000
     20769       178  SAPC      C33            23.2516639839      -29.9910869535      -15.4294337876  MEMB      178             0.0000000000
     20770       178  SAPC      H3X            22.6759701261      -29.0757485645      -15.6844887661  MEMB      178             0.0000000000
     20771       178  SAPC      H3Y            24.0657272498      -29.5621568753      -14.8068253902  MEMB      178             0.0000000000
     20772       178  SAPC      C34            22.3285391695      -30.8906858084      -14.5668579660  MEMB      178             0.0000000000
     20773       178  SAPC      H4X            23.0106847993      -31.6607151388      -14.1472711115  MEMB      178             0.0000000000
     20774       178  SAPC      H4Y            21.6587393335      -31.4815821820      -15.2275629467  MEMB      178             0.0000000000
     20775       178  SAPC      C35            21.5392050932      -30.1802779363      -13.4235529337  MEMB      178             0.0000000000
     20776       178  SAPC      H5X            20.9536339027      -30.9448846789      -12.8696544024  MEMB      178             0.0000000000
     20777       178  SAPC      H5Y            20.7638122478      -29.5936939068      -13.9611459718  MEMB      178             0.0000000000
     20778       178  SAPC      C36            22.5002661261      -29.3177563236      -12.6017221157  MEMB      178             0.0000000000
     20779       178  SAPC      H6X            21.8933117043      -28.6837532654      -11.9205702713  MEMB      178             0.0000000000
     20780       178  SAPC      H6Y            23.0117297137      -28.5497504790      -13.2205057046  MEMB      178             0.0000000000
     20781       178  SAPC      C37            23.5260482314      -30.0455683827      -11.7913845914  MEMB      178             0.0000000000
     20782       178  SAPC      H7X            24.1552030179      -29.2841510245      -11.2827299629  MEMB      178             0.0000000000
     20783       178  SAPC      H7Y            24.2252816894      -30.6460571965      -12.4117122268  MEMB      178             0.0000000000
     20784       178  SAPC      C38            22.9686679515      -31.1450396179      -10.8324743223  MEMB      178             0.0000000000
     20785       178  SAPC      H8X            23.8293166104      -31.6419195393      -10.3357695637  MEMB      178             0.0000000000
     20786       178  SAPC      H8Y            22.4724246201      -32.0053806224      -11.3303467996  MEMB      178             0.0000000000
     20787       178  SAPC      C39            22.1441061001      -30.5343103836       -9.6992682006  MEMB      178             0.0000000000
     20788       178  SAPC      H9X            21.1332348329      -30.2351747411      -10.0499509016  MEMB      178             0.0000000000
     20789       178  SAPC      H9Y            22.6234162258      -29.5896824827       -9.3642149825  MEMB      178             0.0000000000
     20790       178  SAPC      C310           22.0952459270      -31.5867415283       -8.5963463449  MEMB      178             0.0000000000
     20791       178  SAPC      H10X           22.0595724975      -32.6094568388       -9.0288983611  MEMB      178             0.0000000000
     20792       178  SAPC      H10Y           21.2026148321      -31.4845694436       -7.9428239796  MEMB      178             0.0000000000
     20793       178  SAPC      C311           23.2580998642      -31.4290927363       -7.6376440325  MEMB      178             0.0000000000
     20794       178  SAPC      H11X           23.1684912526      -30.4854407901       -7.0581509401  MEMB      178             0.0000000000
     20795       178  SAPC      H11Y           24.2281642346      -31.4847914794       -8.1763407490  MEMB      178             0.0000000000
     20796       178  SAPC      C312           23.4084743025      -32.5711239560       -6.6409522246  MEMB      178             0.0000000000
     20797       178  SAPC      H12X           23.8584058924      -33.4073895876       -7.2176174404  MEMB      178             0.0000000000
     20798       178  SAPC      H12Y           22.4662988903      -32.9312322072       -6.1751754030  MEMB      178             0.0000000000
     20799       178  SAPC      C313           24.2820943441      -32.1530034446       -5.4779340758  MEMB      178             0.0000000000
     20800       178  SAPC      H13X           23.8227813341      -31.4361835409       -4.7641255648  MEMB      178             0.0000000000
     20801       178  SAPC      H13Y           25.0648440317      -31.5103100391       -5.9346271205  MEMB      178             0.0000000000
     20802       178  SAPC      C314           25.1199623941      -33.1169638834       -4.5928398381  MEMB      178             0.0000000000
     20803       178  SAPC      H14X           25.5957101829      -33.8304927631       -5.2991410639  MEMB      178             0.0000000000
     20804       178  SAPC      H14Y           24.5063032015      -33.7115504421       -3.8827617296  MEMB      178             0.0000000000
     20805       178  SAPC      C315           26.3317448642      -32.4771523124       -3.8700516274  MEMB      178             0.0000000000
     20806       178  SAPC      H15X           25.9346725880      -31.6307923016       -3.2697773801  MEMB      178             0.0000000000
     20807       178  SAPC      H15Y           26.9334158293      -32.0050988719       -4.6759528635  MEMB      178             0.0000000000
     20808       178  SAPC      C316           27.1178177368      -33.5444708232       -3.0453679377  MEMB      178             0.0000000000
     20809       178  SAPC      H16X           27.9454735683      -33.0491884114       -2.4940050917  MEMB      178             0.0000000000
     20810       178  SAPC      H16Y           27.5981962111      -34.2656087863       -3.7407223421  MEMB      178             0.0000000000
     20811       178  SAPC      C317           26.3414862705      -34.3262756215       -1.9955410112  MEMB      178             0.0000000000
     20812       178  SAPC      H17X           25.8465651137      -35.0544982376       -2.6730853331  MEMB      178             0.0000000000
     20813       178  SAPC      H17Y           25.7466320032      -33.6385046685       -1.3572303877  MEMB      178             0.0000000000
     20814       178  SAPC      C318           27.3776203721      -34.9182201958       -0.9281266264  MEMB      178             0.0000000000
     20815       178  SAPC      H18X           28.0878217256      -35.6154436116       -1.4219031766  MEMB      178             0.0000000000
     20816       178  SAPC      H18Y           26.8584987338      -35.4403211757       -0.0961151266  MEMB      178             0.0000000000
     20817       178  SAPC      H18Z           27.9379204944      -34.0504564545       -0.5190167142  MEMB      178             0.0000000000
     20818       179  OSM       N             -36.9757679433       14.3123268313      -21.3187283219  MEMB      179             0.0000000000
     20819       179  OSM       C15           -35.9908013104       13.2547077240      -20.8111492633  MEMB      179             0.0000000000
     20820       179  OSM       H15A          -35.3748875856       12.8001285428      -21.5729945013  MEMB      179             0.0000000000
     20821       179  OSM       H15B          -36.5092755852       12.5089818082      -20.2267889665  MEMB      179             0.0000000000
     20822       179  OSM       H15C          -35.3036494602       13.7815837294      -20.1656850956  MEMB      179             0.0000000000
     20823       179  OSM       C14           -38.1801017362       13.6892599115      -21.9271496394  MEMB      179             0.0000000000
     20824       179  OSM       H14A          -38.7983711275       14.4360486364      -22.4030169839  MEMB      179             0.0000000000
     20825       179  OSM       H14B          -38.7892889442       13.1742631871      -21.1990911827  MEMB      179             0.0000000000
     20826       179  OSM       H14C          -37.9717313943       12.9990487036      -22.7312579524  MEMB      179             0.0000000000
     20827       179  OSM       C13           -37.4946728560       14.9998632056      -20.0558848292  MEMB      179             0.0000000000
     20828       179  OSM       H13A          -36.7241077796       15.4410688682      -19.4410946397  MEMB      179             0.0000000000
     20829       179  OSM       H13B          -37.9177932473       14.1881279995      -19.4827745931  MEMB      179             0.0000000000
     20830       179  OSM       H13C          -38.1954391468       15.7680209731      -20.3478785563  MEMB      179             0.0000000000
     20831       179  OSM       C12           -36.2022043710       15.2556915067      -22.2486228756  MEMB      179             0.0000000000
     20832       179  OSM       H12A          -36.8914995022       16.0778655872      -22.3723240796  MEMB      179             0.0000000000
     20833       179  OSM       H12B          -36.2567877038       14.7617496347      -23.2074984481  MEMB      179             0.0000000000
     20834       179  OSM       C11           -34.8475131778       15.8731619482      -21.7764131347  MEMB      179             0.0000000000
     20835       179  OSM       H11A          -34.6118054551       16.5869584087      -22.5944947916  MEMB      179             0.0000000000
     20836       179  OSM       H11B          -34.0455163503       15.1292061363      -21.5823725824  MEMB      179             0.0000000000
     20837       179  OSM       P             -35.2514323821       18.2390946228      -20.6770599858  MEMB      179             0.0000000000
     20838       179  OSM       O13           -33.9221533915       18.9359929169      -20.8792096358  MEMB      179             0.0000000000
     20839       179  OSM       O14           -36.3653523041       18.5754319136      -21.5538504881  MEMB      179             0.0000000000
     20840       179  OSM       O11           -35.7955283195       18.4166135835      -19.1632760563  MEMB      179             0.0000000000
     20841       179  OSM       O12           -34.9498707111       16.6144488344      -20.5886557679  MEMB      179             0.0000000000
     20842       179  OSM       C1S           -35.0782781221       17.9304852886      -18.0370113469  MEMB      179             0.0000000000
     20843       179  OSM       H1S           -34.0280412158       18.2676030879      -18.1699590800  MEMB      179             0.0000000000
     20844       179  OSM       H1T           -34.9993095842       16.8222953504      -18.0371152074  MEMB      179             0.0000000000
     20845       179  OSM       NF            -34.8809725360       18.4079085080      -15.5633243594  MEMB      179             0.0000000000
     20846       179  OSM       HNF           -35.3611573984       17.7412779879      -14.9984923111  MEMB      179             0.0000000000
     20847       179  OSM       C2S           -35.7159988596       18.5901187842      -16.7546181417  MEMB      179             0.0000000000
     20848       179  OSM       H2S           -35.7571444876       19.6762601823      -16.9846728195  MEMB      179             0.0000000000
     20849       179  OSM       C3S           -37.1439257965       17.9237631804      -16.4991093995  MEMB      179             0.0000000000
     20850       179  OSM       H3S           -37.1369169135       16.8343750731      -16.7170667200  MEMB      179             0.0000000000
     20851       179  OSM       O3            -38.0245997737       18.4949033414      -17.5084986824  MEMB      179             0.0000000000
     20852       179  OSM       HO3           -37.6306688963       19.2034159464      -18.0227248255  MEMB      179             0.0000000000
     20853       179  OSM       C4S           -37.7460192356       18.2934109812      -15.1896896827  MEMB      179             0.0000000000
     20854       179  OSM       H4S           -37.9533797492       19.3502212314      -14.9657386715  MEMB      179             0.0000000000
     20855       179  OSM       C5S           -37.9575748276       17.4613314218      -14.1353948197  MEMB      179             0.0000000000
     20856       179  OSM       H5S           -37.6413632955       16.4133909238      -14.2441643047  MEMB      179             0.0000000000
     20857       179  OSM       C6S           -38.5377730774       17.8548271204      -12.8098806230  MEMB      179             0.0000000000
     20858       179  OSM       H6S           -39.6190503117       17.6545605129      -12.6515976493  MEMB      179             0.0000000000
     20859       179  OSM       H6T           -38.6115397861       18.9363666724      -12.5666698993  MEMB      179             0.0000000000
     20860       179  OSM       C7S           -37.7645897350       17.1691531074      -11.5995956036  MEMB      179             0.0000000000
     20861       179  OSM       H7S           -38.1969841480       17.5767906622      -10.6608799914  MEMB      179             0.0000000000
     20862       179  OSM       H7T           -36.6729882270       17.3756417068      -11.5901208679  MEMB      179             0.0000000000
     20863       179  OSM       C8S           -37.9192188909       15.6722248448      -11.5199589945  MEMB      179             0.0000000000
     20864       179  OSM       H8S           -37.3292373074       15.1088835158      -12.2742066598  MEMB      179             0.0000000000
     20865       179  OSM       H8T           -38.9420647742       15.3815217901      -11.8418264369  MEMB      179             0.0000000000
     20866       179  OSM       C9S           -37.6360089062       14.9427880823      -10.1762219172  MEMB      179             0.0000000000
     20867       179  OSM       H9S           -37.9360940243       13.8806205482      -10.0494558932  MEMB      179             0.0000000000
     20868       179  OSM       H9T           -38.2611707562       15.5569786289       -9.4933868717  MEMB      179             0.0000000000
     20869       179  OSM       C10S          -36.1757834184       15.2968924674       -9.7277189502  MEMB      179             0.0000000000
     20870       179  OSM       H10S          -36.3097038445       16.0582268785       -8.9297492810  MEMB      179             0.0000000000
     20871       179  OSM       H10T          -35.6487031522       15.6672056746      -10.6329124076  MEMB      179             0.0000000000
     20872       179  OSM       C11S          -35.3651057015       14.2091580672       -9.0880642904  MEMB      179             0.0000000000
     20873       179  OSM       H11S          -35.1104401564       13.4682891157       -9.8758335634  MEMB      179             0.0000000000
     20874       179  OSM       H11T          -35.9906949303       13.7569210142       -8.2890395241  MEMB      179             0.0000000000
     20875       179  OSM       C12S          -33.9950811099       14.5238006804       -8.4313990584  MEMB      179             0.0000000000
     20876       179  OSM       H12S          -33.3995357001       15.2368810596       -9.0406302387  MEMB      179             0.0000000000
     20877       179  OSM       H12T          -33.4434577732       13.5594533007       -8.4395816189  MEMB      179             0.0000000000
     20878       179  OSM       C13S          -34.3564046949       15.0300606818       -7.0510877743  MEMB      179             0.0000000000
     20879       179  OSM       H13S          -34.9586801420       14.2445308973       -6.5465806946  MEMB      179             0.0000000000
     20880       179  OSM       H13T          -34.9767796730       15.9490032710       -7.1218024560  MEMB      179             0.0000000000
     20881       179  OSM       C14S          -33.1831197686       15.3806335570       -6.1187902164  MEMB      179             0.0000000000
     20882       179  OSM       H14S          -33.6366651862       15.9424272531       -5.2743940207  MEMB      179             0.0000000000
     20883       179  OSM       H14T          -32.5539387925       16.1209371920       -6.6576803836  MEMB      179             0.0000000000
     20884       179  OSM       C15S          -32.4570575382       14.1567177822       -5.7044768654  MEMB      179             0.0000000000
     20885       179  OSM       H15S          -32.1668352165       13.5571129129       -6.5936150362  MEMB      179             0.0000000000
     20886       179  OSM       H15T          -33.1372673199       13.5929533396       -5.0308261610  MEMB      179             0.0000000000
     20887       179  OSM       C16S          -31.1533406543       14.4875369297       -5.0335240239  MEMB      179             0.0000000000
     20888       179  OSM       H16S          -30.4213751147       14.8341127013       -5.7940722624  MEMB      179             0.0000000000
     20889       179  OSM       H16T          -30.6600410059       13.5254805217       -4.7777425776  MEMB      179             0.0000000000
     20890       179  OSM       C17S          -31.1867268723       15.4316646987       -3.8487982801  MEMB      179             0.0000000000
     20891       179  OSM       H17S          -32.2425496772       15.6291709851       -3.5649843453  MEMB      179             0.0000000000
     20892       179  OSM       H17T          -30.8752911033       16.3992493685       -4.2972488953  MEMB      179             0.0000000000
     20893       179  OSM       C18S          -30.3440368090       15.0429807244       -2.6543531198  MEMB      179             0.0000000000
     20894       179  OSM       H18S          -30.5293677984       14.0173962436       -2.2694508296  MEMB      179             0.0000000000
     20895       179  OSM       H18T          -30.6298088330       15.6079195097       -1.7413917755  MEMB      179             0.0000000000
     20896       179  OSM       H18U          -29.2770736894       15.2199211907       -2.9085235421  MEMB      179             0.0000000000
     20897       179  OSM       C1F           -33.6560177379       18.8529182866      -15.4743049810  MEMB      179             0.0000000000
     20898       179  OSM       OF            -33.1927393534       19.7968532722      -16.1510042104  MEMB      179             0.0000000000
     20899       179  OSM       C2F           -32.8206179138       18.0413022085      -14.5485258755  MEMB      179             0.0000000000
     20900       179  OSM       H2F           -32.0159629651       17.6217380926      -15.1894760851  MEMB      179             0.0000000000
     20901       179  OSM       H2G           -33.3869633447       17.2162835502      -14.0659098626  MEMB      179             0.0000000000
     20902       179  OSM       C3F           -32.2307129455       18.9781879952      -13.4909578876  MEMB      179             0.0000000000
     20903       179  OSM       H3F           -33.0191944496       19.4309327115      -12.8524903534  MEMB      179             0.0000000000
     20904       179  OSM       H3G           -31.5761084433       19.7659364380      -13.9213834331  MEMB      179             0.0000000000
     20905       179  OSM       C4F           -31.2717072409       18.2779852944      -12.5130067162  MEMB      179             0.0000000000
     20906       179  OSM       H4F           -30.3871897208       17.9067456003      -13.0734805298  MEMB      179             0.0000000000
     20907       179  OSM       H4G           -31.7330540959       17.3771287578      -12.0548175450  MEMB      179             0.0000000000
     20908       179  OSM       C5F           -30.7305412839       19.0820145975      -11.3922641350  MEMB      179             0.0000000000
     20909       179  OSM       H5F           -30.1092398226       19.9605383453      -11.6688535017  MEMB      179             0.0000000000
     20910       179  OSM       H5G           -30.0366506924       18.4435457738      -10.8047321930  MEMB      179             0.0000000000
     20911       179  OSM       C6F           -31.8159098142       19.4539718114      -10.3485610677  MEMB      179             0.0000000000
     20912       179  OSM       H6F           -32.4140517859       18.5866259762       -9.9960581925  MEMB      179             0.0000000000
     20913       179  OSM       H6G           -32.4927567017       20.1904662706      -10.8320638679  MEMB      179             0.0000000000
     20914       179  OSM       C7F           -31.0748087598       20.2682660317       -9.2900088202  MEMB      179             0.0000000000
     20915       179  OSM       H7F           -30.3874342085       20.9055414592       -9.8864289660  MEMB      179             0.0000000000
     20916       179  OSM       H7G           -30.5089313139       19.5821043358       -8.6242111217  MEMB      179             0.0000000000
     20917       179  OSM       C8F           -32.0378536107       21.0884095962       -8.4085859526  MEMB      179             0.0000000000
     20918       179  OSM       H8F           -32.8144290759       21.3275830207       -9.1662450870  MEMB      179             0.0000000000
     20919       179  OSM       H8G           -31.5797790254       21.9982194151       -7.9650380174  MEMB      179             0.0000000000
     20920       179  OSM       C9F           -32.5473784861       20.2536395447       -7.2582100827  MEMB      179             0.0000000000
     20921       179  OSM       H9F           -32.0215766641       20.4472216664       -6.3116069038  MEMB      179             0.0000000000
     20922       179  OSM       C10F          -33.5959302722       19.3918209318       -7.1638617625  MEMB      179             0.0000000000
     20923       179  OSM       H10F          -33.6904664268       19.0343845682       -6.1278589639  MEMB      179             0.0000000000
     20924       179  OSM       C11F          -34.6596171006       19.0026678861       -8.1326156701  MEMB      179             0.0000000000
     20925       179  OSM       H11F          -34.6022600594       17.9125743672       -8.3393214057  MEMB      179             0.0000000000
     20926       179  OSM       H11G          -34.4435486303       19.5424363267       -9.0793393397  MEMB      179             0.0000000000
     20927       179  OSM       C12F          -36.0162282818       19.4982149726       -7.6944301206  MEMB      179             0.0000000000
     20928       179  OSM       H12F          -36.6420622756       19.4788232354       -8.6121864790  MEMB      179             0.0000000000
     20929       179  OSM       H12G          -35.9788451908       20.5337544494       -7.2937047923  MEMB      179             0.0000000000
     20930       179  OSM       C13F          -36.6575306628       18.5977857086       -6.6373149912  MEMB      179             0.0000000000
     20931       179  OSM       H13F          -36.0114211907       18.4721169361       -5.7422885123  MEMB      179             0.0000000000
     20932       179  OSM       H13G          -36.9084295369       17.6251408782       -7.1120065050  MEMB      179             0.0000000000
     20933       179  OSM       C14F          -38.0150641238       19.1337220705       -6.1576379822  MEMB      179             0.0000000000
     20934       179  OSM       H14F          -38.5292572083       18.2661456437       -5.6915501452  MEMB      179             0.0000000000
     20935       179  OSM       H14G          -38.6021214401       19.3782392023       -7.0686243651  MEMB      179             0.0000000000
     20936       179  OSM       C15F          -38.0178772939       20.4233566587       -5.3211831594  MEMB      179             0.0000000000
     20937       179  OSM       H15F          -39.0255283483       20.8906901320       -5.2975218608  MEMB      179             0.0000000000
     20938       179  OSM       H15G          -37.4383592706       21.1993029555       -5.8655985496  MEMB      179             0.0000000000
     20939       179  OSM       C16F          -37.3262999158       20.1462041717       -3.9669740517  MEMB      179             0.0000000000
     20940       179  OSM       H16F          -37.2433786918       21.0932029986       -3.3919621345  MEMB      179             0.0000000000
     20941       179  OSM       H16G          -36.2682986668       19.8172678527       -4.0491651389  MEMB      179             0.0000000000
     20942       179  OSM       C17F          -37.9470036048       19.1210342000       -3.0115569733  MEMB      179             0.0000000000
     20943       179  OSM       H17F          -37.2975394575       19.2168312111       -2.1152639755  MEMB      179             0.0000000000
     20944       179  OSM       H17G          -37.8739896798       18.1558051889       -3.5568297342  MEMB      179             0.0000000000
     20945       179  OSM       C18F          -39.3709913007       19.4176044575       -2.5363847508  MEMB      179             0.0000000000
     20946       179  OSM       H18F          -39.5735755215       20.4353575074       -2.1395745989  MEMB      179             0.0000000000
     20947       179  OSM       H18G          -39.6616533022       18.6739825071       -1.7638162265  MEMB      179             0.0000000000
     20948       179  OSM       H18H          -40.0308035746       19.2717482732       -3.4182544893  MEMB      179             0.0000000000
     20949       180  SAPS      N             -28.3782727788      -27.0263172040      -22.3780370553  MEMB      180             0.0000000000
     20950       180  SAPS      HN1           -28.9936618019      -27.2094296123      -23.1961850593  MEMB      180             0.0000000000
     20951       180  SAPS      HN2           -27.5666529537      -26.4540661190      -22.6869091047  MEMB      180             0.0000000000
     20952       180  SAPS      HN3           -27.9990924650      -27.9105985144      -21.9832344604  MEMB      180             0.0000000000
     20953       180  SAPS      C12           -29.0827588190      -26.2957536974      -21.2455491989  MEMB      180             0.0000000000
     20954       180  SAPS      H12A          -28.3240491032      -26.3424555223      -20.4783605488  MEMB      180             0.0000000000
     20955       180  SAPS      C13           -29.6371161990      -24.9577865183      -21.6206793652  MEMB      180             0.0000000000
     20956       180  SAPS      O13A          -29.5237905124      -24.5682254846      -22.8012011469  MEMB      180             0.0000000000
     20957       180  SAPS      O13B          -30.3123673881      -24.4181000933      -20.7206655465  MEMB      180             0.0000000000
     20958       180  SAPS      C11           -30.0848170480      -27.2708201297      -20.6496176958  MEMB      180             0.0000000000
     20959       180  SAPS      H11A          -29.7301810410      -28.3233484003      -20.6767942836  MEMB      180             0.0000000000
     20960       180  SAPS      H11B          -31.0535118713      -27.2366440971      -21.1925571540  MEMB      180             0.0000000000
     20961       180  SAPS      P             -29.7836124009      -27.4826672380      -18.0293813423  MEMB      180             0.0000000000
     20962       180  SAPS      O13           -29.5021129947      -26.4898898093      -16.8892740086  MEMB      180             0.0000000000
     20963       180  SAPS      O14           -30.5650196129      -28.7213853610      -17.7790023191  MEMB      180             0.0000000000
     20964       180  SAPS      O12           -30.3954231249      -26.8037859012      -19.3645249910  MEMB      180             0.0000000000
     20965       180  SAPS      O11           -28.3424893614      -27.8364723600      -18.5220673464  MEMB      180             0.0000000000
     20966       180  SAPS      C1            -27.9012275231      -29.2163850587      -18.5491008041  MEMB      180             0.0000000000
     20967       180  SAPS      HA            -28.6587325166      -29.9880062419      -18.8042638304  MEMB      180             0.0000000000
     20968       180  SAPS      HB            -27.1672293460      -29.3733078087      -19.3682119183  MEMB      180             0.0000000000
     20969       180  SAPS      C2            -27.2264506375      -29.6190252145      -17.2444730154  MEMB      180             0.0000000000
     20970       180  SAPS      HS            -26.6633502318      -30.5594746112      -17.4255642625  MEMB      180             0.0000000000
     20971       180  SAPS      O21           -28.2024974524      -29.8532222210      -16.2934516651  MEMB      180             0.0000000000
     20972       180  SAPS      C21           -27.9402836958      -30.3417460980      -15.1557102800  MEMB      180             0.0000000000
     20973       180  SAPS      O22           -26.8986862112      -30.7631304882      -14.7571836392  MEMB      180             0.0000000000
     20974       180  SAPS      C22           -29.1751406018      -30.2839806380      -14.2793213787  MEMB      180             0.0000000000
     20975       180  SAPS      H2R           -30.1371806379      -30.2446112022      -14.8336222739  MEMB      180             0.0000000000
     20976       180  SAPS      H2S           -29.1309282549      -31.2554055462      -13.7420136210  MEMB      180             0.0000000000
     20977       180  SAPS      C3            -26.1417892490      -28.6587639312      -16.6505225476  MEMB      180             0.0000000000
     20978       180  SAPS      HX            -25.3116025393      -28.5254030250      -17.3766945989  MEMB      180             0.0000000000
     20979       180  SAPS      HY            -25.6000792131      -29.0206193578      -15.7505602782  MEMB      180             0.0000000000
     20980       180  SAPS      O31           -26.7413645002      -27.4463039980      -16.2347283317  MEMB      180             0.0000000000
     20981       180  SAPS      C31           -26.0659672939      -26.3654556738      -16.1610123064  MEMB      180             0.0000000000
     20982       180  SAPS      O32           -24.9304012911      -26.1545187890      -16.6685206535  MEMB      180             0.0000000000
     20983       180  SAPS      C32           -27.0398730447      -25.3050972482      -15.5382225400  MEMB      180             0.0000000000
     20984       180  SAPS      H2X           -27.8467952178      -25.8577208939      -15.0111506287  MEMB      180             0.0000000000
     20985       180  SAPS      H2Y           -27.4833678544      -24.6541664456      -16.3217546532  MEMB      180             0.0000000000
     20986       180  SAPS      C23           -28.9567920295      -29.2151398910      -13.2647259626  MEMB      180             0.0000000000
     20987       180  SAPS      H3R           -28.5624532428      -28.2989015005      -13.7539348566  MEMB      180             0.0000000000
     20988       180  SAPS      H3S           -28.2435199439      -29.5127968616      -12.4666255618  MEMB      180             0.0000000000
     20989       180  SAPS      C24           -30.3268420688      -28.9116646038      -12.4775277309  MEMB      180             0.0000000000
     20990       180  SAPS      H4R           -30.7575651621      -29.8902501929      -12.1755866149  MEMB      180             0.0000000000
     20991       180  SAPS      H4S           -30.9781517977      -28.3371101891      -13.1703508532  MEMB      180             0.0000000000
     20992       180  SAPS      C25           -30.1002523131      -28.0661124579      -11.2466386277  MEMB      180             0.0000000000
     20993       180  SAPS      H5R           -29.6828203793      -27.0675441741      -11.4431374130  MEMB      180             0.0000000000
     20994       180  SAPS      C26           -30.1974767570      -28.5399607689       -9.9778220111  MEMB      180             0.0000000000
     20995       180  SAPS      H6R           -30.1926770824      -27.7812037055       -9.1814146012  MEMB      180             0.0000000000
     20996       180  SAPS      C27           -30.4803468405      -29.8808170429       -9.5041878445  MEMB      180             0.0000000000
     20997       180  SAPS      H7R           -29.8126443692      -30.0301391585       -8.6288612439  MEMB      180             0.0000000000
     20998       180  SAPS      H7S           -30.0984580871      -30.6415028703      -10.2182183267  MEMB      180             0.0000000000
     20999       180  SAPS      C28           -31.8629321904      -30.4859099159       -9.3066339081  MEMB      180             0.0000000000
     21000       180  SAPS      H8R           -32.5443525700      -30.1634986329      -10.1077069428  MEMB      180             0.0000000000
     21001       180  SAPS      C29           -32.3003776773      -31.2345826436       -8.2703610525  MEMB      180             0.0000000000
     21002       180  SAPS      H9R           -33.3424116578      -31.5792633214       -8.3435773361  MEMB      180             0.0000000000
     21003       180  SAPS      C210          -31.5120761249      -31.6588036323       -7.0291214383  MEMB      180             0.0000000000
     21004       180  SAPS      H10R          -31.9499716531      -31.0274562562       -6.2266449946  MEMB      180             0.0000000000
     21005       180  SAPS      H10S          -30.4555291432      -31.3152496711       -7.0296882561  MEMB      180             0.0000000000
     21006       180  SAPS      C211          -31.4725594570      -33.1166059514       -6.6976017672  MEMB      180             0.0000000000
     21007       180  SAPS      H11R          -30.8727963525      -33.7932260039       -7.3240759898  MEMB      180             0.0000000000
     21008       180  SAPS      C212          -31.9150597833      -33.6855801252       -5.5225716279  MEMB      180             0.0000000000
     21009       180  SAPS      H12R          -31.9534131872      -34.7829680304       -5.4572350031  MEMB      180             0.0000000000
     21010       180  SAPS      C213          -32.5551621535      -33.0153787420       -4.2922647061  MEMB      180             0.0000000000
     21011       180  SAPS      H13R          -33.6547532867      -33.1638304996       -4.3486810992  MEMB      180             0.0000000000
     21012       180  SAPS      H13S          -32.3091845243      -31.9322030901       -4.3156189660  MEMB      180             0.0000000000
     21013       180  SAPS      C214          -32.3803009460      -33.7954103278       -2.9997523015  MEMB      180             0.0000000000
     21014       180  SAPS      H14R          -31.8538256721      -34.7518612878       -3.1340092016  MEMB      180             0.0000000000
     21015       180  SAPS      C215          -32.6811980493      -33.3642419132       -1.7587274836  MEMB      180             0.0000000000
     21016       180  SAPS      H15R          -32.5463171777      -34.0650075864       -0.9216277213  MEMB      180             0.0000000000
     21017       180  SAPS      C216          -33.2853963794      -31.9912517637       -1.4319776919  MEMB      180             0.0000000000
     21018       180  SAPS      H16R          -33.8790997899      -32.0815811603       -0.4972695218  MEMB      180             0.0000000000
     21019       180  SAPS      H16S          -34.0036079416      -31.6170562626       -2.1925500882  MEMB      180             0.0000000000
     21020       180  SAPS      C217          -32.2201410557      -31.0158586728       -0.9966330599  MEMB      180             0.0000000000
     21021       180  SAPS      H17R          -31.3940398461      -31.0192589498       -1.7395103379  MEMB      180             0.0000000000
     21022       180  SAPS      H17S          -31.7218938571      -31.2694446847       -0.0365479365  MEMB      180             0.0000000000
     21023       180  SAPS      C218          -32.7241706624      -29.5559794988       -0.8771071991  MEMB      180             0.0000000000
     21024       180  SAPS      H18R          -32.0022265720      -28.9544262530       -0.2844433756  MEMB      180             0.0000000000
     21025       180  SAPS      H18S          -33.5218774744      -29.5613724244       -0.1038324545  MEMB      180             0.0000000000
     21026       180  SAPS      C219          -33.1607146144      -28.9550587542       -2.2229186915  MEMB      180             0.0000000000
     21027       180  SAPS      H19R          -33.9999682583      -29.5463222677       -2.6476328052  MEMB      180             0.0000000000
     21028       180  SAPS      H19S          -32.3221292830      -28.9576013186       -2.9516766228  MEMB      180             0.0000000000
     21029       180  SAPS      C220          -33.5985573755      -27.5318507419       -2.1730045354  MEMB      180             0.0000000000
     21030       180  SAPS      H20R          -32.7864897359      -26.7754126079       -2.1213487487  MEMB      180             0.0000000000
     21031       180  SAPS      H20S          -34.1764905279      -27.2569601970       -1.2648473928  MEMB      180             0.0000000000
     21032       180  SAPS      H20T          -34.2124174531      -27.1998896014       -3.0374683093  MEMB      180             0.0000000000
     21033       180  SAPS      C33           -26.2216693522      -24.4812137017      -14.5504211742  MEMB      180             0.0000000000
     21034       180  SAPS      H3X           -25.4458808481      -23.9613605441      -15.1522733983  MEMB      180             0.0000000000
     21035       180  SAPS      H3Y           -25.7887045305      -25.1967777988      -13.8191005829  MEMB      180             0.0000000000
     21036       180  SAPS      C34           -27.0806577985      -23.4054543212      -13.8657926780  MEMB      180             0.0000000000
     21037       180  SAPS      H4X           -27.7813678566      -22.9295656728      -14.5847201912  MEMB      180             0.0000000000
     21038       180  SAPS      H4Y           -26.3999911892      -22.6066047240      -13.5013027123  MEMB      180             0.0000000000
     21039       180  SAPS      C35           -27.7843503617      -23.9429349367      -12.7692092573  MEMB      180             0.0000000000
     21040       180  SAPS      H5X           -27.1143406150      -24.2413976769      -11.9347465212  MEMB      180             0.0000000000
     21041       180  SAPS      H5Y           -28.3594454526      -24.8471789413      -13.0623459658  MEMB      180             0.0000000000
     21042       180  SAPS      C36           -28.7888775943      -22.8922231795      -12.2920408420  MEMB      180             0.0000000000
     21043       180  SAPS      H6X           -29.1706302502      -22.3784940997      -13.2001538352  MEMB      180             0.0000000000
     21044       180  SAPS      H6Y           -28.2031853694      -22.1869513436      -11.6644448121  MEMB      180             0.0000000000
     21045       180  SAPS      C37           -29.9183849256      -23.4816773134      -11.3560599649  MEMB      180             0.0000000000
     21046       180  SAPS      H7X           -30.4612459442      -24.1954280952      -12.0119433658  MEMB      180             0.0000000000
     21047       180  SAPS      H7Y           -30.6705838770      -22.7194583166      -11.0601883978  MEMB      180             0.0000000000
     21048       180  SAPS      C38           -29.4166759939      -24.3760715543      -10.1704998709  MEMB      180             0.0000000000
     21049       180  SAPS      H8X           -28.9093397964      -25.2726044491      -10.5866245388  MEMB      180             0.0000000000
     21050       180  SAPS      H8Y           -30.3279678063      -24.6884406873       -9.6170627697  MEMB      180             0.0000000000
     21051       180  SAPS      C39           -28.4984627909      -23.6468515707       -9.1904276674  MEMB      180             0.0000000000
     21052       180  SAPS      H9X           -28.9176219588      -22.7710561432       -8.6504201447  MEMB      180             0.0000000000
     21053       180  SAPS      H9Y           -27.7038403911      -23.3398186227       -9.9036083707  MEMB      180             0.0000000000
     21054       180  SAPS      C310          -27.8650814093      -24.5995294690       -8.1654742299  MEMB      180             0.0000000000
     21055       180  SAPS      H10X          -27.0364448275      -24.1133988378       -7.6074783591  MEMB      180             0.0000000000
     21056       180  SAPS      H10Y          -27.5114718570      -25.4982043081       -8.7147143256  MEMB      180             0.0000000000
     21057       180  SAPS      C311          -28.8150729421      -24.9924064098       -6.9780973072  MEMB      180             0.0000000000
     21058       180  SAPS      H11X          -29.7467444167      -25.5273157678       -7.2612597486  MEMB      180             0.0000000000
     21059       180  SAPS      H11Y          -29.1553819299      -24.0497992177       -6.4985112388  MEMB      180             0.0000000000
     21060       180  SAPS      C312          -28.2173293564      -25.9236011355       -5.9685910812  MEMB      180             0.0000000000
     21061       180  SAPS      H12X          -27.1796437201      -25.5702562685       -5.7878242283  MEMB      180             0.0000000000
     21062       180  SAPS      H12Y          -28.0575547520      -26.9223634371       -6.4282284808  MEMB      180             0.0000000000
     21063       180  SAPS      C313          -29.0870035674      -26.0788615073       -4.7350972906  MEMB      180             0.0000000000
     21064       180  SAPS      H13X          -29.9244184972      -26.7596769536       -4.9988162697  MEMB      180             0.0000000000
     21065       180  SAPS      H13Y          -29.6837032694      -25.2175254868       -4.3658130154  MEMB      180             0.0000000000
     21066       180  SAPS      C314          -28.4003237629      -26.6916057318       -3.4488135064  MEMB      180             0.0000000000
     21067       180  SAPS      H14X          -27.4852242188      -26.1183525832       -3.1874809425  MEMB      180             0.0000000000
     21068       180  SAPS      H14Y          -27.9053749534      -27.6598053255       -3.6767082879  MEMB      180             0.0000000000
     21069       180  SAPS      C315          -29.2031024209      -26.7411588841       -2.1318916181  MEMB      180             0.0000000000
     21070       180  SAPS      H15X          -30.2034122973      -27.1151976226       -2.4381530359  MEMB      180             0.0000000000
     21071       180  SAPS      H15Y          -29.1705084491      -25.7776081564       -1.5797783024  MEMB      180             0.0000000000
     21072       180  SAPS      C316          -28.5538644182      -27.7749320301       -1.1389076491  MEMB      180             0.0000000000
     21073       180  SAPS      H16X          -28.8890197088      -27.5275203201       -0.1089663013  MEMB      180             0.0000000000
     21074       180  SAPS      H16Y          -27.4607619186      -27.6133369682       -1.2543862260  MEMB      180             0.0000000000
     21075       180  SAPS      C317          -28.8398741150      -29.3026171190       -1.3491005806  MEMB      180             0.0000000000
     21076       180  SAPS      H17X          -28.3109523402      -29.6303383401       -2.2695136620  MEMB      180             0.0000000000
     21077       180  SAPS      H17Y          -29.8793397486      -29.3825327688       -1.7330869874  MEMB      180             0.0000000000
     21078       180  SAPS      C318          -28.3612108343      -30.4171664027       -0.2648833439  MEMB      180             0.0000000000
     21079       180  SAPS      H18X          -28.8049869992      -30.1743079922        0.7242579746  MEMB      180             0.0000000000
     21080       180  SAPS      H18Y          -27.2549514259      -30.5192828751       -0.2740296586  MEMB      180             0.0000000000
     21081       180  SAPS      H18Z          -28.8971334245      -31.3558594821       -0.5217167917  MEMB      180             0.0000000000
     21082       181  CHL1      C3            -25.3954562248       31.3232081989      -17.4167150000  MEMB      181             0.0000000000
     21083       181  CHL1      H3            -25.9783410554       32.2095940938      -17.7466850000  MEMB      181             0.0000000000
     21084       181  CHL1      O3            -25.0390923752       30.6281816011      -18.5832850000  MEMB      181             0.0000000000
     21085       181  CHL1      H3'           -25.8850131851       30.4176380288      -18.9853950000  MEMB      181             0.0000000000
     21086       181  CHL1      C4            -24.1040782647       31.6316116762      -16.6827050000  MEMB      181             0.0000000000
     21087       181  CHL1      H4A           -23.5809511049       30.6523723916      -16.7245050000  MEMB      181             0.0000000000
     21088       181  CHL1      H4B           -23.4969490220       32.2283098169      -17.3966050000  MEMB      181             0.0000000000
     21089       181  CHL1      C5            -24.2235753108       32.2813881172      -15.3039350000  MEMB      181             0.0000000000
     21090       181  CHL1      C6            -23.6697145187       33.4376025607      -14.9231650000  MEMB      181             0.0000000000
     21091       181  CHL1      H6            -23.1022091247       34.0690668043      -15.6225850000  MEMB      181             0.0000000000
     21092       181  CHL1      C7            -23.8291987972       33.9826768539      -13.5967750000  MEMB      181             0.0000000000
     21093       181  CHL1      H7A           -22.9072641962       34.5236518492      -13.2939750000  MEMB      181             0.0000000000
     21094       181  CHL1      H7B           -24.6614888296       34.7185944406      -13.5896750000  MEMB      181             0.0000000000
     21095       181  CHL1      C8            -24.2831548799       32.8848440989      -12.5544850000  MEMB      181             0.0000000000
     21096       181  CHL1      H8            -23.4415743130       32.1764395595      -12.3988450000  MEMB      181             0.0000000000
     21097       181  CHL1      C14           -24.5962509778       33.5713175825      -11.2263850000  MEMB      181             0.0000000000
     21098       181  CHL1      H14           -25.5341889010       34.1512506761      -11.3615850000  MEMB      181             0.0000000000
     21099       181  CHL1      C15           -23.5498261312       34.5172738864      -10.6544550000  MEMB      181             0.0000000000
     21100       181  CHL1      H15A          -22.5592471303       34.0408535308      -10.8159350000  MEMB      181             0.0000000000
     21101       181  CHL1      H15B          -23.7145102646       35.5457324194      -11.0410950000  MEMB      181             0.0000000000
     21102       181  CHL1      C16           -23.8935071704       34.5009351525       -9.1351350000  MEMB      181             0.0000000000
     21103       181  CHL1      H16A          -23.0576801322       34.0688435742       -8.5443550000  MEMB      181             0.0000000000
     21104       181  CHL1      H16B          -24.1730181323       35.4932010791       -8.7208650000  MEMB      181             0.0000000000
     21105       181  CHL1      C17           -25.1419684975       33.5688321918       -8.8824850000  MEMB      181             0.0000000000
     21106       181  CHL1      H17           -26.1228194450       34.0906183977       -8.8817350000  MEMB      181             0.0000000000
     21107       181  CHL1      C13           -25.0863084921       32.6134674205      -10.1710750000  MEMB      181             0.0000000000
     21108       181  CHL1      C18           -23.9996860686       31.5334255948       -9.8895950000  MEMB      181             0.0000000000
     21109       181  CHL1      H18A          -24.3193036839       30.6809769035       -9.2528050000  MEMB      181             0.0000000000
     21110       181  CHL1      H18B          -23.6520357442       31.0164592446      -10.8094850000  MEMB      181             0.0000000000
     21111       181  CHL1      H18C          -23.0582516386       31.8887035466       -9.4186350000  MEMB      181             0.0000000000
     21112       181  CHL1      C12           -26.4013602178       31.9863567319      -10.6199450000  MEMB      181             0.0000000000
     21113       181  CHL1      H12A          -26.8239763880       31.2092425538       -9.9477750000  MEMB      181             0.0000000000
     21114       181  CHL1      H12B          -27.1182820332       32.8336789759      -10.6688550000  MEMB      181             0.0000000000
     21115       181  CHL1      C11           -26.2716735718       31.2526884483      -11.9318450000  MEMB      181             0.0000000000
     21116       181  CHL1      H11A          -25.7531024895       30.2805255297      -11.7893450000  MEMB      181             0.0000000000
     21117       181  CHL1      H11B          -27.3171952211       31.1247454494      -12.2851650000  MEMB      181             0.0000000000
     21118       181  CHL1      C9            -25.4538849824       32.0514743122      -13.0749450000  MEMB      181             0.0000000000
     21119       181  CHL1      H9            -26.1689407755       32.8447598866      -13.3810650000  MEMB      181             0.0000000000
     21120       181  CHL1      C10           -25.1012383876       31.3185777827      -14.4350450000  MEMB      181             0.0000000000
     21121       181  CHL1      C19           -24.4248816026       30.0091460650      -14.1422650000  MEMB      181             0.0000000000
     21122       181  CHL1      H19A          -23.9711114295       29.5590087130      -15.0509850000  MEMB      181             0.0000000000
     21123       181  CHL1      H19B          -23.7071588251       30.1204833831      -13.3015450000  MEMB      181             0.0000000000
     21124       181  CHL1      H19C          -25.0898264604       29.2466083104      -13.6832350000  MEMB      181             0.0000000000
     21125       181  CHL1      C1            -26.4145822341       30.9915478127      -15.1804250000  MEMB      181             0.0000000000
     21126       181  CHL1      H1A           -27.0207590137       30.3862501305      -14.4729850000  MEMB      181             0.0000000000
     21127       181  CHL1      H1B           -26.8729959214       31.9884111994      -15.3549350000  MEMB      181             0.0000000000
     21128       181  CHL1      C2            -26.3415846914       30.3774725003      -16.5937150000  MEMB      181             0.0000000000
     21129       181  CHL1      H2A           -27.2725555648       30.2931066725      -17.1941250000  MEMB      181             0.0000000000
     21130       181  CHL1      H2B           -25.8864890316       29.3679310541      -16.5040050000  MEMB      181             0.0000000000
     21131       181  CHL1      C20           -25.0405326458       32.8206080461       -7.4719750000  MEMB      181             0.0000000000
     21132       181  CHL1      H20           -24.0273637734       32.3655388195       -7.4451550000  MEMB      181             0.0000000000
     21133       181  CHL1      C21           -26.1667367864       31.8083359466       -7.2395750000  MEMB      181             0.0000000000
     21134       181  CHL1      H21A          -26.2240831833       31.2709940162       -6.2688550000  MEMB      181             0.0000000000
     21135       181  CHL1      H21B          -26.0495340416       31.0348005310       -8.0283950000  MEMB      181             0.0000000000
     21136       181  CHL1      H21C          -27.1315483941       32.3573780451       -7.2844450000  MEMB      181             0.0000000000
     21137       181  CHL1      C22           -25.0173852084       33.8753891857       -6.2342150000  MEMB      181             0.0000000000
     21138       181  CHL1      H22A          -24.4960498799       34.8291957675       -6.4639650000  MEMB      181             0.0000000000
     21139       181  CHL1      H22B          -26.0917142326       34.0296080948       -5.9968550000  MEMB      181             0.0000000000
     21140       181  CHL1      C23           -24.3337450372       33.3720610210       -4.9197250000  MEMB      181             0.0000000000
     21141       181  CHL1      H23A          -24.8886192656       32.4520239994       -4.6369650000  MEMB      181             0.0000000000
     21142       181  CHL1      H23B          -23.2590268146       33.2511427940       -5.1740350000  MEMB      181             0.0000000000
     21143       181  CHL1      C24           -24.4792970973       34.4322336861       -3.7162950000  MEMB      181             0.0000000000
     21144       181  CHL1      H24A          -23.8254399741       34.0026611915       -2.9274550000  MEMB      181             0.0000000000
     21145       181  CHL1      H24B          -24.0032877121       35.3277439751       -4.1699650000  MEMB      181             0.0000000000
     21146       181  CHL1      C25           -25.8949865785       34.7059673681       -3.2448250000  MEMB      181             0.0000000000
     21147       181  CHL1      H25           -26.5431050158       34.9773232748       -4.1054350000  MEMB      181             0.0000000000
     21148       181  CHL1      C26           -26.4834819673       33.4807277357       -2.3931850000  MEMB      181             0.0000000000
     21149       181  CHL1      H26A          -25.9028258988       33.1534456125       -1.5043350000  MEMB      181             0.0000000000
     21150       181  CHL1      H26B          -27.4063123379       33.8321902285       -1.8840850000  MEMB      181             0.0000000000
     21151       181  CHL1      H26C          -26.6595122720       32.5156708687       -2.9147250000  MEMB      181             0.0000000000
     21152       181  CHL1      C27           -25.7291536076       35.8177168368       -2.2151650000  MEMB      181             0.0000000000
     21153       181  CHL1      H27A          -26.6911841858       35.9269590492       -1.6703050000  MEMB      181             0.0000000000
     21154       181  CHL1      H27B          -24.8924661789       35.6964674576       -1.4943450000  MEMB      181             0.0000000000
     21155       181  CHL1      H27C          -25.4226542466       36.7175325821       -2.7902250000  MEMB      181             0.0000000000
     21156       182  CHL1      C3             29.2214199695      -28.3913391209      -17.3081700000  MEMB      182             0.0000000000
     21157       182  CHL1      H3             29.3883273306      -27.2965265420      -17.2196100000  MEMB      182             0.0000000000
     21158       182  CHL1      O3             29.0851014305      -28.6715792791      -18.6918300000  MEMB      182             0.0000000000
     21159       182  CHL1      H3'            28.5834392221      -27.9685137872      -19.1109100000  MEMB      182             0.0000000000
     21160       182  CHL1      C4             30.3706427815      -29.1807588184      -16.6841400000  MEMB      182             0.0000000000
     21161       182  CHL1      H4A            30.1743042585      -30.2656972692      -16.8207900000  MEMB      182             0.0000000000
     21162       182  CHL1      H4B            31.3318816081      -28.9400791960      -17.1865500000  MEMB      182             0.0000000000
     21163       182  CHL1      C5             30.4894664139      -28.9001962655      -15.1740100000  MEMB      182             0.0000000000
     21164       182  CHL1      C6             31.5696418902      -28.3890028626      -14.6683100000  MEMB      182             0.0000000000
     21165       182  CHL1      H6             32.4806711526      -28.0798746561      -15.2016500000  MEMB      182             0.0000000000
     21166       182  CHL1      C7             31.7146292752      -28.0365575631      -13.2392200000  MEMB      182             0.0000000000
     21167       182  CHL1      H7A            32.7378350712      -28.2333261155      -12.8536500000  MEMB      182             0.0000000000
     21168       182  CHL1      H7B            31.4704513722      -26.9535266825      -13.1975000000  MEMB      182             0.0000000000
     21169       182  CHL1      C8             30.6760447255      -28.7089230509      -12.3543000000  MEMB      182             0.0000000000
     21170       182  CHL1      H8             30.9124295955      -29.7900010013      -12.2557000000  MEMB      182             0.0000000000
     21171       182  CHL1      C14            30.6551166098      -27.9413099098      -11.0695000000  MEMB      182             0.0000000000
     21172       182  CHL1      H14            30.3708826495      -26.9254075802      -11.4180400000  MEMB      182             0.0000000000
     21173       182  CHL1      C15            32.0032911147      -27.8452192143      -10.3276800000  MEMB      182             0.0000000000
     21174       182  CHL1      H15A           32.5514182168      -28.8115515360      -10.3361900000  MEMB      182             0.0000000000
     21175       182  CHL1      H15B           32.5069667435      -27.0273645959      -10.8860200000  MEMB      182             0.0000000000
     21176       182  CHL1      C16            31.5200071215      -27.5471903450       -8.9116900000  MEMB      182             0.0000000000
     21177       182  CHL1      H16A           31.8485398872      -28.3794662711       -8.2531400000  MEMB      182             0.0000000000
     21178       182  CHL1      H16B           32.0075279794      -26.6281414625       -8.5218500000  MEMB      182             0.0000000000
     21179       182  CHL1      C17            29.9529090792      -27.5769284160       -8.8560100000  MEMB      182             0.0000000000
     21180       182  CHL1      H17            29.5751185079      -26.5636036281       -9.1104900000  MEMB      182             0.0000000000
     21181       182  CHL1      C13            29.5984068772      -28.4461610914      -10.0505600000  MEMB      182             0.0000000000
     21182       182  CHL1      C18            29.9690895639      -29.8849820234       -9.6156300000  MEMB      182             0.0000000000
     21183       182  CHL1      H18A           30.3233231640      -30.4616463845      -10.4967000000  MEMB      182             0.0000000000
     21184       182  CHL1      H18B           30.7966817189      -29.9981744519       -8.8831000000  MEMB      182             0.0000000000
     21185       182  CHL1      H18C           29.0745173494      -30.3611148048       -9.1602500000  MEMB      182             0.0000000000
     21186       182  CHL1      C12            28.1865910919      -28.2393645187      -10.6295200000  MEMB      182             0.0000000000
     21187       182  CHL1      H12A           27.3169470973      -28.4718562142       -9.9783800000  MEMB      182             0.0000000000
     21188       182  CHL1      H12B           28.1293549445      -27.1809860942      -10.9625100000  MEMB      182             0.0000000000
     21189       182  CHL1      C11            28.0921747621      -29.0034801314      -11.9877700000  MEMB      182             0.0000000000
     21190       182  CHL1      H11A           27.9921299048      -30.0823251152      -11.7420000000  MEMB      182             0.0000000000
     21191       182  CHL1      H11B           27.1529173032      -28.6434671589      -12.4594700000  MEMB      182             0.0000000000
     21192       182  CHL1      C9             29.2863540993      -28.5917045912      -12.9155700000  MEMB      182             0.0000000000
     21193       182  CHL1      H9             29.0663661044      -27.5088496244      -13.0311000000  MEMB      182             0.0000000000
     21194       182  CHL1      C10            29.2052244217      -29.1718250902      -14.3669900000  MEMB      182             0.0000000000
     21195       182  CHL1      C19            28.9936146172      -30.7044410816      -14.2477700000  MEMB      182             0.0000000000
     21196       182  CHL1      H19A           28.8998326113      -31.0908245065      -15.2851900000  MEMB      182             0.0000000000
     21197       182  CHL1      H19B           29.8223175964      -31.1440310961      -13.6525200000  MEMB      182             0.0000000000
     21198       182  CHL1      H19C           28.0112956635      -30.9669810480      -13.8000600000  MEMB      182             0.0000000000
     21199       182  CHL1      C1             28.0178570625      -28.5094930951      -15.0916600000  MEMB      182             0.0000000000
     21200       182  CHL1      H1A            27.0269075504      -28.7588579501      -14.6556100000  MEMB      182             0.0000000000
     21201       182  CHL1      H1B            28.1700526534      -27.4105658332      -15.0324600000  MEMB      182             0.0000000000
     21202       182  CHL1      C2             27.8988590162      -28.6625651810      -16.6488700000  MEMB      182             0.0000000000
     21203       182  CHL1      H2A            27.0686890830      -28.0371995184      -17.0413700000  MEMB      182             0.0000000000
     21204       182  CHL1      H2B            27.7309937064      -29.7089886916      -16.9822700000  MEMB      182             0.0000000000
     21205       182  CHL1      C20            29.3877831298      -27.8466040416       -7.4166800000  MEMB      182             0.0000000000
     21206       182  CHL1      H20            29.7680560766      -28.8037085244       -6.9999600000  MEMB      182             0.0000000000
     21207       182  CHL1      C21            27.8392177032      -27.9396158604       -7.3859900000  MEMB      182             0.0000000000
     21208       182  CHL1      H21A           27.4874641832      -28.9338405745       -7.7354300000  MEMB      182             0.0000000000
     21209       182  CHL1      H21B           27.4810928709      -27.1381861219       -8.0669900000  MEMB      182             0.0000000000
     21210       182  CHL1      H21C           27.4977477281      -27.7899569492       -6.3394100000  MEMB      182             0.0000000000
     21211       182  CHL1      C22            29.9598798283      -26.7266664573       -6.4496700000  MEMB      182             0.0000000000
     21212       182  CHL1      H22A           31.0683387447      -26.8000328629       -6.4338400000  MEMB      182             0.0000000000
     21213       182  CHL1      H22B           29.7197040384      -25.7111581121       -6.8309600000  MEMB      182             0.0000000000
     21214       182  CHL1      C23            29.7066302895      -26.8724370603       -4.9213700000  MEMB      182             0.0000000000
     21215       182  CHL1      H23A           28.6100047427      -26.7731015547       -4.7734300000  MEMB      182             0.0000000000
     21216       182  CHL1      H23B           30.0224289548      -27.8926726791       -4.6152400000  MEMB      182             0.0000000000
     21217       182  CHL1      C24            30.4493751847      -25.8071688481       -4.0574600000  MEMB      182             0.0000000000
     21218       182  CHL1      H24A           31.5116746022      -25.7734057728       -4.3810200000  MEMB      182             0.0000000000
     21219       182  CHL1      H24B           30.1153347533      -24.7736861025       -4.2911800000  MEMB      182             0.0000000000
     21220       182  CHL1      C25            30.3140539532      -26.0782813628       -2.5500600000  MEMB      182             0.0000000000
     21221       182  CHL1      H25            30.5853635425      -27.1454840659       -2.4024800000  MEMB      182             0.0000000000
     21222       182  CHL1      C26            31.2611374875      -25.1390014921       -1.7444000000  MEMB      182             0.0000000000
     21223       182  CHL1      H26A           32.3037452514      -25.4995983880       -1.8758200000  MEMB      182             0.0000000000
     21224       182  CHL1      H26B           31.0689905942      -24.0899961097       -2.0558100000  MEMB      182             0.0000000000
     21225       182  CHL1      H26C           31.0083320543      -25.2631684919       -0.6697000000  MEMB      182             0.0000000000
     21226       182  CHL1      C27            28.8536168800      -25.9485502685       -2.1724400000  MEMB      182             0.0000000000
     21227       182  CHL1      H27A           28.7531628080      -26.1948484689       -1.0937500000  MEMB      182             0.0000000000
     21228       182  CHL1      H27B           28.4764451411      -24.9434039184       -2.4583700000  MEMB      182             0.0000000000
     21229       182  CHL1      H27C           28.1801444217      -26.6965280932       -2.6428500000  MEMB      182             0.0000000000
     21230       183  OSM       N              24.7193103722       35.3000661174      -21.4862378475  MEMB      183             0.0000000000
     21231       183  OSM       C15            24.8912942446       35.5017112605      -22.9046778817  MEMB      183             0.0000000000
     21232       183  OSM       H15A           25.7099775505       36.2046972642      -22.9490432407  MEMB      183             0.0000000000
     21233       183  OSM       H15B           24.1178055214       36.1205268501      -23.3350061221  MEMB      183             0.0000000000
     21234       183  OSM       H15C           25.1351864824       34.6282973708      -23.4912483010  MEMB      183             0.0000000000
     21235       183  OSM       C14            26.1268727135       34.7842215281      -21.0143836887  MEMB      183             0.0000000000
     21236       183  OSM       H14A           26.0822108009       34.5977595075      -19.9515397585  MEMB      183             0.0000000000
     21237       183  OSM       H14B           26.9139519799       35.4797958444      -21.2655464916  MEMB      183             0.0000000000
     21238       183  OSM       H14C           26.2816299328       33.7801591412      -21.3808653593  MEMB      183             0.0000000000
     21239       183  OSM       C13            24.3149904002       36.5785787898      -20.7564371349  MEMB      183             0.0000000000
     21240       183  OSM       H13A           25.1143757055       37.2876188840      -20.5994497604  MEMB      183             0.0000000000
     21241       183  OSM       H13B           23.9349020623       36.1748379544      -19.8296544420  MEMB      183             0.0000000000
     21242       183  OSM       H13C           23.5965542339       37.1211394396      -21.3529915516  MEMB      183             0.0000000000
     21243       183  OSM       C12            23.6191160031       34.2397584127      -21.2593922816  MEMB      183             0.0000000000
     21244       183  OSM       H12A           22.6853421292       34.6648722649      -21.5966528608  MEMB      183             0.0000000000
     21245       183  OSM       H12B           23.4985986653       34.1332019768      -20.1914403602  MEMB      183             0.0000000000
     21246       183  OSM       C11            23.8141757516       32.9118516135      -21.9471564453  MEMB      183             0.0000000000
     21247       183  OSM       H11A           23.9490832205       33.0719525633      -23.0382514852  MEMB      183             0.0000000000
     21248       183  OSM       H11B           22.8263703717       32.4402238473      -21.7570807523  MEMB      183             0.0000000000
     21249       183  OSM       P              24.7941913676       31.1258333127      -20.3039887205  MEMB      183             0.0000000000
     21250       183  OSM       O13            23.7334452907       30.2059389509      -20.7850953059  MEMB      183             0.0000000000
     21251       183  OSM       O14            26.1210591417       30.4978199950      -20.0502163760  MEMB      183             0.0000000000
     21252       183  OSM       O11            24.2503672010       31.9861981380      -19.0968054726  MEMB      183             0.0000000000
     21253       183  OSM       O12            24.9796093156       32.2058837854      -21.3956088421  MEMB      183             0.0000000000
     21254       183  OSM       C1S            25.2323187019       32.2841425415      -18.1197615935  MEMB      183             0.0000000000
     21255       183  OSM       H1S            26.2296764534       32.5752082645      -18.5133086043  MEMB      183             0.0000000000
     21256       183  OSM       H1T            25.4652979947       31.3444275038      -17.5748052024  MEMB      183             0.0000000000
     21257       183  OSM       NF             25.4320476708       33.8549804482      -16.1347105301  MEMB      183             0.0000000000
     21258       183  OSM       HNF            24.9410806959       33.9165578430      -15.2691653578  MEMB      183             0.0000000000
     21259       183  OSM       C2S            24.5577030735       33.4451687433      -17.2322385489  MEMB      183             0.0000000000
     21260       183  OSM       H2S            24.4712178354       34.3393633613      -17.8858876197  MEMB      183             0.0000000000
     21261       183  OSM       C3S            23.2211370808       33.0983115255      -16.5800614044  MEMB      183             0.0000000000
     21262       183  OSM       H3S            23.4745142632       32.2715165180      -15.8825433401  MEMB      183             0.0000000000
     21263       183  OSM       O3             22.1916974820       32.6964076023      -17.4891677442  MEMB      183             0.0000000000
     21264       183  OSM       HO3            22.7492534420       32.4260393742      -18.2224018275  MEMB      183             0.0000000000
     21265       183  OSM       C4S            22.7266742076       34.2414301389      -15.6815177485  MEMB      183             0.0000000000
     21266       183  OSM       H4S            22.4869750332       35.1780579245      -16.2061819234  MEMB      183             0.0000000000
     21267       183  OSM       C5S            22.6633593694       34.3159836043      -14.3301834636  MEMB      183             0.0000000000
     21268       183  OSM       H5S            22.9304783719       33.4203840411      -13.7500550532  MEMB      183             0.0000000000
     21269       183  OSM       C6S            22.1456183745       35.4412182795      -13.4851456281  MEMB      183             0.0000000000
     21270       183  OSM       H6S            21.7127748870       35.0276941653      -12.5492159126  MEMB      183             0.0000000000
     21271       183  OSM       H6T            21.2939659025       35.9220400798      -14.0122321031  MEMB      183             0.0000000000
     21272       183  OSM       C7S            23.2429285386       36.5066111098      -13.3752666183  MEMB      183             0.0000000000
     21273       183  OSM       H7S            23.3271155892       36.9374109694      -14.3958765772  MEMB      183             0.0000000000
     21274       183  OSM       H7T            24.1651432797       36.0221603526      -12.9890696338  MEMB      183             0.0000000000
     21275       183  OSM       C8S            22.7220187038       37.7229799432      -12.5874750942  MEMB      183             0.0000000000
     21276       183  OSM       H8S            21.6122842604       37.7728614401      -12.5695196527  MEMB      183             0.0000000000
     21277       183  OSM       H8T            23.1935712367       38.5900546699      -13.0975152347  MEMB      183             0.0000000000
     21278       183  OSM       C9S            23.2251509266       37.7864264486      -11.1639195579  MEMB      183             0.0000000000
     21279       183  OSM       H9S            23.2970157416       38.8802561718      -10.9831060049  MEMB      183             0.0000000000
     21280       183  OSM       H9T            24.2525769881       37.3693547294      -11.0948712633  MEMB      183             0.0000000000
     21281       183  OSM       C10S           22.3787029217       37.0201810460      -10.1183120271  MEMB      183             0.0000000000
     21282       183  OSM       H10S           22.6160724545       35.9428474298      -10.2499515963  MEMB      183             0.0000000000
     21283       183  OSM       H10T           21.3097390101       37.2596780296      -10.3034570588  MEMB      183             0.0000000000
     21284       183  OSM       C11S           22.8425140535       37.3357046960       -8.7047766871  MEMB      183             0.0000000000
     21285       183  OSM       H11S           22.7635802205       38.3981837780       -8.3897725957  MEMB      183             0.0000000000
     21286       183  OSM       H11T           23.9342117673       37.1316437797       -8.7343786584  MEMB      183             0.0000000000
     21287       183  OSM       C12S           22.1564933714       36.4254465526       -7.6763238933  MEMB      183             0.0000000000
     21288       183  OSM       H12S           22.2868216790       35.4086406425       -8.1046242371  MEMB      183             0.0000000000
     21289       183  OSM       H12T           21.0545997512       36.4479378766       -7.8164856811  MEMB      183             0.0000000000
     21290       183  OSM       C13S           22.6168408608       36.5391822818       -6.2553351004  MEMB      183             0.0000000000
     21291       183  OSM       H13S           21.9392271051       36.0237346741       -5.5415601809  MEMB      183             0.0000000000
     21292       183  OSM       H13T           22.4510020838       37.5965503985       -5.9573581282  MEMB      183             0.0000000000
     21293       183  OSM       C14S           24.0423884767       36.3224672331       -5.9820215690  MEMB      183             0.0000000000
     21294       183  OSM       H14S           24.6957345680       37.1492086340       -6.3340995088  MEMB      183             0.0000000000
     21295       183  OSM       H14T           24.3315135976       35.3283846899       -6.3851683180  MEMB      183             0.0000000000
     21296       183  OSM       C15S           24.2816947834       36.2501342093       -4.4763896118  MEMB      183             0.0000000000
     21297       183  OSM       H15S           23.4716821409       35.6499311784       -4.0095310420  MEMB      183             0.0000000000
     21298       183  OSM       H15T           24.2976761503       37.2175778686       -3.9303865939  MEMB      183             0.0000000000
     21299       183  OSM       C16S           25.5413499406       35.5805505728       -3.9375560862  MEMB      183             0.0000000000
     21300       183  OSM       H16S           26.4502264326       36.0074048468       -4.4130134809  MEMB      183             0.0000000000
     21301       183  OSM       H16T           25.4583885986       34.4994026969       -4.1795441031  MEMB      183             0.0000000000
     21302       183  OSM       C17S           25.8567063335       35.4680326448       -2.3834324936  MEMB      183             0.0000000000
     21303       183  OSM       H17S           26.5679389719       36.2699323396       -2.0911568788  MEMB      183             0.0000000000
     21304       183  OSM       H17T           26.4331720422       34.5195140212       -2.3352599855  MEMB      183             0.0000000000
     21305       183  OSM       C18S           24.7533394424       35.4289165951       -1.3296558960  MEMB      183             0.0000000000
     21306       183  OSM       H18S           24.9421201916       36.1625810189       -0.5169925529  MEMB      183             0.0000000000
     21307       183  OSM       H18T           24.5578263784       34.4488428810       -0.8443195663  MEMB      183             0.0000000000
     21308       183  OSM       H18U           23.8143849155       35.7983796010       -1.7946093197  MEMB      183             0.0000000000
     21309       183  OSM       C1F            26.7521605802       34.2644897901      -16.3620587993  MEMB      183             0.0000000000
     21310       183  OSM       OF             27.2813209939       34.4865601906      -17.4729338269  MEMB      183             0.0000000000
     21311       183  OSM       C2F            27.4510223987       34.6132205445      -15.1040005933  MEMB      183             0.0000000000
     21312       183  OSM       H2F            26.6887167563       35.0090525095      -14.3993533004  MEMB      183             0.0000000000
     21313       183  OSM       H2G            28.0950238560       35.4987384079      -15.2922593513  MEMB      183             0.0000000000
     21314       183  OSM       C3F            28.3006355116       33.4580452510      -14.5017039416  MEMB      183             0.0000000000
     21315       183  OSM       H3F            28.9398484690       33.8927569196      -13.7037353113  MEMB      183             0.0000000000
     21316       183  OSM       H3G            29.0315430144       33.1428550838      -15.2767843305  MEMB      183             0.0000000000
     21317       183  OSM       C4F            27.4995262934       32.2449520392      -13.9377181425  MEMB      183             0.0000000000
     21318       183  OSM       H4F            28.0907829499       31.3089972410      -13.8443100500  MEMB      183             0.0000000000
     21319       183  OSM       H4G            26.8245923309       31.8623432203      -14.7329512966  MEMB      183             0.0000000000
     21320       183  OSM       C5F            26.6601144997       32.4838955220      -12.6092750220  MEMB      183             0.0000000000
     21321       183  OSM       H5F            26.1274128927       31.5711478829      -12.2665771802  MEMB      183             0.0000000000
     21322       183  OSM       H5G            25.8727924672       33.2508463378      -12.7712365062  MEMB      183             0.0000000000
     21323       183  OSM       C6F            27.5206240997       33.1236297723      -11.4746964776  MEMB      183             0.0000000000
     21324       183  OSM       H6F            27.6220173031       34.2133015533      -11.6661540355  MEMB      183             0.0000000000
     21325       183  OSM       H6G            28.4899100108       32.6047915320      -11.3146570028  MEMB      183             0.0000000000
     21326       183  OSM       C7F            26.8132329549       33.0410005550      -10.0800364226  MEMB      183             0.0000000000
     21327       183  OSM       H7F            25.7391346505       33.2830805486      -10.2284642579  MEMB      183             0.0000000000
     21328       183  OSM       H7G            27.2229680003       33.9312021816       -9.5566060062  MEMB      183             0.0000000000
     21329       183  OSM       C8F            26.9531409257       31.7689395736       -9.2084337632  MEMB      183             0.0000000000
     21330       183  OSM       H8F            26.6184282761       32.0200060314       -8.1792337074  MEMB      183             0.0000000000
     21331       183  OSM       H8G            28.0625110214       31.7097428563       -9.1977199939  MEMB      183             0.0000000000
     21332       183  OSM       C9F            26.5629536112       30.4420600213       -9.7844942985  MEMB      183             0.0000000000
     21333       183  OSM       H9F            27.0616292837       30.0899725684      -10.6995666816  MEMB      183             0.0000000000
     21334       183  OSM       C10F           25.4498074677       29.7887801622       -9.3416062155  MEMB      183             0.0000000000
     21335       183  OSM       H10F           25.1331307648       28.8846050208       -9.8821464658  MEMB      183             0.0000000000
     21336       183  OSM       C11F           24.4893125073       30.1370404509       -8.2257115365  MEMB      183             0.0000000000
     21337       183  OSM       H11F           23.5126937179       29.7054311947       -8.5327137565  MEMB      183             0.0000000000
     21338       183  OSM       H11G           24.3160707344       31.2339706485       -8.1932717900  MEMB      183             0.0000000000
     21339       183  OSM       C12F           24.8468188172       29.7759813425       -6.7379874765  MEMB      183             0.0000000000
     21340       183  OSM       H12F           25.8442977033       30.2151783171       -6.5224335444  MEMB      183             0.0000000000
     21341       183  OSM       H12G           24.9188183736       28.6674043787       -6.7518961561  MEMB      183             0.0000000000
     21342       183  OSM       C13F           23.8175948643       30.3109031822       -5.6287850989  MEMB      183             0.0000000000
     21343       183  OSM       H13F           22.8748494135       29.7356693079       -5.7498550393  MEMB      183             0.0000000000
     21344       183  OSM       H13G           23.6236302325       31.4017392136       -5.7110982453  MEMB      183             0.0000000000
     21345       183  OSM       C14F           24.2123321917       29.8710313957       -4.2621499327  MEMB      183             0.0000000000
     21346       183  OSM       H14F           24.3922326034       28.7762943716       -4.2029236667  MEMB      183             0.0000000000
     21347       183  OSM       H14G           23.3227418468       30.0941598129       -3.6351216050  MEMB      183             0.0000000000
     21348       183  OSM       C15F           25.3717267265       30.7123828254       -3.6498667836  MEMB      183             0.0000000000
     21349       183  OSM       H15F           25.1328646471       31.7948681104       -3.7239734189  MEMB      183             0.0000000000
     21350       183  OSM       H15G           26.2598956980       30.5106388529       -4.2860868339  MEMB      183             0.0000000000
     21351       183  OSM       C16F           25.6598622627       30.3326843946       -2.1910973001  MEMB      183             0.0000000000
     21352       183  OSM       H16F           24.7086427383       30.2033532799       -1.6318338701  MEMB      183             0.0000000000
     21353       183  OSM       H16G           26.2850307970       31.1211478617       -1.7201286078  MEMB      183             0.0000000000
     21354       183  OSM       C17F           26.3636570725       28.9530188472       -2.0985231175  MEMB      183             0.0000000000
     21355       183  OSM       H17F           26.1180985472       28.2726486456       -2.9418004504  MEMB      183             0.0000000000
     21356       183  OSM       H17G           26.1549451501       28.4591380230       -1.1254651500  MEMB      183             0.0000000000
     21357       183  OSM       C18F           27.8231665306       29.0793780757       -2.0554539463  MEMB      183             0.0000000000
     21358       183  OSM       H18F           28.1585004221       29.5300383175       -3.0139812606  MEMB      183             0.0000000000
     21359       183  OSM       H18G           28.4108689655       28.1503810740       -1.8945451990  MEMB      183             0.0000000000
     21360       183  OSM       H18H           28.0821313086       29.7485930487       -1.2072731694  MEMB      183             0.0000000000
     21361       184  CHL1      C3            -19.0656423075      -36.5054317185      -17.2986000000  MEMB      184             0.0000000000
     21362       184  CHL1      H3            -20.0441555050      -36.2429081600      -16.8426100000  MEMB      184             0.0000000000
     21363       184  CHL1      O3            -19.1030390832      -36.3665924692      -18.7014000000  MEMB      184             0.0000000000
     21364       184  CHL1      H3'           -19.0113362793      -35.4408963236      -18.9386300000  MEMB      184             0.0000000000
     21365       184  CHL1      C4            -17.8184808921      -35.9031614317      -16.6440200000  MEMB      184             0.0000000000
     21366       184  CHL1      H4A           -16.8544939780      -36.2447411348      -17.0780400000  MEMB      184             0.0000000000
     21367       184  CHL1      H4B           -17.9710717056      -34.8057441592      -16.7259300000  MEMB      184             0.0000000000
     21368       184  CHL1      C5            -17.8651758230      -36.3104872226      -15.1751100000  MEMB      184             0.0000000000
     21369       184  CHL1      C6            -17.9109275394      -35.3618197592      -14.2259100000  MEMB      184             0.0000000000
     21370       184  CHL1      H6            -17.8950542872      -34.3004796618      -14.5145300000  MEMB      184             0.0000000000
     21371       184  CHL1      C7            -17.9513454952      -35.6406006098      -12.7559100000  MEMB      184             0.0000000000
     21372       184  CHL1      H7A           -17.1696673003      -35.0755567587      -12.2045200000  MEMB      184             0.0000000000
     21373       184  CHL1      H7B           -18.9335125800      -35.3066805603      -12.3582200000  MEMB      184             0.0000000000
     21374       184  CHL1      C8            -17.5337075980      -37.1025168715      -12.3816600000  MEMB      184             0.0000000000
     21375       184  CHL1      H8            -16.4366851456      -37.2781939160      -12.3802900000  MEMB      184             0.0000000000
     21376       184  CHL1      C14           -17.9892736878      -37.4305724919      -10.9999600000  MEMB      184             0.0000000000
     21377       184  CHL1      H14           -19.0905748667      -37.5461062539      -11.0900100000  MEMB      184             0.0000000000
     21378       184  CHL1      C15           -17.7482850251      -36.4210455836       -9.9292300000  MEMB      184             0.0000000000
     21379       184  CHL1      H15A          -16.7019252868      -36.0686761961      -10.0528200000  MEMB      184             0.0000000000
     21380       184  CHL1      H15B          -18.4530821668      -35.5654372084      -10.0033800000  MEMB      184             0.0000000000
     21381       184  CHL1      C16           -18.0605623403      -37.1922330512       -8.6812300000  MEMB      184             0.0000000000
     21382       184  CHL1      H16A          -17.1697043330      -37.1338054643       -8.0199700000  MEMB      184             0.0000000000
     21383       184  CHL1      H16B          -19.0316143282      -36.8201588169       -8.2901600000  MEMB      184             0.0000000000
     21384       184  CHL1      C17           -18.1944137829      -38.6869713944       -9.0962100000  MEMB      184             0.0000000000
     21385       184  CHL1      H17           -19.2368102642      -39.0101213655       -9.3043200000  MEMB      184             0.0000000000
     21386       184  CHL1      C13           -17.5590154673      -38.7881286605      -10.4689000000  MEMB      184             0.0000000000
     21387       184  CHL1      C18           -16.0178700243      -38.8293626771      -10.3640400000  MEMB      184             0.0000000000
     21388       184  CHL1      H18A          -15.8272641396      -39.7740699488       -9.8113000000  MEMB      184             0.0000000000
     21389       184  CHL1      H18B          -15.5693845564      -38.8951637009      -11.3783600000  MEMB      184             0.0000000000
     21390       184  CHL1      H18C          -15.4254612338      -38.0129929230       -9.8983100000  MEMB      184             0.0000000000
     21391       184  CHL1      C12           -18.1835086035      -39.8083442004      -11.4727100000  MEMB      184             0.0000000000
     21392       184  CHL1      H12A          -17.8828958643      -40.8480491993      -11.2218000000  MEMB      184             0.0000000000
     21393       184  CHL1      H12B          -19.2929339189      -39.7492981256      -11.4749700000  MEMB      184             0.0000000000
     21394       184  CHL1      C11           -17.7186900757      -39.5043146927      -12.9437900000  MEMB      184             0.0000000000
     21395       184  CHL1      H11A          -16.6553071069      -39.8013120720      -13.0675800000  MEMB      184             0.0000000000
     21396       184  CHL1      H11B          -18.3106771682      -40.1777360440      -13.5998200000  MEMB      184             0.0000000000
     21397       184  CHL1      C9            -18.1027490715      -38.1334967091      -13.3865800000  MEMB      184             0.0000000000
     21398       184  CHL1      H9            -19.2033676276      -37.9914393989      -13.3338300000  MEMB      184             0.0000000000
     21399       184  CHL1      C10           -17.7827517093      -37.8278483151      -14.8470900000  MEMB      184             0.0000000000
     21400       184  CHL1      C19           -16.3272208456      -38.2461667359      -15.3107300000  MEMB      184             0.0000000000
     21401       184  CHL1      H19A          -15.6010026916      -37.4428240937      -15.0626100000  MEMB      184             0.0000000000
     21402       184  CHL1      H19B          -15.8151609879      -39.1466420850      -14.9091500000  MEMB      184             0.0000000000
     21403       184  CHL1      H19C          -16.3627713371      -38.3311767933      -16.4179000000  MEMB      184             0.0000000000
     21404       184  CHL1      C1            -18.8243787049      -38.4926058441      -15.7658900000  MEMB      184             0.0000000000
     21405       184  CHL1      H1A           -18.6638929573      -39.5886640667      -15.6809800000  MEMB      184             0.0000000000
     21406       184  CHL1      H1B           -19.8548927462      -38.3618096492      -15.3718700000  MEMB      184             0.0000000000
     21407       184  CHL1      C2            -18.9712241418      -38.0345569479      -17.1606800000  MEMB      184             0.0000000000
     21408       184  CHL1      H2A           -19.8619927302      -38.4641031619      -17.6670000000  MEMB      184             0.0000000000
     21409       184  CHL1      H2B           -18.1320366181      -38.4663512500      -17.7468800000  MEMB      184             0.0000000000
     21410       184  CHL1      C20           -17.7415573667      -39.7291870332       -7.9518000000  MEMB      184             0.0000000000
     21411       184  CHL1      H20           -16.6696943363      -39.6310192700       -7.6764700000  MEMB      184             0.0000000000
     21412       184  CHL1      C21           -18.0441736046      -41.1385126789       -8.5375200000  MEMB      184             0.0000000000
     21413       184  CHL1      H21A          -17.2342309827      -41.2184386298       -9.2937700000  MEMB      184             0.0000000000
     21414       184  CHL1      H21B          -19.0080134496      -41.2706966470       -9.0740500000  MEMB      184             0.0000000000
     21415       184  CHL1      H21C          -17.8805855878      -41.9951117960       -7.8492000000  MEMB      184             0.0000000000
     21416       184  CHL1      C22           -18.6213309474      -39.4518035059       -6.7083900000  MEMB      184             0.0000000000
     21417       184  CHL1      H22A          -18.6336853291      -38.3767302810       -6.4284000000  MEMB      184             0.0000000000
     21418       184  CHL1      H22B          -19.6891249488      -39.5717382510       -6.9908000000  MEMB      184             0.0000000000
     21419       184  CHL1      C23           -18.2433318756      -40.2068658356       -5.3852500000  MEMB      184             0.0000000000
     21420       184  CHL1      H23A          -18.8026018009      -39.6389160318       -4.6113100000  MEMB      184             0.0000000000
     21421       184  CHL1      H23B          -18.5446144096      -41.2599227573       -5.5712700000  MEMB      184             0.0000000000
     21422       184  CHL1      C24           -16.7707305849      -40.1237091645       -4.9308200000  MEMB      184             0.0000000000
     21423       184  CHL1      H24A          -16.1257990601      -40.3707235827       -5.8010900000  MEMB      184             0.0000000000
     21424       184  CHL1      H24B          -16.6728766979      -39.0581344935       -4.6319900000  MEMB      184             0.0000000000
     21425       184  CHL1      C25           -16.5087357162      -41.0737521621       -3.7544000000  MEMB      184             0.0000000000
     21426       184  CHL1      H25           -16.8114188508      -42.1149876280       -3.9963200000  MEMB      184             0.0000000000
     21427       184  CHL1      C26           -15.0129015532      -40.9407569954       -3.4174600000  MEMB      184             0.0000000000
     21428       184  CHL1      H26A          -14.3751525846      -41.0480872131       -4.3208300000  MEMB      184             0.0000000000
     21429       184  CHL1      H26B          -14.8229034304      -39.9064562755       -3.0590700000  MEMB      184             0.0000000000
     21430       184  CHL1      H26C          -14.6671955761      -41.6825020422       -2.6660400000  MEMB      184             0.0000000000
     21431       184  CHL1      C27           -17.2527564327      -40.6325029936       -2.4706600000  MEMB      184             0.0000000000
     21432       184  CHL1      H27A          -17.3883268670      -39.5306066151       -2.5127300000  MEMB      184             0.0000000000
     21433       184  CHL1      H27B          -18.2971342305      -41.0113974468       -2.4755200000  MEMB      184             0.0000000000
     21434       184  CHL1      H27C          -16.6465485086      -40.9156958660       -1.5837400000  MEMB      184             0.0000000000
     21435       185  SAPE      N              37.5490123091       21.0884900388      -19.3421871592  MEMB      185             0.0000000000
     21436       185  SAPE      HN1            38.1829676069       21.5041890885      -20.0541527623  MEMB      185             0.0000000000
     21437       185  SAPE      HN2            37.4241697573       21.7014190626      -18.5113248171  MEMB      185             0.0000000000
     21438       185  SAPE      HN3            37.7189902519       20.1034569755      -19.0551028431  MEMB      185             0.0000000000
     21439       185  SAPE      C12            36.1972030828       21.0796954025      -20.0033358627  MEMB      185             0.0000000000
     21440       185  SAPE      H12A           35.5432539368       20.8070911134      -19.1475565058  MEMB      185             0.0000000000
     21441       185  SAPE      H12B           36.0632322818       20.2045125588      -20.6744751738  MEMB      185             0.0000000000
     21442       185  SAPE      C11            35.7188630462       22.3716129480      -20.6286514630  MEMB      185             0.0000000000
     21443       185  SAPE      H11A           34.7684080640       22.0929875269      -21.1319646927  MEMB      185             0.0000000000
     21444       185  SAPE      H11B           36.4194533965       22.7480064037      -21.4044233745  MEMB      185             0.0000000000
     21445       185  SAPE      P              34.3338407225       24.4853060684      -20.0185386421  MEMB      185             0.0000000000
     21446       185  SAPE      O13            34.4357881678       25.5621818938      -19.0436239283  MEMB      185             0.0000000000
     21447       185  SAPE      O14            34.3400088661       24.8770327033      -21.4436073251  MEMB      185             0.0000000000
     21448       185  SAPE      O12            35.5243425296       23.4988185392      -19.7559666236  MEMB      185             0.0000000000
     21449       185  SAPE      O11            33.0111700448       23.5422416316      -19.7640890058  MEMB      185             0.0000000000
     21450       185  SAPE      C1             32.7912121553       22.8772849223      -18.5859770708  MEMB      185             0.0000000000
     21451       185  SAPE      HA             32.6225231687       21.8239711957      -18.8964528895  MEMB      185             0.0000000000
     21452       185  SAPE      HB             33.6756278298       22.9420762697      -17.9166998782  MEMB      185             0.0000000000
     21453       185  SAPE      C2             31.5766829656       23.2689416355      -17.6462739695  MEMB      185             0.0000000000
     21454       185  SAPE      HS             30.7006785067       23.0985336382      -18.3080129204  MEMB      185             0.0000000000
     21455       185  SAPE      O21            31.7996885361       24.6291808042      -17.2811164637  MEMB      185             0.0000000000
     21456       185  SAPE      C21            30.6964476137       25.1811709563      -16.8956475295  MEMB      185             0.0000000000
     21457       185  SAPE      O22            29.5842864457       24.6463092871      -16.8725266139  MEMB      185             0.0000000000
     21458       185  SAPE      C22            30.8805114252       26.6040855436      -16.3496241251  MEMB      185             0.0000000000
     21459       185  SAPE      H2R            31.9143010683       26.9156616230      -16.6113874702  MEMB      185             0.0000000000
     21460       185  SAPE      H2S            30.1448380958       27.2892790915      -16.8225047041  MEMB      185             0.0000000000
     21461       185  SAPE      C3             31.4319556736       22.3818240039      -16.3936841007  MEMB      185             0.0000000000
     21462       185  SAPE      HX             31.1776486194       21.3881676378      -16.8206456710  MEMB      185             0.0000000000
     21463       185  SAPE      HY             30.5252591972       22.6870861444      -15.8288501667  MEMB      185             0.0000000000
     21464       185  SAPE      O31            32.5328640727       22.4581601857      -15.5576395467  MEMB      185             0.0000000000
     21465       185  SAPE      C31            33.3137171936       21.3570207673      -15.5362441089  MEMB      185             0.0000000000
     21466       185  SAPE      O32            33.0539530280       20.2469324393      -15.9450066389  MEMB      185             0.0000000000
     21467       185  SAPE      C32            34.5401805232       21.7201855463      -14.7336119780  MEMB      185             0.0000000000
     21468       185  SAPE      H2X            34.2506804106       21.9190984038      -13.6795983092  MEMB      185             0.0000000000
     21469       185  SAPE      H2Y            34.9226985229       22.6463191451      -15.2134839847  MEMB      185             0.0000000000
     21470       185  SAPE      C23            30.7899575261       26.6014260064      -14.8689365173  MEMB      185             0.0000000000
     21471       185  SAPE      H3R            29.9297184099       26.0348616056      -14.4526260632  MEMB      185             0.0000000000
     21472       185  SAPE      H3S            30.6206491936       27.6755498901      -14.6410920173  MEMB      185             0.0000000000
     21473       185  SAPE      C24            32.1049100747       26.1451719602      -14.2775656878  MEMB      185             0.0000000000
     21474       185  SAPE      H4R            32.8889503469       26.7489205330      -14.7826295988  MEMB      185             0.0000000000
     21475       185  SAPE      H4S            32.2504517148       25.0719021869      -14.5250139821  MEMB      185             0.0000000000
     21476       185  SAPE      C25            32.2592020180       26.3009510057      -12.8288514768  MEMB      185             0.0000000000
     21477       185  SAPE      H5R            33.1343325592       26.8501452193      -12.4513169924  MEMB      185             0.0000000000
     21478       185  SAPE      C26            31.4701546896       25.8337777721      -11.8531293053  MEMB      185             0.0000000000
     21479       185  SAPE      H6R            31.7171242461       26.1289799062      -10.8226626906  MEMB      185             0.0000000000
     21480       185  SAPE      C27            30.2476651581       24.9967066093      -11.8443543438  MEMB      185             0.0000000000
     21481       185  SAPE      H7R            29.4893177516       25.3942393406      -12.5523075574  MEMB      185             0.0000000000
     21482       185  SAPE      H7S            29.7894836806       24.8933500774      -10.8375234572  MEMB      185             0.0000000000
     21483       185  SAPE      C28            30.4695713928       23.6125044198      -12.4923818697  MEMB      185             0.0000000000
     21484       185  SAPE      H8R            30.7751962339       23.7971090841      -13.5328215464  MEMB      185             0.0000000000
     21485       185  SAPE      C29            30.5021060248       22.3612991892      -11.9561722874  MEMB      185             0.0000000000
     21486       185  SAPE      H9R            30.9157294796       21.5745862042      -12.6042449296  MEMB      185             0.0000000000
     21487       185  SAPE      C210           30.3463723725       21.9530760770      -10.5598517753  MEMB      185             0.0000000000
     21488       185  SAPE      H10R           29.3165841467       21.5407139787      -10.4980895674  MEMB      185             0.0000000000
     21489       185  SAPE      H10S           30.4537029112       22.8639822199       -9.9329145715  MEMB      185             0.0000000000
     21490       185  SAPE      C211           31.3356574684       20.8210594767      -10.2210741003  MEMB      185             0.0000000000
     21491       185  SAPE      H11R           31.7281935992       20.1611446522      -11.0087466099  MEMB      185             0.0000000000
     21492       185  SAPE      C212           31.8302469873       20.6122932343       -9.0062589487  MEMB      185             0.0000000000
     21493       185  SAPE      H12R           32.5552219919       19.8111439729       -8.7999310854  MEMB      185             0.0000000000
     21494       185  SAPE      C213           31.4903578136       21.4520754569       -7.7726099430  MEMB      185             0.0000000000
     21495       185  SAPE      H13R           30.6266539269       22.1367582056       -7.9124173838  MEMB      185             0.0000000000
     21496       185  SAPE      H13S           32.2836829180       22.1876513382       -7.5198564896  MEMB      185             0.0000000000
     21497       185  SAPE      C214           31.2025972319       20.5266404862       -6.6655465147  MEMB      185             0.0000000000
     21498       185  SAPE      H14R           30.1591515072       20.3044946558       -6.3974566201  MEMB      185             0.0000000000
     21499       185  SAPE      C215           32.0410569995       20.2458233455       -5.6526785054  MEMB      185             0.0000000000
     21500       185  SAPE      H15R           31.6225759551       19.6319393860       -4.8414934909  MEMB      185             0.0000000000
     21501       185  SAPE      C216           33.4912570614       20.6468645695       -5.3612108742  MEMB      185             0.0000000000
     21502       185  SAPE      H16R           33.7615336793       21.6952182014       -5.6106628637  MEMB      185             0.0000000000
     21503       185  SAPE      H16S           34.1660993865       19.9601390057       -5.9155719472  MEMB      185             0.0000000000
     21504       185  SAPE      C217           33.8015235865       20.4509350556       -3.8596077589  MEMB      185             0.0000000000
     21505       185  SAPE      H17R           34.8588999293       20.7389183654       -3.6770099056  MEMB      185             0.0000000000
     21506       185  SAPE      H17S           33.5978184790       19.3723297006       -3.6880395369  MEMB      185             0.0000000000
     21507       185  SAPE      C218           32.9872159380       21.3246527072       -2.9346246600  MEMB      185             0.0000000000
     21508       185  SAPE      H18R           31.9208022735       21.2000883694       -3.2202227204  MEMB      185             0.0000000000
     21509       185  SAPE      H18S           33.3460442412       22.3664650339       -3.0767169508  MEMB      185             0.0000000000
     21510       185  SAPE      C219           33.0549630523       20.9750703262       -1.4302700876  MEMB      185             0.0000000000
     21511       185  SAPE      H19R           32.5128264164       21.7298629362       -0.8214207048  MEMB      185             0.0000000000
     21512       185  SAPE      H19S           34.1120639102       20.8495782934       -1.1122915612  MEMB      185             0.0000000000
     21513       185  SAPE      C220           32.2268814760       19.7743305134       -1.2121558055  MEMB      185             0.0000000000
     21514       185  SAPE      H20R           31.1281626410       19.8300972763       -1.3671663896  MEMB      185             0.0000000000
     21515       185  SAPE      H20S           32.2313344311       19.5318542973       -0.1279485021  MEMB      185             0.0000000000
     21516       185  SAPE      H20T           32.6013881179       18.8730302955       -1.7429321990  MEMB      185             0.0000000000
     21517       185  SAPE      C33            35.5634269570       20.6131365423      -14.9661479349  MEMB      185             0.0000000000
     21518       185  SAPE      H3X            35.7489052029       20.4402818255      -16.0478316052  MEMB      185             0.0000000000
     21519       185  SAPE      H3Y            35.2508173353       19.6391910330      -14.5325277672  MEMB      185             0.0000000000
     21520       185  SAPE      C34            37.0104488425       21.0480354795      -14.2942860959  MEMB      185             0.0000000000
     21521       185  SAPE      H4X            37.7405721043       20.2244188700      -14.1429686654  MEMB      185             0.0000000000
     21522       185  SAPE      H4Y            36.7811339602       21.3161913050      -13.2408020900  MEMB      185             0.0000000000
     21523       185  SAPE      C35            37.7851699672       22.1397656830      -15.1328620572  MEMB      185             0.0000000000
     21524       185  SAPE      H5X            36.9892446036       22.7517960903      -15.6085117418  MEMB      185             0.0000000000
     21525       185  SAPE      H5Y            38.4297811552       21.6908336484      -15.9185195463  MEMB      185             0.0000000000
     21526       185  SAPE      C36            38.7676575267       22.9408691848      -14.3074117437  MEMB      185             0.0000000000
     21527       185  SAPE      H6X            39.4572282173       23.3968005821      -15.0496648975  MEMB      185             0.0000000000
     21528       185  SAPE      H6Y            39.2631521152       22.1687918471      -13.6807521224  MEMB      185             0.0000000000
     21529       185  SAPE      C37            38.0183898279       24.0295230404      -13.4215034602  MEMB      185             0.0000000000
     21530       185  SAPE      H7X            36.9241368970       23.8422826562      -13.4647743461  MEMB      185             0.0000000000
     21531       185  SAPE      H7Y            38.3852263175       25.0008522802      -13.8168157583  MEMB      185             0.0000000000
     21532       185  SAPE      C38            38.5749326319       23.9231651850      -11.9840674210  MEMB      185             0.0000000000
     21533       185  SAPE      H8X            39.6827359071       23.9701164353      -11.9141450427  MEMB      185             0.0000000000
     21534       185  SAPE      H8Y            38.3412681257       22.8763828330      -11.6942943678  MEMB      185             0.0000000000
     21535       185  SAPE      C39            37.8300188986       24.8464389489      -11.0083877606  MEMB      185             0.0000000000
     21536       185  SAPE      H9X            38.1849411236       25.8964266428      -11.0850518642  MEMB      185             0.0000000000
     21537       185  SAPE      H9Y            38.0269703806       24.6117309687       -9.9404732825  MEMB      185             0.0000000000
     21538       185  SAPE      C310           36.2843949346       24.6840453393      -11.0006054628  MEMB      185             0.0000000000
     21539       185  SAPE      H10X           36.0697468220       23.6083578984      -11.1770814128  MEMB      185             0.0000000000
     21540       185  SAPE      H10Y           35.7784454060       25.1599108799      -11.8677207046  MEMB      185             0.0000000000
     21541       185  SAPE      C311           35.7779463305       25.0236822060       -9.5186535117  MEMB      185             0.0000000000
     21542       185  SAPE      H11X           36.2416223161       25.9543282796       -9.1272162808  MEMB      185             0.0000000000
     21543       185  SAPE      H11Y           36.1376850623       24.1891638705       -8.8795235224  MEMB      185             0.0000000000
     21544       185  SAPE      C312           34.2540694234       24.9905580873       -9.5045961591  MEMB      185             0.0000000000
     21545       185  SAPE      H12X           33.7408922190       24.1287006448       -9.9822696372  MEMB      185             0.0000000000
     21546       185  SAPE      H12Y           33.8832357382       25.8216834809      -10.1418038614  MEMB      185             0.0000000000
     21547       185  SAPE      C313           33.5166791014       25.1601701368       -8.1211962979  MEMB      185             0.0000000000
     21548       185  SAPE      H13X           33.6746297829       24.2571817043       -7.4935148130  MEMB      185             0.0000000000
     21549       185  SAPE      H13Y           32.4378464409       25.1163265233       -8.3829572780  MEMB      185             0.0000000000
     21550       185  SAPE      C314           33.8383894524       26.4814371687       -7.3658084698  MEMB      185             0.0000000000
     21551       185  SAPE      H14X           33.8690198382       27.1303932772       -8.2670511067  MEMB      185             0.0000000000
     21552       185  SAPE      H14Y           34.8058864720       26.4703717094       -6.8197791741  MEMB      185             0.0000000000
     21553       185  SAPE      C315           32.7501723482       26.9278647409       -6.4005273311  MEMB      185             0.0000000000
     21554       185  SAPE      H15X           31.7833536054       27.2061113412       -6.8718664032  MEMB      185             0.0000000000
     21555       185  SAPE      H15Y           33.1789162293       27.7886550914       -5.8441640845  MEMB      185             0.0000000000
     21556       185  SAPE      C316           32.4548170634       25.7417923737       -5.5091704991  MEMB      185             0.0000000000
     21557       185  SAPE      H16X           33.4426619159       25.3512978559       -5.1835972770  MEMB      185             0.0000000000
     21558       185  SAPE      H16Y           31.9551409439       24.9058381739       -6.0437972192  MEMB      185             0.0000000000
     21559       185  SAPE      C317           31.7659133085       26.2154704268       -4.2085892734  MEMB      185             0.0000000000
     21560       185  SAPE      H17X           30.6965153460       26.4508116592       -4.3965349026  MEMB      185             0.0000000000
     21561       185  SAPE      H17Y           32.1616512875       27.1574057140       -3.7721604898  MEMB      185             0.0000000000
     21562       185  SAPE      C318           31.6471025941       25.2395142165       -2.9728633261  MEMB      185             0.0000000000
     21563       185  SAPE      H18X           32.6498875592       24.8838430583       -2.6531118465  MEMB      185             0.0000000000
     21564       185  SAPE      H18Y           31.0823430744       24.3204388561       -3.2386978349  MEMB      185             0.0000000000
     21565       185  SAPE      H18Z           31.2095220156       25.7264362077       -2.0752265469  MEMB      185             0.0000000000
     21566       186  SAPE      N              33.2301314953      -23.7819289078      -22.3556204740  MEMB      186             0.0000000000
     21567       186  SAPE      HN1            32.5944628200      -23.3709027024      -21.6424705648  MEMB      186             0.0000000000
     21568       186  SAPE      HN2            33.2563418516      -23.2049655861      -23.2205054934  MEMB      186             0.0000000000
     21569       186  SAPE      HN3            32.8543349467      -24.7077593528      -22.6440906755  MEMB      186             0.0000000000
     21570       186  SAPE      C12            34.7331173183      -23.9747670299      -21.9391806472  MEMB      186             0.0000000000
     21571       186  SAPE      H12A           35.3744942434      -23.1012051091      -22.1838153200  MEMB      186             0.0000000000
     21572       186  SAPE      H12B           35.1513695777      -24.8386352867      -22.4987498460  MEMB      186             0.0000000000
     21573       186  SAPE      C11            34.8243194501      -24.4087382004      -20.4329676829  MEMB      186             0.0000000000
     21574       186  SAPE      H11A           34.6930111158      -25.5069466257      -20.3280045012  MEMB      186             0.0000000000
     21575       186  SAPE      H11B           33.9973406026      -23.9322323116      -19.8643121661  MEMB      186             0.0000000000
     21576       186  SAPE      P              36.2524231905      -22.7141500501      -19.0465258948  MEMB      186             0.0000000000
     21577       186  SAPE      O13            37.1351869694      -21.8500727637      -19.9023939641  MEMB      186             0.0000000000
     21578       186  SAPE      O14            34.9586004212      -22.1227923744      -18.6678403048  MEMB      186             0.0000000000
     21579       186  SAPE      O12            36.0664899877      -24.0828551358      -19.8529620891  MEMB      186             0.0000000000
     21580       186  SAPE      O11            37.0550855675      -23.2898659380      -17.8025089246  MEMB      186             0.0000000000
     21581       186  SAPE      C1             38.3445139342      -23.9304232357      -17.8773120592  MEMB      186             0.0000000000
     21582       186  SAPE      HA             38.1294462110      -25.0039879607      -18.0657945532  MEMB      186             0.0000000000
     21583       186  SAPE      HB             38.9755919970      -23.5597698930      -18.7131813221  MEMB      186             0.0000000000
     21584       186  SAPE      C2             39.0252103783      -23.8230786580      -16.4870796099  MEMB      186             0.0000000000
     21585       186  SAPE      HS             39.7443533355      -24.6678023071      -16.5470505022  MEMB      186             0.0000000000
     21586       186  SAPE      O21            38.2386936818      -23.9457292841      -15.3510293933  MEMB      186             0.0000000000
     21587       186  SAPE      C21            37.8213826230      -25.1434302131      -15.1490433570  MEMB      186             0.0000000000
     21588       186  SAPE      O22            38.2287573137      -26.1791953864      -15.6498304116  MEMB      186             0.0000000000
     21589       186  SAPE      C22            36.7045208562      -25.0672781774      -14.1328306759  MEMB      186             0.0000000000
     21590       186  SAPE      H2R            36.1800340468      -24.1261875304      -14.4040923580  MEMB      186             0.0000000000
     21591       186  SAPE      H2S            36.0089413609      -25.9067981619      -14.3465978131  MEMB      186             0.0000000000
     21592       186  SAPE      C3             39.7198234512      -22.4647327434      -16.3549330089  MEMB      186             0.0000000000
     21593       186  SAPE      HX             40.4973651847      -22.3643997157      -17.1421324668  MEMB      186             0.0000000000
     21594       186  SAPE      HY             40.2733727173      -22.3852018429      -15.3949439971  MEMB      186             0.0000000000
     21595       186  SAPE      O31            38.7461859766      -21.4678600063      -16.4769834593  MEMB      186             0.0000000000
     21596       186  SAPE      C31            38.2538373089      -20.8261557350      -15.3469096359  MEMB      186             0.0000000000
     21597       186  SAPE      O32            38.4802218812      -21.2245390097      -14.2217512811  MEMB      186             0.0000000000
     21598       186  SAPE      C32            37.3819603434      -19.7160993791      -15.7819709324  MEMB      186             0.0000000000
     21599       186  SAPE      H2X            36.5644381309      -20.1657378321      -16.3851322872  MEMB      186             0.0000000000
     21600       186  SAPE      H2Y            37.9484412197      -19.0606826387      -16.4775639893  MEMB      186             0.0000000000
     21601       186  SAPE      C23            37.1033420827      -25.3579362992      -12.7112393952  MEMB      186             0.0000000000
     21602       186  SAPE      H3R            37.5711201750      -26.3637452361      -12.6491689767  MEMB      186             0.0000000000
     21603       186  SAPE      H3S            36.1179698023      -25.4554476312      -12.2074004300  MEMB      186             0.0000000000
     21604       186  SAPE      C24            37.9616179755      -24.3501779607      -11.9232799209  MEMB      186             0.0000000000
     21605       186  SAPE      H4R            37.6794234164      -24.4610578842      -10.8544528136  MEMB      186             0.0000000000
     21606       186  SAPE      H4S            37.5878500040      -23.3346754271      -12.1750202439  MEMB      186             0.0000000000
     21607       186  SAPE      C25            39.4224259945      -24.3836428264      -12.1317173325  MEMB      186             0.0000000000
     21608       186  SAPE      H5R            39.8104664942      -24.2708543109      -13.1548027264  MEMB      186             0.0000000000
     21609       186  SAPE      C26            40.2758192737      -24.9587104545      -11.2143084761  MEMB      186             0.0000000000
     21610       186  SAPE      H6R            41.3519444992      -25.0484098372      -11.4238522715  MEMB      186             0.0000000000
     21611       186  SAPE      C27            40.0436418758      -25.6234223993       -9.8718497104  MEMB      186             0.0000000000
     21612       186  SAPE      H7R            39.1467294433      -25.2315089837       -9.3462331467  MEMB      186             0.0000000000
     21613       186  SAPE      H7S            40.8877693578      -25.3413990501       -9.2068442900  MEMB      186             0.0000000000
     21614       186  SAPE      C28            39.8052784702      -27.1526475588       -9.7592836740  MEMB      186             0.0000000000
     21615       186  SAPE      H8R            40.5399149600      -27.7397251165      -10.3299400245  MEMB      186             0.0000000000
     21616       186  SAPE      C29            38.8645650430      -27.8423453503       -9.1194883341  MEMB      186             0.0000000000
     21617       186  SAPE      H9R            38.8218421145      -28.9371260334       -9.2176214531  MEMB      186             0.0000000000
     21618       186  SAPE      C210           37.7844670813      -27.1870516623       -8.2794979621  MEMB      186             0.0000000000
     21619       186  SAPE      H10R           36.8074649071      -27.3147836430       -8.7927930829  MEMB      186             0.0000000000
     21620       186  SAPE      H10S           37.8729609610      -26.0796188121       -8.2704221292  MEMB      186             0.0000000000
     21621       186  SAPE      C211           37.4761028053      -27.7704262211       -6.9172468627  MEMB      186             0.0000000000
     21622       186  SAPE      H11R           38.0622370125      -28.6953008490       -6.8121121308  MEMB      186             0.0000000000
     21623       186  SAPE      C212           36.6384674504      -27.3446533749       -5.9316081791  MEMB      186             0.0000000000
     21624       186  SAPE      H12R           36.5888319735      -27.8494210542       -4.9555211558  MEMB      186             0.0000000000
     21625       186  SAPE      C213           35.8076647104      -26.1050889936       -6.1100078059  MEMB      186             0.0000000000
     21626       186  SAPE      H13R           36.1296588881      -25.6576163147       -7.0745846734  MEMB      186             0.0000000000
     21627       186  SAPE      H13S           36.0775822402      -25.2511353859       -5.4525664435  MEMB      186             0.0000000000
     21628       186  SAPE      C214           34.3370804000      -26.3346875909       -6.1678737288  MEMB      186             0.0000000000
     21629       186  SAPE      H14R           33.9327341505      -26.3322965968       -7.1908588195  MEMB      186             0.0000000000
     21630       186  SAPE      C215           33.4321987514      -26.5898241944       -5.2040162910  MEMB      186             0.0000000000
     21631       186  SAPE      H15R           32.3763779314      -26.7872294612       -5.4412376992  MEMB      186             0.0000000000
     21632       186  SAPE      C216           33.8477591862      -26.6371378886       -3.7664958903  MEMB      186             0.0000000000
     21633       186  SAPE      H16R           34.9349675980      -26.6469421630       -3.5380153282  MEMB      186             0.0000000000
     21634       186  SAPE      H16S           33.4669197965      -27.5669224332       -3.2923815564  MEMB      186             0.0000000000
     21635       186  SAPE      C217           33.3975233117      -25.4581045531       -2.8519450811  MEMB      186             0.0000000000
     21636       186  SAPE      H17R           33.7395718914      -25.6079673452       -1.8055863924  MEMB      186             0.0000000000
     21637       186  SAPE      H17S           32.2913007434      -25.4757554514       -2.9533372242  MEMB      186             0.0000000000
     21638       186  SAPE      C218           33.9278428613      -24.1208075142       -3.3828990733  MEMB      186             0.0000000000
     21639       186  SAPE      H18R           33.4470494830      -23.8568405400       -4.3490660883  MEMB      186             0.0000000000
     21640       186  SAPE      H18S           35.0136201564      -24.2279058237       -3.5925142995  MEMB      186             0.0000000000
     21641       186  SAPE      C219           33.7099771449      -22.9494754592       -2.4528245047  MEMB      186             0.0000000000
     21642       186  SAPE      H19R           32.6349716463      -22.9155472601       -2.1743764706  MEMB      186             0.0000000000
     21643       186  SAPE      H19S           33.7401059551      -22.0392695906       -3.0891724703  MEMB      186             0.0000000000
     21644       186  SAPE      C220           34.6694520528      -22.9487074568       -1.3099999391  MEMB      186             0.0000000000
     21645       186  SAPE      H20R           34.4756790109      -23.8793803212       -0.7350025426  MEMB      186             0.0000000000
     21646       186  SAPE      H20S           34.5992438575      -22.0231305331       -0.6995083919  MEMB      186             0.0000000000
     21647       186  SAPE      H20T           35.7376255526      -23.0840974624       -1.5838533185  MEMB      186             0.0000000000
     21648       186  SAPE      C33            36.7476294723      -18.8860537031      -14.5304887791  MEMB      186             0.0000000000
     21649       186  SAPE      H3X            36.8704106158      -17.8500240735      -14.9124423360  MEMB      186             0.0000000000
     21650       186  SAPE      H3Y            37.3751906894      -19.0455745939      -13.6276929175  MEMB      186             0.0000000000
     21651       186  SAPE      C34            35.2940064772      -19.1384454173      -14.2999438643  MEMB      186             0.0000000000
     21652       186  SAPE      H4X            34.6869348489      -19.0356436951      -15.2247232369  MEMB      186             0.0000000000
     21653       186  SAPE      H4Y            34.9971063656      -18.3589009130      -13.5661310551  MEMB      186             0.0000000000
     21654       186  SAPE      C35            34.8940654159      -20.5105926949      -13.7342760649  MEMB      186             0.0000000000
     21655       186  SAPE      H5X            35.2851497252      -21.2690637534      -14.4456798677  MEMB      186             0.0000000000
     21656       186  SAPE      H5Y            33.8025927801      -20.6593533494      -13.5897812807  MEMB      186             0.0000000000
     21657       186  SAPE      C36            35.5320589244      -20.7423609341      -12.2850835948  MEMB      186             0.0000000000
     21658       186  SAPE      H6X            35.1527693282      -19.9594688579      -11.5940408117  MEMB      186             0.0000000000
     21659       186  SAPE      H6Y            36.6299413885      -20.5851786575      -12.2197457727  MEMB      186             0.0000000000
     21660       186  SAPE      C37            35.1486179499      -21.9734482141      -11.6024739570  MEMB      186             0.0000000000
     21661       186  SAPE      H7X            35.5094378309      -22.9169508887      -12.0650025653  MEMB      186             0.0000000000
     21662       186  SAPE      H7Y            34.0508755709      -22.0540363507      -11.7534308241  MEMB      186             0.0000000000
     21663       186  SAPE      C38            35.3945162102      -22.1372235631      -10.1116180116  MEMB      186             0.0000000000
     21664       186  SAPE      H8X            36.4820079670      -22.3230460024       -9.9806506543  MEMB      186             0.0000000000
     21665       186  SAPE      H8Y            34.8542327824      -23.0568921995       -9.8007734063  MEMB      186             0.0000000000
     21666       186  SAPE      C39            35.0091571149      -21.0812321375       -9.0809504785  MEMB      186             0.0000000000
     21667       186  SAPE      H9X            33.9091394863      -20.9357103090       -9.0252247879  MEMB      186             0.0000000000
     21668       186  SAPE      H9Y            35.5201271209      -20.2072377438       -9.5385141682  MEMB      186             0.0000000000
     21669       186  SAPE      C310           35.3596550937      -21.2725196193       -7.5715223849  MEMB      186             0.0000000000
     21670       186  SAPE      H10X           35.3161181030      -22.3580280915       -7.3389356693  MEMB      186             0.0000000000
     21671       186  SAPE      H10Y           34.5490411438      -20.6664727624       -7.1133375458  MEMB      186             0.0000000000
     21672       186  SAPE      C311           36.6853402593      -20.8151995697       -7.1034701814  MEMB      186             0.0000000000
     21673       186  SAPE      H11X           36.9000107336      -19.7436078054       -7.3032900560  MEMB      186             0.0000000000
     21674       186  SAPE      H11Y           37.4753580677      -21.4576238805       -7.5478618380  MEMB      186             0.0000000000
     21675       186  SAPE      C312           36.8632989979      -20.8546141821       -5.5596277840  MEMB      186             0.0000000000
     21676       186  SAPE      H12X           36.7410586349      -21.9169273477       -5.2581829242  MEMB      186             0.0000000000
     21677       186  SAPE      H12Y           36.1467773452      -20.1373109494       -5.1053213650  MEMB      186             0.0000000000
     21678       186  SAPE      C313           38.3118489821      -20.3712471868       -5.0511344668  MEMB      186             0.0000000000
     21679       186  SAPE      H13X           38.4183158428      -19.2919374952       -5.2921259672  MEMB      186             0.0000000000
     21680       186  SAPE      H13Y           39.0187461521      -20.9397737994       -5.6925359177  MEMB      186             0.0000000000
     21681       186  SAPE      C314           38.6784299971      -20.8944067802       -3.6548186316  MEMB      186             0.0000000000
     21682       186  SAPE      H14X           37.8789139735      -20.5992348180       -2.9420994271  MEMB      186             0.0000000000
     21683       186  SAPE      H14Y           39.6472460942      -20.3772924845       -3.4865659563  MEMB      186             0.0000000000
     21684       186  SAPE      C315           38.7324679814      -22.4279598478       -3.3995055163  MEMB      186             0.0000000000
     21685       186  SAPE      H15X           37.7294251746      -22.8573827699       -3.6088444109  MEMB      186             0.0000000000
     21686       186  SAPE      H15Y           38.9368844510      -22.6375120935       -2.3277685938  MEMB      186             0.0000000000
     21687       186  SAPE      C316           39.8022868968      -23.2649307665       -4.1649968441  MEMB      186             0.0000000000
     21688       186  SAPE      H16X           40.8094437968      -23.1502147396       -3.7102481284  MEMB      186             0.0000000000
     21689       186  SAPE      H16Y           39.8939377538      -22.8897078013       -5.2066927795  MEMB      186             0.0000000000
     21690       186  SAPE      C317           39.4632421232      -24.8157920157       -4.2419116386  MEMB      186             0.0000000000
     21691       186  SAPE      H17X           40.2678595541      -25.1967289274       -4.9065914940  MEMB      186             0.0000000000
     21692       186  SAPE      H17Y           38.5717558725      -24.8946962281       -4.9002034472  MEMB      186             0.0000000000
     21693       186  SAPE      C318           39.3042193866      -25.5846675102       -2.8981965864  MEMB      186             0.0000000000
     21694       186  SAPE      H18X           38.8968839756      -26.5886483990       -3.1440048312  MEMB      186             0.0000000000
     21695       186  SAPE      H18Y           38.6303284573      -25.0131140142       -2.2247592453  MEMB      186             0.0000000000
     21696       186  SAPE      H18Z           40.2960919687      -25.6536033292       -2.4024584613  MEMB      186             0.0000000000
     21697       187  CHL1      C3            -32.3289182875       28.9372782683      -17.3375550000  MEMB      187             0.0000000000
     21698       187  CHL1      H3            -31.2941629769       29.3413226172      -17.3191050000  MEMB      187             0.0000000000
     21699       187  CHL1      O3            -32.8408499125       28.5947313317      -18.6624450000  MEMB      187             0.0000000000
     21700       187  CHL1      H3'           -33.2677830333       29.3689822942      -19.0364450000  MEMB      187             0.0000000000
     21701       187  CHL1      C4            -32.2129322819       27.6214813270      -16.5289250000  MEMB      187             0.0000000000
     21702       187  CHL1      H4A           -33.0772709682       26.9651266708      -16.7664750000  MEMB      187             0.0000000000
     21703       187  CHL1      H4B           -31.2908518270       27.1321136663      -16.9092050000  MEMB      187             0.0000000000
     21704       187  CHL1      C5            -32.1381483229       27.7903459695      -15.0705350000  MEMB      187             0.0000000000
     21705       187  CHL1      C6            -31.0827254172       27.2993891913      -14.3729050000  MEMB      187             0.0000000000
     21706       187  CHL1      H6            -30.3025060468       26.7986724805      -14.9649550000  MEMB      187             0.0000000000
     21707       187  CHL1      C7            -30.9849311168       27.2622587710      -12.8816450000  MEMB      187             0.0000000000
     21708       187  CHL1      H7A           -30.8379285648       26.2514541829      -12.4446150000  MEMB      187             0.0000000000
     21709       187  CHL1      H7B           -30.2278965150       27.9929890956      -12.5249150000  MEMB      187             0.0000000000
     21710       187  CHL1      C8            -32.3423124820       27.7484599879      -12.1929950000  MEMB      187             0.0000000000
     21711       187  CHL1      H8            -33.0614506312       26.9179151284      -12.3583450000  MEMB      187             0.0000000000
     21712       187  CHL1      C14           -32.1761812830       27.9373815926      -10.6899350000  MEMB      187             0.0000000000
     21713       187  CHL1      H14           -31.4937899705       28.7859578024      -10.4695450000  MEMB      187             0.0000000000
     21714       187  CHL1      C15           -31.5933437062       26.7953210040       -9.8509650000  MEMB      187             0.0000000000
     21715       187  CHL1      H15A          -32.1013092801       25.9092986539      -10.2883050000  MEMB      187             0.0000000000
     21716       187  CHL1      H15B          -30.4997537725       26.6574057912       -9.9901250000  MEMB      187             0.0000000000
     21717       187  CHL1      C16           -32.0664167429       27.1007209041       -8.4204650000  MEMB      187             0.0000000000
     21718       187  CHL1      H16A          -32.3076404097       26.2006084332       -7.8155450000  MEMB      187             0.0000000000
     21719       187  CHL1      H16B          -31.1890963391       27.4714352917       -7.8484550000  MEMB      187             0.0000000000
     21720       187  CHL1      C17           -33.0894433782       28.2410485087       -8.5173250000  MEMB      187             0.0000000000
     21721       187  CHL1      H17           -32.4917680752       29.1698859086       -8.3974450000  MEMB      187             0.0000000000
     21722       187  CHL1      C13           -33.4984634847       28.3343181596      -10.0204650000  MEMB      187             0.0000000000
     21723       187  CHL1      C18           -34.5688539458       27.1685431353      -10.1758150000  MEMB      187             0.0000000000
     21724       187  CHL1      H18A          -35.5267316931       27.4811021597       -9.7077450000  MEMB      187             0.0000000000
     21725       187  CHL1      H18B          -34.6349920637       26.8824012254      -11.2472950000  MEMB      187             0.0000000000
     21726       187  CHL1      H18C          -34.2066743478       26.2777389091       -9.6193950000  MEMB      187             0.0000000000
     21727       187  CHL1      C12           -33.9370398530       29.6867867210      -10.6389550000  MEMB      187             0.0000000000
     21728       187  CHL1      H12A          -34.8974283928       29.9323358953      -10.1372750000  MEMB      187             0.0000000000
     21729       187  CHL1      H12B          -33.3022940652       30.5703091592      -10.4135350000  MEMB      187             0.0000000000
     21730       187  CHL1      C11           -34.2003097698       29.4947213586      -12.1232050000  MEMB      187             0.0000000000
     21731       187  CHL1      H11A          -35.0046310145       28.7830935443      -12.4077750000  MEMB      187             0.0000000000
     21732       187  CHL1      H11B          -34.7499156689       30.3835307326      -12.5004050000  MEMB      187             0.0000000000
     21733       187  CHL1      C9            -32.9957214145       28.9344054162      -12.9127750000  MEMB      187             0.0000000000
     21734       187  CHL1      H9            -32.2863777128       29.7890285854      -12.8847950000  MEMB      187             0.0000000000
     21735       187  CHL1      C10           -33.1837679579       28.6206767870      -14.4628350000  MEMB      187             0.0000000000
     21736       187  CHL1      C19           -34.5448711622       27.8831360418      -14.7016650000  MEMB      187             0.0000000000
     21737       187  CHL1      H19A          -34.6145212112       27.0903097851      -13.9264850000  MEMB      187             0.0000000000
     21738       187  CHL1      H19B          -35.3780551063       28.5968008344      -14.5261550000  MEMB      187             0.0000000000
     21739       187  CHL1      H19C          -34.6513531278       27.4379836680      -15.7139950000  MEMB      187             0.0000000000
     21740       187  CHL1      C1            -33.1647488760       29.9647817968      -15.1946450000  MEMB      187             0.0000000000
     21741       187  CHL1      H1A           -33.9862970420       30.5744566535      -14.7614250000  MEMB      187             0.0000000000
     21742       187  CHL1      H1B           -32.2460097310       30.4630215932      -14.8178150000  MEMB      187             0.0000000000
     21743       187  CHL1      C2            -33.2970107434       29.9443623810      -16.7180950000  MEMB      187             0.0000000000
     21744       187  CHL1      H2A           -33.0655011830       30.9136774959      -17.2091650000  MEMB      187             0.0000000000
     21745       187  CHL1      H2B           -34.2730221046       29.4987927181      -17.0065250000  MEMB      187             0.0000000000
     21746       187  CHL1      C20           -34.1476576351       28.1772519962       -7.3485450000  MEMB      187             0.0000000000
     21747       187  CHL1      H20           -34.7164718842       27.2265881795       -7.4322750000  MEMB      187             0.0000000000
     21748       187  CHL1      C21           -35.1167704934       29.3366993092       -7.3965150000  MEMB      187             0.0000000000
     21749       187  CHL1      H21A          -34.4686776582       30.2096919408       -7.6249550000  MEMB      187             0.0000000000
     21750       187  CHL1      H21B          -35.5604307172       29.5788936618       -6.4071550000  MEMB      187             0.0000000000
     21751       187  CHL1      H21C          -35.8109508445       29.0671854734       -8.2210150000  MEMB      187             0.0000000000
     21752       187  CHL1      C22           -33.4360041270       28.3635228840       -5.9721750000  MEMB      187             0.0000000000
     21753       187  CHL1      H22A          -32.5183630178       27.7440907597       -5.8796250000  MEMB      187             0.0000000000
     21754       187  CHL1      H22B          -33.2259304808       29.4049461072       -5.6471950000  MEMB      187             0.0000000000
     21755       187  CHL1      C23           -34.3271550481       27.8724903548       -4.8124350000  MEMB      187             0.0000000000
     21756       187  CHL1      H23A          -35.3426976931       28.2853378096       -4.9928750000  MEMB      187             0.0000000000
     21757       187  CHL1      H23B          -34.4374731173       26.7748468215       -4.9441250000  MEMB      187             0.0000000000
     21758       187  CHL1      C24           -33.9153594614       28.2868552823       -3.3522550000  MEMB      187             0.0000000000
     21759       187  CHL1      H24A          -32.8079769987       28.2164284822       -3.2969250000  MEMB      187             0.0000000000
     21760       187  CHL1      H24B          -34.2302809165       29.3055746461       -3.0402450000  MEMB      187             0.0000000000
     21761       187  CHL1      C25           -34.5391029367       27.4312516840       -2.2921550000  MEMB      187             0.0000000000
     21762       187  CHL1      H25           -34.0898709158       26.4271757395       -2.4481450000  MEMB      187             0.0000000000
     21763       187  CHL1      C26           -34.2858255905       27.8647416299       -0.8629750000  MEMB      187             0.0000000000
     21764       187  CHL1      H26A          -34.3791679922       28.9618727190       -0.7149350000  MEMB      187             0.0000000000
     21765       187  CHL1      H26B          -35.0524582683       27.4258473119       -0.1892050000  MEMB      187             0.0000000000
     21766       187  CHL1      H26C          -33.3114544351       27.6000468174       -0.3994250000  MEMB      187             0.0000000000
     21767       187  CHL1      C27           -36.0487342276       27.2060438976       -2.5033450000  MEMB      187             0.0000000000
     21768       187  CHL1      H27A          -36.3249696120       26.5493606019       -3.3558650000  MEMB      187             0.0000000000
     21769       187  CHL1      H27B          -36.6083755259       26.7876497312       -1.6395950000  MEMB      187             0.0000000000
     21770       187  CHL1      H27C          -36.4165096355       28.2352481350       -2.7028350000  MEMB      187             0.0000000000
     21771       188  OSM       N             -26.4097097578      -32.6828359573      -20.1975351322  MEMB      188             0.0000000000
     21772       188  OSM       C15           -26.6234275545      -31.4861963403      -21.0666821716  MEMB      188             0.0000000000
     21773       188  OSM       H15A          -27.2331306325      -31.7941302099      -21.9032459748  MEMB      188             0.0000000000
     21774       188  OSM       H15B          -25.6853260068      -31.0097961474      -21.3104203005  MEMB      188             0.0000000000
     21775       188  OSM       H15C          -27.3568793918      -30.8301956182      -20.6215851018  MEMB      188             0.0000000000
     21776       188  OSM       C14           -25.4584348050      -33.6921793835      -20.8412235032  MEMB      188             0.0000000000
     21777       188  OSM       H14A          -24.4609608218      -33.2807944874      -20.8882118395  MEMB      188             0.0000000000
     21778       188  OSM       H14B          -25.8866903421      -33.7235202030      -21.8321901905  MEMB      188             0.0000000000
     21779       188  OSM       H14C          -25.4816842506      -34.6964344054      -20.4445734491  MEMB      188             0.0000000000
     21780       188  OSM       C13           -25.5396089211      -32.2455145191      -18.9869961555  MEMB      188             0.0000000000
     21781       188  OSM       H13A          -24.7149608898      -31.6190645583      -19.2934532847  MEMB      188             0.0000000000
     21782       188  OSM       H13B          -25.1531854461      -33.1048700692      -18.4591846852  MEMB      188             0.0000000000
     21783       188  OSM       H13C          -26.2096201063      -31.7474018580      -18.3018911581  MEMB      188             0.0000000000
     21784       188  OSM       C12           -27.6571863948      -33.3315360777      -19.7806730287  MEMB      188             0.0000000000
     21785       188  OSM       H12A          -27.9953393646      -32.7954721521      -18.9062085094  MEMB      188             0.0000000000
     21786       188  OSM       H12B          -27.3427192448      -34.2522948179      -19.3119367570  MEMB      188             0.0000000000
     21787       188  OSM       C11           -28.7493953157      -33.6786313983      -20.7250700864  MEMB      188             0.0000000000
     21788       188  OSM       H11A          -29.1181758977      -32.6955783166      -21.0882897122  MEMB      188             0.0000000000
     21789       188  OSM       H11B          -29.5821202718      -34.2005964310      -20.2069554194  MEMB      188             0.0000000000
     21790       188  OSM       P             -28.3029692287      -35.9760131806      -21.9638838946  MEMB      188             0.0000000000
     21791       188  OSM       O13           -29.7002078649      -36.4398717841      -22.1488018852  MEMB      188             0.0000000000
     21792       188  OSM       O14           -27.2378018534      -36.3650193605      -22.8720857095  MEMB      188             0.0000000000
     21793       188  OSM       O11           -27.8226689218      -36.4267764919      -20.5408231305  MEMB      188             0.0000000000
     21794       188  OSM       O12           -28.2880322898      -34.4128591340      -21.8762252812  MEMB      188             0.0000000000
     21795       188  OSM       C1S           -28.2588444814      -37.6416838170      -19.9396105404  MEMB      188             0.0000000000
     21796       188  OSM       H1S           -27.9057690401      -38.5454159961      -20.4808377619  MEMB      188             0.0000000000
     21797       188  OSM       H1T           -29.3565503605      -37.4964982567      -19.8485946189  MEMB      188             0.0000000000
     21798       188  OSM       NF            -27.8185048087      -36.5850028402      -17.6274365445  MEMB      188             0.0000000000
     21799       188  OSM       HNF           -27.0194108455      -36.2342486643      -17.1453271208  MEMB      188             0.0000000000
     21800       188  OSM       C2S           -27.6632263223      -37.7689373859      -18.4416592139  MEMB      188             0.0000000000
     21801       188  OSM       H2S           -28.2317750540      -38.6269704147      -18.0235048740  MEMB      188             0.0000000000
     21802       188  OSM       C3S           -26.1050701312      -38.1343499584      -18.4056137751  MEMB      188             0.0000000000
     21803       188  OSM       H3S           -25.5469619498      -37.2624421808      -18.8088669461  MEMB      188             0.0000000000
     21804       188  OSM       O3            -25.7832019892      -39.2560042181      -19.2881157982  MEMB      188             0.0000000000
     21805       188  OSM       HO3           -26.5889969080      -39.7161052527      -19.5342897924  MEMB      188             0.0000000000
     21806       188  OSM       C4S           -25.6913466287      -38.4286168674      -16.9984954249  MEMB      188             0.0000000000
     21807       188  OSM       H4S           -25.2586118822      -37.6412983624      -16.3637746369  MEMB      188             0.0000000000
     21808       188  OSM       C5S           -25.8262983256      -39.6242041950      -16.3432313305  MEMB      188             0.0000000000
     21809       188  OSM       H5S           -25.9867380222      -40.5399143068      -16.9312224633  MEMB      188             0.0000000000
     21810       188  OSM       C6S           -25.4140328478      -39.9290437998      -14.9373467301  MEMB      188             0.0000000000
     21811       188  OSM       H6S           -24.4296874606      -40.4338116201      -15.0402780053  MEMB      188             0.0000000000
     21812       188  OSM       H6T           -26.0583796940      -40.7788008291      -14.6258162133  MEMB      188             0.0000000000
     21813       188  OSM       C7S           -25.4999437827      -38.7788269322      -13.9060793054  MEMB      188             0.0000000000
     21814       188  OSM       H7S           -24.7824817865      -37.9778068530      -14.1852495451  MEMB      188             0.0000000000
     21815       188  OSM       H7T           -25.1192404727      -39.1648599869      -12.9363549624  MEMB      188             0.0000000000
     21816       188  OSM       C8S           -26.8442658091      -38.1710417382      -13.8309820956  MEMB      188             0.0000000000
     21817       188  OSM       H8S           -27.6290620055      -38.9420033629      -13.6759520865  MEMB      188             0.0000000000
     21818       188  OSM       H8T           -27.1080293979      -37.6845741552      -14.7943610661  MEMB      188             0.0000000000
     21819       188  OSM       C9S           -26.9935182035      -37.0839124587      -12.7998000059  MEMB      188             0.0000000000
     21820       188  OSM       H9S           -27.8217601652      -36.4150527305      -13.1175468125  MEMB      188             0.0000000000
     21821       188  OSM       H9T           -26.1157752292      -36.4218725427      -12.9597729848  MEMB      188             0.0000000000
     21822       188  OSM       C10S          -26.9157927328      -37.5637859764      -11.3280366343  MEMB      188             0.0000000000
     21823       188  OSM       H10S          -25.9256631569      -37.9057053571      -10.9578266692  MEMB      188             0.0000000000
     21824       188  OSM       H10T          -27.6871180991      -38.3547274549      -11.2106064237  MEMB      188             0.0000000000
     21825       188  OSM       C11S          -27.4177686893      -36.4354842178      -10.3268644895  MEMB      188             0.0000000000
     21826       188  OSM       H11S          -28.4881823808      -36.1695617928      -10.4603600142  MEMB      188             0.0000000000
     21827       188  OSM       H11T          -26.8843290312      -35.5250621909      -10.6745639620  MEMB      188             0.0000000000
     21828       188  OSM       C12S          -27.0492687119      -36.7566903284       -8.8622464983  MEMB      188             0.0000000000
     21829       188  OSM       H12S          -25.9772525963      -37.0374984250       -8.7831930608  MEMB      188             0.0000000000
     21830       188  OSM       H12T          -27.6244876915      -37.6579003018       -8.5601449507  MEMB      188             0.0000000000
     21831       188  OSM       C13S          -27.4244915303      -35.6071487882       -7.9048388054  MEMB      188             0.0000000000
     21832       188  OSM       H13S          -28.5071137551      -35.3576775414       -7.9086210828  MEMB      188             0.0000000000
     21833       188  OSM       H13T          -26.8471791321      -34.6778187374       -8.0981691653  MEMB      188             0.0000000000
     21834       188  OSM       C14S          -27.0340710240      -35.8524654927       -6.4617029370  MEMB      188             0.0000000000
     21835       188  OSM       H14S          -26.8471981185      -34.8457295593       -6.0305618948  MEMB      188             0.0000000000
     21836       188  OSM       H14T          -26.0339155794      -36.3274294935       -6.3699457957  MEMB      188             0.0000000000
     21837       188  OSM       C15S          -27.9650051424      -36.5468053340       -5.4297130852  MEMB      188             0.0000000000
     21838       188  OSM       H15S          -27.2160305587      -36.8058761472       -4.6510986127  MEMB      188             0.0000000000
     21839       188  OSM       H15T          -28.4272075157      -37.3954277238       -5.9779192493  MEMB      188             0.0000000000
     21840       188  OSM       C16S          -29.1133679352      -35.6488426479       -4.9168140249  MEMB      188             0.0000000000
     21841       188  OSM       H16S          -29.6786164873      -35.4000234470       -5.8403430762  MEMB      188             0.0000000000
     21842       188  OSM       H16T          -28.7138295183      -34.7054161586       -4.4871205178  MEMB      188             0.0000000000
     21843       188  OSM       C17S          -30.0451098159      -36.3855564890       -3.9281917759  MEMB      188             0.0000000000
     21844       188  OSM       H17S          -30.5495619220      -37.1954441332       -4.4973418419  MEMB      188             0.0000000000
     21845       188  OSM       H17T          -30.9569593882      -35.7969610866       -3.6906905435  MEMB      188             0.0000000000
     21846       188  OSM       C18S          -29.4716512378      -36.9638369445       -2.6647246682  MEMB      188             0.0000000000
     21847       188  OSM       H18S          -30.2470866479      -37.2982419501       -1.9427876206  MEMB      188             0.0000000000
     21848       188  OSM       H18T          -28.8535702515      -36.2435149450       -2.0872880363  MEMB      188             0.0000000000
     21849       188  OSM       H18U          -28.6175518303      -37.6482480190       -2.8555565182  MEMB      188             0.0000000000
     21850       188  OSM       C1F           -28.9618150728      -35.9347786437      -17.2626957254  MEMB      188             0.0000000000
     21851       188  OSM       OF            -30.0489615627      -35.9515688618      -17.8638248682  MEMB      188             0.0000000000
     21852       188  OSM       C2F           -28.7883070181      -35.0092518504      -16.0625868579  MEMB      188             0.0000000000
     21853       188  OSM       H2F           -27.7784880353      -35.0083088712      -15.5993527100  MEMB      188             0.0000000000
     21854       188  OSM       H2G           -29.4867783789      -35.4879310235      -15.3433337889  MEMB      188             0.0000000000
     21855       188  OSM       C3F           -29.3768898134      -33.6371413749      -16.4640087055  MEMB      188             0.0000000000
     21856       188  OSM       H3F           -30.4002570712      -33.8032900723      -16.8633015033  MEMB      188             0.0000000000
     21857       188  OSM       H3G           -28.8381099307      -33.2329398879      -17.3475575135  MEMB      188             0.0000000000
     21858       188  OSM       C4F           -29.2659101862      -32.5221971619      -15.3730454369  MEMB      188             0.0000000000
     21859       188  OSM       H4F           -29.6888832042      -31.5361086323      -15.6612191318  MEMB      188             0.0000000000
     21860       188  OSM       H4G           -28.1745724975      -32.4618925861      -15.1738808826  MEMB      188             0.0000000000
     21861       188  OSM       C5F           -29.9371473503      -32.8187892103      -13.9957210531  MEMB      188             0.0000000000
     21862       188  OSM       H5F           -29.6306371753      -33.7909005184      -13.5537122009  MEMB      188             0.0000000000
     21863       188  OSM       H5G           -31.0318285821      -32.8227142988      -14.1854016192  MEMB      188             0.0000000000
     21864       188  OSM       C6F           -29.5440087475      -31.7089238031      -12.8982688077  MEMB      188             0.0000000000
     21865       188  OSM       H6F           -30.1284314801      -31.9261106535      -11.9787030570  MEMB      188             0.0000000000
     21866       188  OSM       H6G           -29.9681359468      -30.7891070045      -13.3547488547  MEMB      188             0.0000000000
     21867       188  OSM       C7F           -28.0002073444      -31.7474233896      -12.5626758777  MEMB      188             0.0000000000
     21868       188  OSM       H7F           -27.5636423274      -31.4294408274      -13.5335615544  MEMB      188             0.0000000000
     21869       188  OSM       H7G           -27.8310288488      -32.8236101692      -12.3446805705  MEMB      188             0.0000000000
     21870       188  OSM       C8F           -27.5555279871      -30.8185733965      -11.5137423883  MEMB      188             0.0000000000
     21871       188  OSM       H8F           -28.0694895164      -29.8573004198      -11.7284961208  MEMB      188             0.0000000000
     21872       188  OSM       H8G           -26.4566063266      -30.7169454953      -11.6416646979  MEMB      188             0.0000000000
     21873       188  OSM       C9F           -27.9638770662      -31.1740329849      -10.1274867007  MEMB      188             0.0000000000
     21874       188  OSM       H9F           -29.0189707485      -30.9260042956       -9.9397125506  MEMB      188             0.0000000000
     21875       188  OSM       C10F          -27.1688599282      -31.7165899640       -9.1768386170  MEMB      188             0.0000000000
     21876       188  OSM       H10F          -27.5940356204      -32.0260067194       -8.2106674931  MEMB      188             0.0000000000
     21877       188  OSM       C11F          -25.7285208147      -32.0914398900       -9.2346187679  MEMB      188             0.0000000000
     21878       188  OSM       H11F          -25.4276318540      -31.8491595797      -10.2762944089  MEMB      188             0.0000000000
     21879       188  OSM       H11G          -25.5750642263      -33.1740959062       -9.0380792639  MEMB      188             0.0000000000
     21880       188  OSM       C12F          -24.7998600141      -31.2314031888       -8.3995131720  MEMB      188             0.0000000000
     21881       188  OSM       H12F          -24.9827672681      -30.2033227029       -8.7788764450  MEMB      188             0.0000000000
     21882       188  OSM       H12G          -23.7834982410      -31.4233020170       -8.8051046541  MEMB      188             0.0000000000
     21883       188  OSM       C13F          -25.0449760241      -31.3612465378       -6.8935532123  MEMB      188             0.0000000000
     21884       188  OSM       H13F          -26.0936188983      -31.2368699030       -6.5483002749  MEMB      188             0.0000000000
     21885       188  OSM       H13G          -24.6307396796      -30.5279808164       -6.2865956908  MEMB      188             0.0000000000
     21886       188  OSM       C14F          -24.6195061974      -32.7130875993       -6.3855897574  MEMB      188             0.0000000000
     21887       188  OSM       H14F          -23.5430955880      -32.8221765253       -6.6380985010  MEMB      188             0.0000000000
     21888       188  OSM       H14G          -25.2346488840      -33.5442277802       -6.7919476798  MEMB      188             0.0000000000
     21889       188  OSM       C15F          -24.7750878387      -32.8001687605       -4.8340854389  MEMB      188             0.0000000000
     21890       188  OSM       H15F          -24.3109192277      -31.8625567282       -4.4602522173  MEMB      188             0.0000000000
     21891       188  OSM       H15G          -24.0689648838      -33.5983743044       -4.5201113588  MEMB      188             0.0000000000
     21892       188  OSM       C16F          -26.1680803243      -32.9250978419       -4.1845136743  MEMB      188             0.0000000000
     21893       188  OSM       H16F          -26.2626293512      -33.8765647872       -3.6187453875  MEMB      188             0.0000000000
     21894       188  OSM       H16G          -26.9136971235      -32.7684087565       -4.9931078532  MEMB      188             0.0000000000
     21895       188  OSM       C17F          -26.4663080073      -31.8783605492       -3.0920690341  MEMB      188             0.0000000000
     21896       188  OSM       H17F          -26.1086724097      -30.8578053520       -3.3467939015  MEMB      188             0.0000000000
     21897       188  OSM       H17G          -25.9239660283      -32.2410467912       -2.1928213625  MEMB      188             0.0000000000
     21898       188  OSM       C18F          -27.9083579845      -31.7682291918       -2.5422417809  MEMB      188             0.0000000000
     21899       188  OSM       H18F          -28.6826431938      -31.7065455906       -3.3365963453  MEMB      188             0.0000000000
     21900       188  OSM       H18G          -27.9800593490      -30.8153468043       -1.9755016968  MEMB      188             0.0000000000
     21901       188  OSM       H18H          -28.2700884900      -32.6336584853       -1.9468401281  MEMB      188             0.0000000000
     21902       189  CHL1      C3             32.9977773070       30.1672814292      -17.3415400000  MEMB      189             0.0000000000
     21903       189  CHL1      H3             33.5040119307       29.1808590801      -17.2705900000  MEMB      189             0.0000000000
     21904       189  CHL1      O3             33.0715988930       30.7220813708      -18.6584600000  MEMB      189             0.0000000000
     21905       189  CHL1      H3'            33.9197982759       31.1581580880      -18.7680100000  MEMB      189             0.0000000000
     21906       189  CHL1      C4             31.4930511857       29.8357380778      -17.2178800000  MEMB      189             0.0000000000
     21907       189  CHL1      H4A            30.8517389673       30.7037467224      -17.4816900000  MEMB      189             0.0000000000
     21908       189  CHL1      H4B            31.3150615952       29.0420355309      -17.9746300000  MEMB      189             0.0000000000
     21909       189  CHL1      C5             31.1721299005       29.4208465961      -15.8301700000  MEMB      189             0.0000000000
     21910       189  CHL1      C6             30.4915170742       28.3048195763      -15.5523500000  MEMB      189             0.0000000000
     21911       189  CHL1      H6             30.3202560902       27.5606757325      -16.3441300000  MEMB      189             0.0000000000
     21912       189  CHL1      C7             30.1641101325       27.8322046517      -14.1616600000  MEMB      189             0.0000000000
     21913       189  CHL1      H7A            29.1201963645       27.4554999457      -14.1101900000  MEMB      189             0.0000000000
     21914       189  CHL1      H7B            30.9676676989       27.0848635252      -13.9881400000  MEMB      189             0.0000000000
     21915       189  CHL1      C8             30.1109751379       29.0154282869      -13.0573000000  MEMB      189             0.0000000000
     21916       189  CHL1      H8             29.1766250652       29.5830721466      -13.2550100000  MEMB      189             0.0000000000
     21917       189  CHL1      C14            30.1929378883       28.5777168513      -11.6034900000  MEMB      189             0.0000000000
     21918       189  CHL1      H14            31.1880694095       28.0858997126      -11.5571400000  MEMB      189             0.0000000000
     21919       189  CHL1      C15            29.2982089588       27.4318114911      -11.0940700000  MEMB      189             0.0000000000
     21920       189  CHL1      H15A           28.2482724994       27.6466869369      -11.3869600000  MEMB      189             0.0000000000
     21921       189  CHL1      H15B           29.5599139761       26.4311565719      -11.4996700000  MEMB      189             0.0000000000
     21922       189  CHL1      C16            29.4813675323       27.4104486972       -9.6004700000  MEMB      189             0.0000000000
     21923       189  CHL1      H16A           28.5096236858       27.6316022468       -9.1094100000  MEMB      189             0.0000000000
     21924       189  CHL1      H16B           29.8680585314       26.5275892196       -9.0479000000  MEMB      189             0.0000000000
     21925       189  CHL1      C17            30.4049533951       28.6344082278       -9.3216500000  MEMB      189             0.0000000000
     21926       189  CHL1      H17            31.4281996126       28.2273806943       -9.4686900000  MEMB      189             0.0000000000
     21927       189  CHL1      C13            30.2590690739       29.6034490371      -10.5043100000  MEMB      189             0.0000000000
     21928       189  CHL1      C18            28.8873225200       30.2794265384      -10.4263900000  MEMB      189             0.0000000000
     21929       189  CHL1      H18A           28.8854292361       31.0783452079       -9.6543500000  MEMB      189             0.0000000000
     21930       189  CHL1      H18B           28.7188334020       30.7863887828      -11.4005200000  MEMB      189             0.0000000000
     21931       189  CHL1      H18C           28.0144720582       29.5954264048      -10.3586100000  MEMB      189             0.0000000000
     21932       189  CHL1      C12            31.3408626352       30.6093179346      -10.7639300000  MEMB      189             0.0000000000
     21933       189  CHL1      H12A           31.1920474621       31.4860592130      -10.0979700000  MEMB      189             0.0000000000
     21934       189  CHL1      H12B           32.3553161060       30.1953815224      -10.5798800000  MEMB      189             0.0000000000
     21935       189  CHL1      C11            31.3334306656       31.0989551944      -12.2310100000  MEMB      189             0.0000000000
     21936       189  CHL1      H11A           30.4357404935       31.7499127588      -12.2997800000  MEMB      189             0.0000000000
     21937       189  CHL1      H11B           32.1900550106       31.7835374246      -12.4095700000  MEMB      189             0.0000000000
     21938       189  CHL1      C9             31.2662626729       29.9431297389      -13.2724400000  MEMB      189             0.0000000000
     21939       189  CHL1      H9             32.1468691591       29.2930466324      -13.0820600000  MEMB      189             0.0000000000
     21940       189  CHL1      C10            31.5119652127       30.4126632828      -14.7263500000  MEMB      189             0.0000000000
     21941       189  CHL1      C19            30.5670260715       31.6746314630      -15.0039500000  MEMB      189             0.0000000000
     21942       189  CHL1      H19A           30.8149984014       32.1669481268      -15.9685400000  MEMB      189             0.0000000000
     21943       189  CHL1      H19B           29.4832288034       31.4323964819      -14.9717900000  MEMB      189             0.0000000000
     21944       189  CHL1      H19C           30.6804076483       32.4256018082      -14.1930800000  MEMB      189             0.0000000000
     21945       189  CHL1      C1             33.1076285990       30.6685823738      -14.8101400000  MEMB      189             0.0000000000
     21946       189  CHL1      H1A            33.3986145014       31.5143282497      -14.1510800000  MEMB      189             0.0000000000
     21947       189  CHL1      H1B            33.6007286312       29.6905276831      -14.6241800000  MEMB      189             0.0000000000
     21948       189  CHL1      C2             33.5399759177       31.1036715768      -16.2546700000  MEMB      189             0.0000000000
     21949       189  CHL1      H2A            34.6476453361       31.1588650956      -16.3204700000  MEMB      189             0.0000000000
     21950       189  CHL1      H2B            33.0774256694       32.0921406184      -16.4627600000  MEMB      189             0.0000000000
     21951       189  CHL1      C20            30.3994680819       29.1825812590       -7.8362300000  MEMB      189             0.0000000000
     21952       189  CHL1      H20            30.6893516716       30.2434270700       -7.9940500000  MEMB      189             0.0000000000
     21953       189  CHL1      C21            31.5555706420       28.5057389321       -7.0385700000  MEMB      189             0.0000000000
     21954       189  CHL1      H21A           31.4102139644       27.4043002769       -7.0425700000  MEMB      189             0.0000000000
     21955       189  CHL1      H21B           31.6469519812       28.7363105777       -5.9556100000  MEMB      189             0.0000000000
     21956       189  CHL1      H21C           32.5144129635       28.7422337199       -7.5475000000  MEMB      189             0.0000000000
     21957       189  CHL1      C22            29.0106365852       29.1510881056       -7.1812200000  MEMB      189             0.0000000000
     21958       189  CHL1      H22A           28.2898309604       29.4861800819       -7.9574200000  MEMB      189             0.0000000000
     21959       189  CHL1      H22B           28.6229523301       28.1215606158       -7.0259900000  MEMB      189             0.0000000000
     21960       189  CHL1      C23            28.9563684562       29.8697473327       -5.8511600000  MEMB      189             0.0000000000
     21961       189  CHL1      H23A           27.9236123011       30.1948607014       -5.6020900000  MEMB      189             0.0000000000
     21962       189  CHL1      H23B           29.3712385739       29.2624559660       -5.0184600000  MEMB      189             0.0000000000
     21963       189  CHL1      C24            29.6826820354       31.2970791172       -5.6950800000  MEMB      189             0.0000000000
     21964       189  CHL1      H24A           30.7319863795       31.2498442659       -6.0570900000  MEMB      189             0.0000000000
     21965       189  CHL1      H24B           29.1232241204       31.9726122935       -6.3769800000  MEMB      189             0.0000000000
     21966       189  CHL1      C25            29.6769841439       31.8009699476       -4.1722900000  MEMB      189             0.0000000000
     21967       189  CHL1      H25            28.7521201591       31.4958483347       -3.6376400000  MEMB      189             0.0000000000
     21968       189  CHL1      C26            30.7218502593       31.1340449880       -3.3059900000  MEMB      189             0.0000000000
     21969       189  CHL1      H26A           30.7898014958       30.0251323316       -3.3020700000  MEMB      189             0.0000000000
     21970       189  CHL1      H26B           31.7882982923       31.4220070611       -3.4246600000  MEMB      189             0.0000000000
     21971       189  CHL1      H26C           30.5572359061       31.4337560430       -2.2489200000  MEMB      189             0.0000000000
     21972       189  CHL1      C27            29.9305730565       33.3479201698       -4.0617400000  MEMB      189             0.0000000000
     21973       189  CHL1      H27A           29.5835525479       33.8188368839       -3.1172100000  MEMB      189             0.0000000000
     21974       189  CHL1      H27B           31.0053039928       33.6279491217       -4.0325800000  MEMB      189             0.0000000000
     21975       189  CHL1      H27C           29.4828459543       33.9460686119       -4.8839800000  MEMB      189             0.0000000000
     21976       190  SAPS      N              28.8929850197      -35.2182707872      -19.6443697497  MEMB      190             0.0000000000
     21977       190  SAPS      HN1            29.1180290904      -35.5048819343      -18.6703013883  MEMB      190             0.0000000000
     21978       190  SAPS      HN2            28.8877371717      -34.1880225809      -19.7863589253  MEMB      190             0.0000000000
     21979       190  SAPS      HN3            27.9855891038      -35.7084393421      -19.7784122842  MEMB      190             0.0000000000
     21980       190  SAPS      C12            29.8997559905      -35.7666371771      -20.5046145475  MEMB      190             0.0000000000
     21981       190  SAPS      H12A           30.2291347315      -36.6745794046      -20.0213438391  MEMB      190             0.0000000000
     21982       190  SAPS      C13            29.5909199133      -36.1943679612      -21.9610659890  MEMB      190             0.0000000000
     21983       190  SAPS      O13A           28.4167356377      -36.0474673781      -22.4096258944  MEMB      190             0.0000000000
     21984       190  SAPS      O13B           30.2714273607      -37.1928373280      -22.3665236971  MEMB      190             0.0000000000
     21985       190  SAPS      C11            31.1797916005      -34.8861310077      -20.6219239803  MEMB      190             0.0000000000
     21986       190  SAPS      H11A           30.7949315419      -33.9266029832      -21.0287528165  MEMB      190             0.0000000000
     21987       190  SAPS      H11B           31.8839558744      -35.4222032055      -21.2935639965  MEMB      190             0.0000000000
     21988       190  SAPS      P              32.6804670443      -35.6533050311      -18.5036742247  MEMB      190             0.0000000000
     21989       190  SAPS      O13            31.7141426040      -36.4097514657      -17.6591995508  MEMB      190             0.0000000000
     21990       190  SAPS      O14            33.5888652731      -36.3959822951      -19.3843351882  MEMB      190             0.0000000000
     21991       190  SAPS      O12            31.8494693108      -34.5953172102      -19.3870487024  MEMB      190             0.0000000000
     21992       190  SAPS      O11            33.5835780524      -34.7510782532      -17.5576185047  MEMB      190             0.0000000000
     21993       190  SAPS      C1             34.2528188748      -33.5621514518      -17.9479300187  MEMB      190             0.0000000000
     21994       190  SAPS      HA             35.3425268066      -33.6967240548      -17.7783770777  MEMB      190             0.0000000000
     21995       190  SAPS      HB             34.0046971964      -33.1547168875      -18.9513010762  MEMB      190             0.0000000000
     21996       190  SAPS      C2             33.8748317412      -32.3438326749      -17.0470082371  MEMB      190             0.0000000000
     21997       190  SAPS      HS             34.5785454516      -31.5217047554      -17.2984315897  MEMB      190             0.0000000000
     21998       190  SAPS      O21            34.0261143771      -32.6920868184      -15.6770210242  MEMB      190             0.0000000000
     21999       190  SAPS      C21            34.1343255761      -31.7428965140      -14.7766537149  MEMB      190             0.0000000000
     22000       190  SAPS      O22            34.1156697462      -30.5585456865      -15.0393443875  MEMB      190             0.0000000000
     22001       190  SAPS      C22            34.1151987668      -32.3622506389      -13.3927621539  MEMB      190             0.0000000000
     22002       190  SAPS      H2R            33.0222479013      -32.4469348116      -13.2121851780  MEMB      190             0.0000000000
     22003       190  SAPS      H2S            34.5577147526      -33.3762484019      -13.2912278265  MEMB      190             0.0000000000
     22004       190  SAPS      C3             32.4613025405      -31.8190881926      -17.3820439097  MEMB      190             0.0000000000
     22005       190  SAPS      HX             32.4946139102      -31.7501708989      -18.4904036747  MEMB      190             0.0000000000
     22006       190  SAPS      HY             32.2310476731      -30.8518390366      -16.8863298178  MEMB      190             0.0000000000
     22007       190  SAPS      O31            31.4555221616      -32.7324725196      -17.0785949102  MEMB      190             0.0000000000
     22008       190  SAPS      C31            30.6731376820      -32.5488217141      -15.9977748728  MEMB      190             0.0000000000
     22009       190  SAPS      O32            30.6832177165      -31.5446355782      -15.2926819091  MEMB      190             0.0000000000
     22010       190  SAPS      C32            29.8329951583      -33.8213863971      -15.6895530769  MEMB      190             0.0000000000
     22011       190  SAPS      H2X            29.7429845300      -34.4015441842      -16.6327583317  MEMB      190             0.0000000000
     22012       190  SAPS      H2Y            28.8345197656      -33.4139473091      -15.4224173275  MEMB      190             0.0000000000
     22013       190  SAPS      C23            34.7282208998      -31.3190545252      -12.4028488796  MEMB      190             0.0000000000
     22014       190  SAPS      H3R            34.4035494094      -30.2634510569      -12.5237250740  MEMB      190             0.0000000000
     22015       190  SAPS      H3S            35.7863847391      -31.1250670877      -12.6803005309  MEMB      190             0.0000000000
     22016       190  SAPS      C24            34.5172798072      -31.7310965853      -10.9553408734  MEMB      190             0.0000000000
     22017       190  SAPS      H4R            35.0624148571      -31.0061316646      -10.3137999520  MEMB      190             0.0000000000
     22018       190  SAPS      H4S            34.9862179485      -32.7355405244      -10.8811117438  MEMB      190             0.0000000000
     22019       190  SAPS      C25            33.0855489925      -31.7300387184      -10.5632850814  MEMB      190             0.0000000000
     22020       190  SAPS      H5R            32.5589265143      -30.7954495216      -10.8066195989  MEMB      190             0.0000000000
     22021       190  SAPS      C26            32.5101846047      -32.6747531221       -9.8050807899  MEMB      190             0.0000000000
     22022       190  SAPS      H6R            31.4699085115      -32.4979226138       -9.4943452044  MEMB      190             0.0000000000
     22023       190  SAPS      C27            33.2295767941      -33.8496889284       -9.1387184776  MEMB      190             0.0000000000
     22024       190  SAPS      H7R            32.7232852059      -34.0574071104       -8.1718454422  MEMB      190             0.0000000000
     22025       190  SAPS      H7S            34.2694390513      -33.5720546623       -8.8631699353  MEMB      190             0.0000000000
     22026       190  SAPS      C28            33.2023160935      -35.0905537875       -9.8598411124  MEMB      190             0.0000000000
     22027       190  SAPS      H8R            33.2502083342      -35.0580325604      -10.9583168556  MEMB      190             0.0000000000
     22028       190  SAPS      C29            33.1969608024      -36.2817828105       -9.3053445041  MEMB      190             0.0000000000
     22029       190  SAPS      H9R            33.0553992507      -37.2057894583       -9.8851488201  MEMB      190             0.0000000000
     22030       190  SAPS      C210           33.2489927168      -36.4570402740       -7.7875658298  MEMB      190             0.0000000000
     22031       190  SAPS      H10R           32.2573313251      -36.2894611732       -7.3154999406  MEMB      190             0.0000000000
     22032       190  SAPS      H10S           33.7154877360      -35.5362708167       -7.3766072041  MEMB      190             0.0000000000
     22033       190  SAPS      C211           33.9302219130      -37.7390120714       -7.4587329371  MEMB      190             0.0000000000
     22034       190  SAPS      H11R           34.9291092214      -37.9108117300       -7.8861776024  MEMB      190             0.0000000000
     22035       190  SAPS      C212           33.4106395297      -38.6537012081       -6.5511172070  MEMB      190             0.0000000000
     22036       190  SAPS      H12R           34.0877988798      -39.4643573404       -6.2440478573  MEMB      190             0.0000000000
     22037       190  SAPS      C213           32.0960434316      -38.3914597362       -5.7975690959  MEMB      190             0.0000000000
     22038       190  SAPS      H13R           31.2432969390      -38.1562156163       -6.4697338910  MEMB      190             0.0000000000
     22039       190  SAPS      H13S           32.1751739616      -37.4430724185       -5.2243145808  MEMB      190             0.0000000000
     22040       190  SAPS      C214           31.7669509102      -39.4084133954       -4.7342766931  MEMB      190             0.0000000000
     22041       190  SAPS      H14R           30.8118433252      -39.9460501626       -4.8276386065  MEMB      190             0.0000000000
     22042       190  SAPS      C215           32.5323773061      -39.5461403653       -3.6824356807  MEMB      190             0.0000000000
     22043       190  SAPS      H15R           32.2390117154      -40.4085090080       -3.0657866873  MEMB      190             0.0000000000
     22044       190  SAPS      C216           33.8207327768      -38.7802688988       -3.2599321784  MEMB      190             0.0000000000
     22045       190  SAPS      H16R           34.1561512960      -37.9422597821       -3.9076647117  MEMB      190             0.0000000000
     22046       190  SAPS      H16S           34.7337993871      -39.4116137129       -3.2148389102  MEMB      190             0.0000000000
     22047       190  SAPS      C217           33.6182663086      -38.1574828261       -1.9220537617  MEMB      190             0.0000000000
     22048       190  SAPS      H17R           32.6883493838      -37.5497098034       -1.9357493093  MEMB      190             0.0000000000
     22049       190  SAPS      H17S           34.4897445567      -37.4870010340       -1.7629926976  MEMB      190             0.0000000000
     22050       190  SAPS      C218           33.7591527875      -39.0836004234       -0.7487413842  MEMB      190             0.0000000000
     22051       190  SAPS      H18R           34.1766724352      -40.0732143613       -1.0327550481  MEMB      190             0.0000000000
     22052       190  SAPS      H18S           32.7397415683      -39.4149217704       -0.4565979216  MEMB      190             0.0000000000
     22053       190  SAPS      C219           34.2625477835      -38.4439269538        0.5362134351  MEMB      190             0.0000000000
     22054       190  SAPS      H19R           33.8420275336      -37.4161913870        0.5714755330  MEMB      190             0.0000000000
     22055       190  SAPS      H19S           35.3639025985      -38.3377656904        0.6365535501  MEMB      190             0.0000000000
     22056       190  SAPS      C220           33.7957918130      -39.2166535614        1.8053806813  MEMB      190             0.0000000000
     22057       190  SAPS      H20R           32.7103764263      -39.4450261544        1.7418165961  MEMB      190             0.0000000000
     22058       190  SAPS      H20S           34.1104131796      -38.6578368069        2.7126070506  MEMB      190             0.0000000000
     22059       190  SAPS      H20T           34.3348770059      -40.1878370460        1.8279824857  MEMB      190             0.0000000000
     22060       190  SAPS      C33            30.4410278488      -34.8714829955      -14.6859373779  MEMB      190             0.0000000000
     22061       190  SAPS      H3X            31.5493316796      -34.9452764335      -14.7091298143  MEMB      190             0.0000000000
     22062       190  SAPS      H3Y            29.9952140172      -35.8141035215      -15.0693925986  MEMB      190             0.0000000000
     22063       190  SAPS      C34            30.1032845759      -34.7342120550      -13.2542794306  MEMB      190             0.0000000000
     22064       190  SAPS      H4X            30.2616814582      -33.6550691620      -13.0428978551  MEMB      190             0.0000000000
     22065       190  SAPS      H4Y            30.7798448453      -35.2638644630      -12.5499671335  MEMB      190             0.0000000000
     22066       190  SAPS      C35            28.6644350905      -35.0051596224      -12.8336489605  MEMB      190             0.0000000000
     22067       190  SAPS      H5X            28.3254805218      -36.0032255648      -13.1847829202  MEMB      190             0.0000000000
     22068       190  SAPS      H5Y            27.9614089932      -34.2805697989      -13.2973781216  MEMB      190             0.0000000000
     22069       190  SAPS      C36            28.3281660306      -34.9490733206      -11.2936149202  MEMB      190             0.0000000000
     22070       190  SAPS      H6X            27.2399862997      -35.1307561953      -11.1625515959  MEMB      190             0.0000000000
     22071       190  SAPS      H6Y            28.5406976097      -33.9532744494      -10.8491642053  MEMB      190             0.0000000000
     22072       190  SAPS      C37            29.0027064060      -35.9878635201      -10.3484292300  MEMB      190             0.0000000000
     22073       190  SAPS      H7X            30.0602581020      -35.6588545733      -10.2609141721  MEMB      190             0.0000000000
     22074       190  SAPS      H7Y            28.8938968156      -37.0043400787      -10.7834656658  MEMB      190             0.0000000000
     22075       190  SAPS      C38            28.2283418945      -36.1221886347       -8.9349018906  MEMB      190             0.0000000000
     22076       190  SAPS      H8X            28.4320759732      -37.1132800028       -8.4760435818  MEMB      190             0.0000000000
     22077       190  SAPS      H8Y            27.1568869515      -36.1398824925       -9.2281449936  MEMB      190             0.0000000000
     22078       190  SAPS      C39            28.3202934514      -34.9728218586       -7.8603413108  MEMB      190             0.0000000000
     22079       190  SAPS      H9X            27.6918346487      -35.2931358828       -7.0019947196  MEMB      190             0.0000000000
     22080       190  SAPS      H9Y            27.9386958697      -34.0087277824       -8.2593735658  MEMB      190             0.0000000000
     22081       190  SAPS      C310           29.7424604082      -34.7853706058       -7.2054370248  MEMB      190             0.0000000000
     22082       190  SAPS      H10X           30.4862092047      -34.3605921468       -7.9130541448  MEMB      190             0.0000000000
     22083       190  SAPS      H10Y           30.1068072490      -35.7694015032       -6.8403945262  MEMB      190             0.0000000000
     22084       190  SAPS      C311           29.7354280748      -33.8748407875       -6.0050996212  MEMB      190             0.0000000000
     22085       190  SAPS      H11X           29.3345716514      -34.4094566450       -5.1175064589  MEMB      190             0.0000000000
     22086       190  SAPS      H11Y           29.1547890089      -32.9280961451       -6.0343161885  MEMB      190             0.0000000000
     22087       190  SAPS      C312           31.1423553121      -33.4760944770       -5.5196024060  MEMB      190             0.0000000000
     22088       190  SAPS      H12X           31.5364051747      -32.6464327999       -6.1446686477  MEMB      190             0.0000000000
     22089       190  SAPS      H12Y           31.7227201607      -34.3904915792       -5.7673435486  MEMB      190             0.0000000000
     22090       190  SAPS      C313           31.3638147803      -33.0692501575       -4.0219224210  MEMB      190             0.0000000000
     22091       190  SAPS      H13X           31.0955280679      -33.8437281919       -3.2719038418  MEMB      190             0.0000000000
     22092       190  SAPS      H13Y           30.7764707611      -32.1425515459       -3.8470581835  MEMB      190             0.0000000000
     22093       190  SAPS      C314           32.8131989850      -32.7480885410       -3.7004060952  MEMB      190             0.0000000000
     22094       190  SAPS      H14X           32.8667124662      -32.3407004682       -2.6681780295  MEMB      190             0.0000000000
     22095       190  SAPS      H14Y           33.0111588327      -31.9136915176       -4.4067437973  MEMB      190             0.0000000000
     22096       190  SAPS      C315           33.7337402572      -33.8935008182       -4.0280713935  MEMB      190             0.0000000000
     22097       190  SAPS      H15X           34.1583013471      -33.6810989238       -5.0325394685  MEMB      190             0.0000000000
     22098       190  SAPS      H15Y           33.1339015848      -34.8286481557       -4.0243153076  MEMB      190             0.0000000000
     22099       190  SAPS      C316           34.8939831066      -33.8849805956       -2.9787746163  MEMB      190             0.0000000000
     22100       190  SAPS      H16X           35.3798118066      -32.8858828358       -2.9690087819  MEMB      190             0.0000000000
     22101       190  SAPS      H16Y           35.6870891287      -34.5621746473       -3.3618043471  MEMB      190             0.0000000000
     22102       190  SAPS      C317           34.4098396326      -34.2886406149       -1.5707623478  MEMB      190             0.0000000000
     22103       190  SAPS      H17X           33.5874393857      -35.0332070324       -1.6307608026  MEMB      190             0.0000000000
     22104       190  SAPS      H17Y           33.8645487648      -33.4472532773       -1.0921749727  MEMB      190             0.0000000000
     22105       190  SAPS      C318           35.5551645653      -34.9233680672       -0.7750937789  MEMB      190             0.0000000000
     22106       190  SAPS      H18X           35.1891598095      -35.3261430956        0.1934793131  MEMB      190             0.0000000000
     22107       190  SAPS      H18Y           36.3246389101      -34.1273394072       -0.6825297352  MEMB      190             0.0000000000
     22108       190  SAPS      H18Z           36.1304218320      -35.6727775117       -1.3597184394  MEMB      190             0.0000000000
     22109       191  CHL1      C3            -35.1919226053      -29.2812462270      -17.2911650000  MEMB      191             0.0000000000
     22110       191  CHL1      H3            -34.5741162132      -30.1645308835      -17.0220050000  MEMB      191             0.0000000000
     22111       191  CHL1      O3            -35.2554577002      -29.1169408798      -18.7088350000  MEMB      191             0.0000000000
     22112       191  CHL1      H3'           -34.3252104931      -28.9127525839      -18.8294150000  MEMB      191             0.0000000000
     22113       191  CHL1      C4            -36.6918300102      -29.5504766454      -16.9201250000  MEMB      191             0.0000000000
     22114       191  CHL1      H4A           -37.3050810377      -28.7735496321      -17.4247450000  MEMB      191             0.0000000000
     22115       191  CHL1      H4B           -37.0206062573      -30.5411236129      -17.3007150000  MEMB      191             0.0000000000
     22116       191  CHL1      C5            -36.9054207594      -29.5673483837      -15.4845150000  MEMB      191             0.0000000000
     22117       191  CHL1      C6            -37.4425280594      -30.6260766237      -14.8920550000  MEMB      191             0.0000000000
     22118       191  CHL1      H6            -37.6867780082      -31.5471823445      -15.4415050000  MEMB      191             0.0000000000
     22119       191  CHL1      C7            -37.5151131345      -30.6451088852      -13.4203350000  MEMB      191             0.0000000000
     22120       191  CHL1      H7A           -38.5312026272      -30.9591313835      -13.0989650000  MEMB      191             0.0000000000
     22121       191  CHL1      H7B           -36.7146827873      -31.3079636413      -13.0275850000  MEMB      191             0.0000000000
     22122       191  CHL1      C8            -37.4068347927      -29.2389870824      -12.7138250000  MEMB      191             0.0000000000
     22123       191  CHL1      H8            -38.3079429975      -28.6422577812      -12.9711950000  MEMB      191             0.0000000000
     22124       191  CHL1      C14           -37.4860163840      -29.4172312523      -11.2660050000  MEMB      191             0.0000000000
     22125       191  CHL1      H14           -36.7353505020      -30.1708644667      -10.9452950000  MEMB      191             0.0000000000
     22126       191  CHL1      C15           -38.6681491895      -30.1943731744      -10.6321850000  MEMB      191             0.0000000000
     22127       191  CHL1      H15A          -39.5852940604      -29.7016979810      -11.0200650000  MEMB      191             0.0000000000
     22128       191  CHL1      H15B          -38.5306641807      -31.2683994324      -10.8809250000  MEMB      191             0.0000000000
     22129       191  CHL1      C16           -38.5026946359      -29.9443177876       -9.0946250000  MEMB      191             0.0000000000
     22130       191  CHL1      H16A          -39.4131168471      -29.5593841922       -8.5874050000  MEMB      191             0.0000000000
     22131       191  CHL1      H16B          -38.1507007444      -30.8817734154       -8.6133850000  MEMB      191             0.0000000000
     22132       191  CHL1      C17           -37.3272330399      -28.9379349976       -8.9534050000  MEMB      191             0.0000000000
     22133       191  CHL1      H17           -36.4037084718      -29.5468826317       -9.0563750000  MEMB      191             0.0000000000
     22134       191  CHL1      C13           -37.2146705203      -28.1944857506      -10.3492250000  MEMB      191             0.0000000000
     22135       191  CHL1      C18           -38.2717727636      -27.1403399097      -10.4284750000  MEMB      191             0.0000000000
     22136       191  CHL1      H18A          -38.4830086108      -26.9423623268      -11.5010950000  MEMB      191             0.0000000000
     22137       191  CHL1      H18B          -39.2643969469      -27.5005360559      -10.0831350000  MEMB      191             0.0000000000
     22138       191  CHL1      H18C          -37.9307380721      -26.1897927544       -9.9653450000  MEMB      191             0.0000000000
     22139       191  CHL1      C12           -35.8437588403      -27.5904697277      -10.8385450000  MEMB      191             0.0000000000
     22140       191  CHL1      H12A          -35.6417258002      -26.6415621667      -10.2971750000  MEMB      191             0.0000000000
     22141       191  CHL1      H12B          -35.0515479444      -28.3319661211      -10.5999650000  MEMB      191             0.0000000000
     22142       191  CHL1      C11           -35.8803600902      -27.2882432697      -12.3457250000  MEMB      191             0.0000000000
     22143       191  CHL1      H11A          -36.8035611000      -26.6728642508      -12.4033450000  MEMB      191             0.0000000000
     22144       191  CHL1      H11B          -34.9721882680      -26.8103920632      -12.7714050000  MEMB      191             0.0000000000
     22145       191  CHL1      C9            -36.2077506726      -28.5872719334      -13.1449850000  MEMB      191             0.0000000000
     22146       191  CHL1      H9            -35.3774926830      -29.3148966412      -13.0202450000  MEMB      191             0.0000000000
     22147       191  CHL1      C10           -36.2117679256      -28.3701948239      -14.6993050000  MEMB      191             0.0000000000
     22148       191  CHL1      C19           -37.0571924643      -27.0347810777      -14.9396250000  MEMB      191             0.0000000000
     22149       191  CHL1      H19A          -38.1376118636      -27.1924486989      -14.7343650000  MEMB      191             0.0000000000
     22150       191  CHL1      H19B          -36.5685355080      -26.1632660946      -14.4538250000  MEMB      191             0.0000000000
     22151       191  CHL1      H19C          -37.0107109821      -26.8848863092      -16.0394850000  MEMB      191             0.0000000000
     22152       191  CHL1      C1            -34.7143371927      -28.1039621039      -15.1456150000  MEMB      191             0.0000000000
     22153       191  CHL1      H1A           -34.4030536542      -27.0934693776      -14.8045250000  MEMB      191             0.0000000000
     22154       191  CHL1      H1B           -34.0902655825      -28.9163936000      -14.7157150000  MEMB      191             0.0000000000
     22155       191  CHL1      C2            -34.6036406575      -28.0325341403      -16.6691650000  MEMB      191             0.0000000000
     22156       191  CHL1      H2A           -33.5191593129      -27.9118229732      -16.8780450000  MEMB      191             0.0000000000
     22157       191  CHL1      H2B           -34.9985665094      -27.0941892029      -17.1139850000  MEMB      191             0.0000000000
     22158       191  CHL1      C20           -37.3653289829      -28.0755280263       -7.6782350000  MEMB      191             0.0000000000
     22159       191  CHL1      H20           -38.2064584005      -27.3528045583       -7.6112650000  MEMB      191             0.0000000000
     22160       191  CHL1      C21           -36.0187832117      -27.4511454577       -7.5408950000  MEMB      191             0.0000000000
     22161       191  CHL1      H21A          -35.2110890293      -28.2079730199       -7.6366150000  MEMB      191             0.0000000000
     22162       191  CHL1      H21B          -35.8854016203      -26.8995000955       -6.5857950000  MEMB      191             0.0000000000
     22163       191  CHL1      H21C          -35.8422915192      -26.6658650817       -8.3067450000  MEMB      191             0.0000000000
     22164       191  CHL1      C22           -37.7623176501      -28.8859942339       -6.4072850000  MEMB      191             0.0000000000
     22165       191  CHL1      H22A          -38.7810520496      -29.2790025396       -6.6123750000  MEMB      191             0.0000000000
     22166       191  CHL1      H22B          -37.1014074010      -29.7756159566       -6.4852750000  MEMB      191             0.0000000000
     22167       191  CHL1      C23           -37.5698791668      -28.1692645717       -5.0159150000  MEMB      191             0.0000000000
     22168       191  CHL1      H23A          -36.4724101096      -28.2046338475       -4.8466850000  MEMB      191             0.0000000000
     22169       191  CHL1      H23B          -37.9399012543      -27.1236240044       -4.9524050000  MEMB      191             0.0000000000
     22170       191  CHL1      C24           -38.4153612420      -28.9900700979       -4.0001750000  MEMB      191             0.0000000000
     22171       191  CHL1      H24A          -39.4318732991      -28.5522858083       -4.0969550000  MEMB      191             0.0000000000
     22172       191  CHL1      H24B          -38.3903794136      -30.0934655306       -4.1275650000  MEMB      191             0.0000000000
     22173       191  CHL1      C25           -38.0204666076      -28.5989491256       -2.5847650000  MEMB      191             0.0000000000
     22174       191  CHL1      H25           -37.7698406583      -27.5247519435       -2.7174950000  MEMB      191             0.0000000000
     22175       191  CHL1      C26           -39.1255756370      -28.8686707742       -1.6808050000  MEMB      191             0.0000000000
     22176       191  CHL1      H26A          -39.9882044453      -28.2329877359       -1.9741950000  MEMB      191             0.0000000000
     22177       191  CHL1      H26B          -39.3787830689      -29.9385346034       -1.8408350000  MEMB      191             0.0000000000
     22178       191  CHL1      H26C          -38.8494448134      -28.7423931513       -0.6120950000  MEMB      191             0.0000000000
     22179       191  CHL1      C27           -36.8336895235      -29.4187783171       -2.1182650000  MEMB      191             0.0000000000
     22180       191  CHL1      H27A          -35.9882417369      -29.1714664224       -2.7952950000  MEMB      191             0.0000000000
     22181       191  CHL1      H27B          -36.4841140394      -29.1269466947       -1.1048750000  MEMB      191             0.0000000000
     22182       191  CHL1      H27C          -37.0987239996      -30.4942172538       -2.2049850000  MEMB      191             0.0000000000
     22183       192  SLPC      N             -34.1702095098       33.7818357672      -16.9694342282  MEMB      192             0.0000000000
     22184       192  SLPC      C13           -32.9560784754       34.2126488239      -17.8908338143  MEMB      192             0.0000000000
     22185       192  SLPC      H13A          -33.1154926500       35.2724588956      -18.0242108980  MEMB      192             0.0000000000
     22186       192  SLPC      H13B          -32.0159957903       34.0908951673      -17.3733198613  MEMB      192             0.0000000000
     22187       192  SLPC      H13C          -33.0656700364       33.6947306647      -18.8321894864  MEMB      192             0.0000000000
     22188       192  SLPC      C14           -33.8541539494       32.3275088251      -16.6953800773  MEMB      192             0.0000000000
     22189       192  SLPC      H14A          -33.9950765025       31.8555414302      -17.6565187583  MEMB      192             0.0000000000
     22190       192  SLPC      H14B          -32.8464520132       32.1518847202      -16.3488356971  MEMB      192             0.0000000000
     22191       192  SLPC      H14C          -34.6913452267       31.9491985000      -16.1275844086  MEMB      192             0.0000000000
     22192       192  SLPC      C15           -35.4568299224       33.9438728810      -17.7752623832  MEMB      192             0.0000000000
     22193       192  SLPC      H15A          -35.8835327158       34.9173560100      -17.5838072825  MEMB      192             0.0000000000
     22194       192  SLPC      H15B          -35.1764688078       33.8855453151      -18.8166055111  MEMB      192             0.0000000000
     22195       192  SLPC      H15C          -36.0381133154       33.1037267310      -17.4250280176  MEMB      192             0.0000000000
     22196       192  SLPC      C12           -34.1540068983       34.5647792863      -15.6635520052  MEMB      192             0.0000000000
     22197       192  SLPC      H12A          -33.2277347590       34.4826594608      -15.1143012693  MEMB      192             0.0000000000
     22198       192  SLPC      H12B          -34.7861248553       33.9668829202      -15.0237498210  MEMB      192             0.0000000000
     22199       192  SLPC      C11           -34.6566717260       36.0000658619      -15.6595145335  MEMB      192             0.0000000000
     22200       192  SLPC      H11A          -34.5076005711       36.5075061844      -14.6824767399  MEMB      192             0.0000000000
     22201       192  SLPC      H11B          -35.7445850857       35.9906839858      -15.8846309939  MEMB      192             0.0000000000
     22202       192  SLPC      P             -34.4684351603       37.8939394651      -17.3474860181  MEMB      192             0.0000000000
     22203       192  SLPC      O13           -33.4020660299       38.5805219135      -18.1032585522  MEMB      192             0.0000000000
     22204       192  SLPC      O14           -35.6433005590       37.4395851292      -18.1692324109  MEMB      192             0.0000000000
     22205       192  SLPC      O12           -33.8609489269       36.6512300335      -16.6101250855  MEMB      192             0.0000000000
     22206       192  SLPC      O11           -34.9853670406       38.7549901122      -16.1159209185  MEMB      192             0.0000000000
     22207       192  SLPC      C1            -34.9702064116       40.2038166832      -16.1639025707  MEMB      192             0.0000000000
     22208       192  SLPC      HA            -34.1919654597       40.6115274702      -16.8439276647  MEMB      192             0.0000000000
     22209       192  SLPC      HB            -35.9265523546       40.5791391916      -16.5868168032  MEMB      192             0.0000000000
     22210       192  SLPC      C2            -34.7464566049       40.7817858070      -14.8355588690  MEMB      192             0.0000000000
     22211       192  SLPC      HS            -34.0770916612       41.6593864738      -14.9623989481  MEMB      192             0.0000000000
     22212       192  SLPC      O21           -34.0874618240       39.8027917486      -14.0146372476  MEMB      192             0.0000000000
     22213       192  SLPC      C21           -32.8031208892       39.5823946652      -14.2369165685  MEMB      192             0.0000000000
     22214       192  SLPC      O22           -32.1547811451       40.1004263750      -15.1160267450  MEMB      192             0.0000000000
     22215       192  SLPC      C22           -32.3036882443       38.5099965616      -13.2408966333  MEMB      192             0.0000000000
     22216       192  SLPC      H2R           -32.5289933596       38.9925770199      -12.2658713534  MEMB      192             0.0000000000
     22217       192  SLPC      H2S           -32.9038217358       37.6083398247      -13.4882337651  MEMB      192             0.0000000000
     22218       192  SLPC      C3            -36.0522827381       41.2315519808      -14.0591010241  MEMB      192             0.0000000000
     22219       192  SLPC      HX            -36.7613894398       41.9523893356      -14.5194072260  MEMB      192             0.0000000000
     22220       192  SLPC      HY            -35.6487187625       41.6669794620      -13.1200270370  MEMB      192             0.0000000000
     22221       192  SLPC      O31           -36.7397373708       40.0078639479      -13.8224295829  MEMB      192             0.0000000000
     22222       192  SLPC      C31           -36.7258850854       39.4888777291      -12.5554356547  MEMB      192             0.0000000000
     22223       192  SLPC      O32           -36.1121821852       39.9224850306      -11.6172366510  MEMB      192             0.0000000000
     22224       192  SLPC      C32           -37.5446171455       38.2188180994      -12.4951627510  MEMB      192             0.0000000000
     22225       192  SLPC      H2X           -38.0553802519       37.9889293983      -13.4546386270  MEMB      192             0.0000000000
     22226       192  SLPC      H2Y           -38.2481403377       38.3323016169      -11.6428147566  MEMB      192             0.0000000000
     22227       192  SLPC      C23           -30.7928284316       38.2639279798      -13.5509266583  MEMB      192             0.0000000000
     22228       192  SLPC      H3R           -30.3255554061       39.2276369168      -13.2555590331  MEMB      192             0.0000000000
     22229       192  SLPC      H3S           -30.6436994916       38.0588661858      -14.6326066182  MEMB      192             0.0000000000
     22230       192  SLPC      C24           -30.2849008231       37.0933409188      -12.7202664144  MEMB      192             0.0000000000
     22231       192  SLPC      H4R           -30.7240773520       37.1176634177      -11.7000438215  MEMB      192             0.0000000000
     22232       192  SLPC      H4S           -29.2002100551       37.3255773083      -12.6583540009  MEMB      192             0.0000000000
     22233       192  SLPC      C25           -30.5263610962       35.6968614278      -13.2854138730  MEMB      192             0.0000000000
     22234       192  SLPC      H5R           -30.1115805112       35.6104517570      -14.3124541270  MEMB      192             0.0000000000
     22235       192  SLPC      H5S           -31.6050183785       35.5164251675      -13.4810218543  MEMB      192             0.0000000000
     22236       192  SLPC      C26           -30.1560742116       34.5141555840      -12.3669662751  MEMB      192             0.0000000000
     22237       192  SLPC      H6R           -29.0604895906       34.4715428788      -12.1875239449  MEMB      192             0.0000000000
     22238       192  SLPC      H6S           -30.5309590014       33.5798484038      -12.8369154810  MEMB      192             0.0000000000
     22239       192  SLPC      C27           -30.6396756563       34.6334279960      -10.8952860063  MEMB      192             0.0000000000
     22240       192  SLPC      H7R           -30.2603616813       35.5038601246      -10.3184067778  MEMB      192             0.0000000000
     22241       192  SLPC      H7S           -30.2271014481       33.7348905103      -10.3885964123  MEMB      192             0.0000000000
     22242       192  SLPC      C28           -32.1371832516       34.5479992611      -10.7835141334  MEMB      192             0.0000000000
     22243       192  SLPC      H8R           -32.3098191806       33.8174598970       -9.9644718507  MEMB      192             0.0000000000
     22244       192  SLPC      H8S           -32.6626487162       33.8912012257      -11.5093401842  MEMB      192             0.0000000000
     22245       192  SLPC      C29           -32.9436378309       35.7867122560      -10.5463740857  MEMB      192             0.0000000000
     22246       192  SLPC      H9R           -33.6628971891       36.0010800241      -11.3505584217  MEMB      192             0.0000000000
     22247       192  SLPC      C210          -32.7923004965       36.6240057437       -9.5114486079  MEMB      192             0.0000000000
     22248       192  SLPC      H10R          -33.4150806742       37.5224212659       -9.3889965706  MEMB      192             0.0000000000
     22249       192  SLPC      C211          -31.8088917693       36.3884982372       -8.4029932869  MEMB      192             0.0000000000
     22250       192  SLPC      H11R          -30.9356216595       36.8966657481       -8.8650397969  MEMB      192             0.0000000000
     22251       192  SLPC      H11S          -31.5377927503       35.3253891820       -8.2279921222  MEMB      192             0.0000000000
     22252       192  SLPC      C212          -32.2685034820       36.9416809973       -7.0646873959  MEMB      192             0.0000000000
     22253       192  SLPC      H12R          -32.8379687677       37.8823774769       -7.0364144005  MEMB      192             0.0000000000
     22254       192  SLPC      C213          -32.0027237794       36.4082182577       -5.8565354593  MEMB      192             0.0000000000
     22255       192  SLPC      H13R          -32.4641267164       36.9278431323       -5.0038359960  MEMB      192             0.0000000000
     22256       192  SLPC      C214          -31.2453639831       35.1520358353       -5.4553945190  MEMB      192             0.0000000000
     22257       192  SLPC      H14R          -30.5378878208       35.3026323451       -4.6121150385  MEMB      192             0.0000000000
     22258       192  SLPC      H14S          -30.5876474087       34.8581219814       -6.3011746487  MEMB      192             0.0000000000
     22259       192  SLPC      C215          -32.2529220354       33.9897411131       -5.0309039312  MEMB      192             0.0000000000
     22260       192  SLPC      H15R          -31.7143291800       33.1743986639       -4.5022677679  MEMB      192             0.0000000000
     22261       192  SLPC      H15S          -32.8079320545       33.6017716359       -5.9116791137  MEMB      192             0.0000000000
     22262       192  SLPC      C216          -33.1293811767       34.4485653751       -3.8862710655  MEMB      192             0.0000000000
     22263       192  SLPC      H16R          -33.6545761731       35.3923963765       -4.1464141348  MEMB      192             0.0000000000
     22264       192  SLPC      H16S          -32.4718553970       34.5793062487       -3.0003328640  MEMB      192             0.0000000000
     22265       192  SLPC      C217          -34.1070555293       33.3355127826       -3.4065543276  MEMB      192             0.0000000000
     22266       192  SLPC      H17R          -33.4297986070       32.4635758762       -3.2825765287  MEMB      192             0.0000000000
     22267       192  SLPC      H17S          -34.8756391235       33.0892262854       -4.1700614068  MEMB      192             0.0000000000
     22268       192  SLPC      C218          -34.7876696020       33.7915954733       -2.1442541742  MEMB      192             0.0000000000
     22269       192  SLPC      H18R          -33.9995446934       34.1763055023       -1.4622137862  MEMB      192             0.0000000000
     22270       192  SLPC      H18S          -35.5371210883       33.0722538310       -1.7503110323  MEMB      192             0.0000000000
     22271       192  SLPC      H18T          -35.3977106863       34.6833151956       -2.4031102280  MEMB      192             0.0000000000
     22272       192  SLPC      C33           -36.6257909983       37.0173575038      -12.2541582132  MEMB      192             0.0000000000
     22273       192  SLPC      H3X           -36.1252675718       37.2272398501      -11.2847528687  MEMB      192             0.0000000000
     22274       192  SLPC      H3Y           -35.7541011176       36.9881865136      -12.9423636313  MEMB      192             0.0000000000
     22275       192  SLPC      C34           -37.3217405610       35.6989848170      -12.2019749765  MEMB      192             0.0000000000
     22276       192  SLPC      H4X           -37.3690695354       35.3866672416      -13.2671219985  MEMB      192             0.0000000000
     22277       192  SLPC      H4Y           -38.3635674831       35.8222050442      -11.8362783065  MEMB      192             0.0000000000
     22278       192  SLPC      C35           -36.5618921252       34.6049538185      -11.3871745664  MEMB      192             0.0000000000
     22279       192  SLPC      H5X           -35.4939965292       34.6471949030      -11.6907131287  MEMB      192             0.0000000000
     22280       192  SLPC      H5Y           -36.9191239198       33.5896104909      -11.6624637446  MEMB      192             0.0000000000
     22281       192  SLPC      C36           -36.7219535607       34.7574555297       -9.8512967643  MEMB      192             0.0000000000
     22282       192  SLPC      H6X           -37.7767384472       34.6889228881       -9.5091661059  MEMB      192             0.0000000000
     22283       192  SLPC      H6Y           -36.3072460345       35.6981606426       -9.4300928192  MEMB      192             0.0000000000
     22284       192  SLPC      C37           -36.0754274776       33.5933815891       -9.0119366421  MEMB      192             0.0000000000
     22285       192  SLPC      H7X           -34.9898516634       33.6593846861       -9.2388505623  MEMB      192             0.0000000000
     22286       192  SLPC      H7Y           -36.4132211286       32.5992002812       -9.3750068288  MEMB      192             0.0000000000
     22287       192  SLPC      C38           -36.4838536822       33.6837779620       -7.5593767046  MEMB      192             0.0000000000
     22288       192  SLPC      H8X           -35.8711978344       32.9992626274       -6.9345460866  MEMB      192             0.0000000000
     22289       192  SLPC      H8Y           -37.5045997575       33.2680682723       -7.4194348057  MEMB      192             0.0000000000
     22290       192  SLPC      C39           -36.2996814586       35.0602934616       -6.8496216007  MEMB      192             0.0000000000
     22291       192  SLPC      H9X           -36.9078717531       35.8484823220       -7.3427584301  MEMB      192             0.0000000000
     22292       192  SLPC      H9Y           -35.2214165333       35.3279872941       -6.8472014033  MEMB      192             0.0000000000
     22293       192  SLPC      C310          -36.7085835404       35.1788503417       -5.3227679363  MEMB      192             0.0000000000
     22294       192  SLPC      H10X          -35.8521238188       35.2258505026       -4.6166587992  MEMB      192             0.0000000000
     22295       192  SLPC      H10Y          -37.3184006961       34.3001081359       -5.0223410304  MEMB      192             0.0000000000
     22296       192  SLPC      C311          -37.7869827634       36.2684320493       -5.0379555657  MEMB      192             0.0000000000
     22297       192  SLPC      H11X          -38.0996632425       36.1467047062       -3.9788355637  MEMB      192             0.0000000000
     22298       192  SLPC      H11Y          -38.7037342101       36.0244545989       -5.6161967250  MEMB      192             0.0000000000
     22299       192  SLPC      C312          -37.3640873275       37.7292371151       -5.3721048032  MEMB      192             0.0000000000
     22300       192  SLPC      H12X          -38.1046474594       38.3978637408       -4.8834024722  MEMB      192             0.0000000000
     22301       192  SLPC      H12Y          -37.3814765533       37.7093736607       -6.4827916410  MEMB      192             0.0000000000
     22302       192  SLPC      C313          -36.0469928687       38.1978682569       -4.7186406308  MEMB      192             0.0000000000
     22303       192  SLPC      H13X          -35.2289851894       37.8534458695       -5.3868902141  MEMB      192             0.0000000000
     22304       192  SLPC      H13Y          -36.1012922113       37.7574719807       -3.7001008584  MEMB      192             0.0000000000
     22305       192  SLPC      C314          -36.0191789704       39.6839716942       -4.4925838341  MEMB      192             0.0000000000
     22306       192  SLPC      H14X          -36.5769393827       40.0035560340       -3.5864435159  MEMB      192             0.0000000000
     22307       192  SLPC      H14Y          -36.4399414510       40.2505451541       -5.3506478445  MEMB      192             0.0000000000
     22308       192  SLPC      C315          -34.5876844740       40.2221282057       -4.5269732857  MEMB      192             0.0000000000
     22309       192  SLPC      H15X          -34.4479853246       41.3237100946       -4.4906111562  MEMB      192             0.0000000000
     22310       192  SLPC      H15Y          -34.1729596563       39.7834712180       -5.4596598902  MEMB      192             0.0000000000
     22311       192  SLPC      C316          -33.5179423875       39.6392668378       -3.4845129970  MEMB      192             0.0000000000
     22312       192  SLPC      H16X          -32.5721995542       40.1432984279       -3.7775038026  MEMB      192             0.0000000000
     22313       192  SLPC      H16Y          -33.2419341948       38.5868255996       -3.7092528956  MEMB      192             0.0000000000
     22314       192  SLPC      C317          -33.9267560686       39.7108764432       -2.0700285039  MEMB      192             0.0000000000
     22315       192  SLPC      H17X          -34.7947935465       39.0224316536       -1.9871094727  MEMB      192             0.0000000000
     22316       192  SLPC      H17Y          -34.3093097183       40.7453705847       -1.9366283612  MEMB      192             0.0000000000
     22317       192  SLPC      C318          -32.8795698489       39.3847521354       -1.0085131179  MEMB      192             0.0000000000
     22318       192  SLPC      H18X          -33.3570439694       39.5464653756       -0.0184699511  MEMB      192             0.0000000000
     22319       192  SLPC      H18Y          -32.1070902289       40.1832290851       -1.0029451464  MEMB      192             0.0000000000
     22320       192  SLPC      H18Z          -32.5199380826       38.3492724004       -1.1895325649  MEMB      192             0.0000000000
     22321       193  TIP3      OH2             3.3696140847        4.3641094935       20.2856350000  TIP3      1               0.0000000000
     22322       193  TIP3      H1              3.3218375223        5.2990971357       20.0862750000  TIP3      1               0.0000000000
     22323       193  TIP3      H2              3.0568182030        3.9328774301       19.4903850000  TIP3      1               0.0000000000
     22324       194  TIP3      OH2             1.3956285315        1.9582921084       21.3181650000  TIP3      2               0.0000000000
     22325       194  TIP3      H1              1.8147967301        2.4828664537       20.6359950000  TIP3      2               0.0000000000
     22326       194  TIP3      H2              1.6353178214        1.0557015994       21.1081050000  TIP3      2               0.0000000000
     22327       195  TIP3      OH2            -5.4077834505        5.6072920091       20.6632200000  TIP3      3               0.0000000000
     22328       195  TIP3      H1             -5.9263520820        5.4457431946       21.4513900000  TIP3      3               0.0000000000
     22329       195  TIP3      H2             -5.6846016369        4.9263672486       20.0500800000  TIP3      3               0.0000000000
     22330       196  TIP3      OH2            -6.6410242933        1.4298789215       20.3734100000  TIP3      4               1.4200000000
     22331       196  TIP3      H1             -7.1737416784        0.9576261396       21.0132700000  TIP3      4               0.7600000000
     22332       196  TIP3      H2             -5.9712541047        0.8000143649       20.1071500000  TIP3      4               1.6200000000
     22333       197  TIP3      OH2            -1.6203428079       10.3863322316       21.2456350000  TIP3      5               0.0000000000
     22334       197  TIP3      H1             -0.7445676335       10.0031632964       21.1963350000  TIP3      5               0.0000000000
     22335       197  TIP3      H2             -1.9680157197       10.3054785533       20.3574750000  TIP3      5               0.0000000000
     22336       198  TIP3      OH2             6.9763489730        8.5042676486       20.9438800000  TIP3      6               0.0000000000
     22337       198  TIP3      H1              6.6687238806        7.8222466406       21.5409100000  TIP3      6               0.0000000000
     22338       198  TIP3      H2              6.1827483346        8.8220837069       20.5132800000  TIP3      6               0.0000000000
     22339       199  TIP3      OH2             7.7491396687       11.6024017744       18.7667000000  TIP3      7               0.0000000000
     22340       199  TIP3      H1              7.7118616593       12.3861396666       18.2184400000  TIP3      7               0.0000000000
     22341       199  TIP3      H2              8.5180977465       11.1264446993       18.4530400000  TIP3      7               0.0000000000
     22342       200  TIP3      OH2             3.5214558268        8.7732956968       20.5866100000  TIP3      8               0.0000000000
     22343       200  TIP3      H1              3.3060686519        9.4747827432       21.2012300000  TIP3      8               0.0000000000
     22344       200  TIP3      H2              4.0292414200        9.2041464686       19.8990400000  TIP3      8               0.0000000000
     22345       201  TIP3      OH2             7.6789337846       13.9042316344       17.4373100000  TIP3      9               0.0000000000
     22346       201  TIP3      H1              8.4440189382       14.4053939105       17.7196500000  TIP3      9               0.0000000000
     22347       201  TIP3      H2              7.0056357691       14.1080621768       18.0864200000  TIP3      9               0.0000000000
     22348       202  TIP3      OH2            -8.2962876351      -12.4287818385       19.1454800000  TIP3      10              0.0000000000
     22349       202  TIP3      H1             -9.1940079736      -12.7607282616       19.1569600000  TIP3      10              0.0000000000
     22350       202  TIP3      H2             -7.7517888088      -13.2047128263       19.2784800000  TIP3      10              0.0000000000
     22351       203  TIP3      OH2            -4.7912343442       -7.8885841863       19.2777200000  TIP3      11              0.0000000000
     22352       203  TIP3      H1             -4.8566702047       -7.6806185731       20.2097600000  TIP3      11              0.0000000000
     22353       203  TIP3      H2             -5.2164587735       -8.7418224170       19.1917800000  TIP3      11              0.0000000000
     22354       204  TIP3      OH2            -8.9717124109       -9.3180927984       19.8670800000  TIP3      12              0.0000000000
     22355       204  TIP3      H1             -8.5977851926       -8.4949713762       20.1815000000  TIP3      12              0.0000000000
     22356       204  TIP3      H2             -8.3464888974       -9.6315760368       19.2135800000  TIP3      12              0.0000000000
     22357       205  TIP3      OH2            11.5830138794       -9.3071138114       19.9328450000  TIP3      13              5.1400000000
     22358       205  TIP3      H1             12.4837475695       -9.2113310387       20.2422550000  TIP3      13              6.0000000000
     22359       205  TIP3      H2             11.0498415327       -9.2536624647       20.7260050000  TIP3      13              4.9300000000
     22360       206  TIP3      OH2            11.4658139846      -12.6751460112       20.0902950000  TIP3      14              0.0000000000
     22361       206  TIP3      H1             10.8158272984      -12.3523650959       19.4661550000  TIP3      14              0.0000000000
     22362       206  TIP3      H2             11.5974821469      -11.9471701270       20.6977150000  TIP3      14              0.0000000000
     22363       207  TIP3      OH2           -13.2260427985      -11.0835886889       20.5422600000  TIP3      15              0.0000000000
     22364       207  TIP3      H1            -13.8627331952      -10.8200668817       19.8778600000  TIP3      15              0.0000000000
     22365       207  TIP3      H2            -12.3796927226      -10.8187903137       20.1819900000  TIP3      15              0.0000000000
     22366       208  TIP3      OH2            17.9276171694        0.5697996441       20.8361550000  TIP3      16              0.0000000000
     22367       208  TIP3      H1             17.7541894940        1.0568074714       20.0305550000  TIP3      16              0.0000000000
     22368       208  TIP3      H2             17.2031956138        0.8015174504       21.4173250000  TIP3      16              0.0000000000
     22369       209  TIP3      OH2            20.2428127832        2.9125586547       19.4304750000  TIP3      17              0.0000000000
     22370       209  TIP3      H1             20.1063735611        3.8538124956       19.5384350000  TIP3      17              0.0000000000
     22371       209  TIP3      H2             19.4400228610        2.5999989793       19.0132750000  TIP3      17              0.0000000000
     22372       210  TIP3      OH2            14.9082425554        2.2467651864       19.5674450000  TIP3      18              0.0000000000
     22373       210  TIP3      H1             14.2832548124        1.5625629567       19.8072250000  TIP3      18              0.0000000000
     22374       210  TIP3      H2             14.3691820862        2.9440220219       19.1939850000  TIP3      18              0.0000000000
     22375       211  TIP3      OH2            10.4042461373       15.7068683065       20.4980350000  TIP3      19              0.0000000000
     22376       211  TIP3      H1              9.8464836070       15.4001836959       21.2129250000  TIP3      19              0.0000000000
     22377       211  TIP3      H2             11.0486900241       16.2732275946       20.9224850000  TIP3      19              0.0000000000
     22378       212  TIP3      OH2            11.2980870336      -18.7409082265       20.7996100000  TIP3      20              0.0000000000
     22379       212  TIP3      H1             11.5078470313      -17.8077608943       20.7615000000  TIP3      20              0.0000000000
     22380       212  TIP3      H2             10.7157780841      -18.8866357950       20.0540100000  TIP3      20              0.0000000000
     22381       213  TIP3      OH2             4.0409687956      -22.4554247031       18.8014800000  TIP3      21              0.0000000000
     22382       213  TIP3      H1              4.6042287606      -23.2158574837       18.6575700000  TIP3      21              0.0000000000
     22383       213  TIP3      H2              4.4423680467      -21.7579394186       18.2831800000  TIP3      21              0.0000000000
     22384       214  TIP3      OH2            -9.5581594864       25.3290693333       21.6482300000  TIP3      22              0.0000000000
     22385       214  TIP3      H1             -8.6339467124       25.4293491238       21.4202000000  TIP3      22              0.0000000000
     22386       214  TIP3      H2             -9.5956809627       25.5167719567       22.5861000000  TIP3      22              0.0000000000
     22387       215  TIP3      OH2           -12.1290049839       25.0073366230       20.0045400000  TIP3      23              0.0000000000
     22388       215  TIP3      H1            -11.6347536811       25.1106701014       20.8177300000  TIP3      23              0.0000000000
     22389       215  TIP3      H2            -11.7691171125       25.6732827969       19.4186900000  TIP3      23              0.0000000000
     22390       216  TIP3      OH2           -21.8336131935       16.4775824084       20.6447550000  TIP3      24              0.0000000000
     22391       216  TIP3      H1            -22.5373107662       15.8303980450       20.5978750000  TIP3      24              0.0000000000
     22392       216  TIP3      H2            -21.9424878503       17.0080904403       19.8554850000  TIP3      24              0.0000000000
     22393       217  TIP3      OH2           -24.3971995728       20.1947404378       19.9425250000  TIP3      25              0.0000000000
     22394       217  TIP3      H1            -23.7384192341       20.7126473624       20.4051450000  TIP3      25              0.0000000000
     22395       217  TIP3      H2            -25.2328115096       20.4939515102       20.3009350000  TIP3      25              0.0000000000
     22396       218  TIP3      OH2           -16.1110949963       24.9091857211       19.7664550000  TIP3      26              0.0000000000
     22397       218  TIP3      H1            -15.9241194154       24.6367504258       20.6648150000  TIP3      26              0.0000000000
     22398       218  TIP3      H2            -15.2583371118       24.9040320529       19.3317050000  TIP3      26              0.0000000000
     22399       219  TIP3      OH2           -19.7743578208       28.0165274796       20.0280250000  TIP3      27              0.0000000000
     22400       219  TIP3      H1            -19.2514772886       27.3536390469       19.5770250000  TIP3      27              0.0000000000
     22401       219  TIP3      H2            -20.6672778856       27.6722431300       20.0081750000  TIP3      27              0.0000000000
     22402       220  TIP3      OH2             4.6278466146      -32.0070040760       21.6067750000  TIP3      28              0.0000000000
     22403       220  TIP3      H1              4.4624352672      -31.4391693498       20.8541550000  TIP3      28              0.0000000000
     22404       220  TIP3      H2              3.7640118984      -32.1511939507       21.9930550000  TIP3      28              0.0000000000
     22405       221  TIP3      OH2             8.6849847710      -31.7351739575       19.6323850000  TIP3      29              0.0000000000
     22406       221  TIP3      H1              8.3794026895      -32.1212645084       20.4532250000  TIP3      29              0.0000000000
     22407       221  TIP3      H2              7.8852349259      -31.4594202649       19.1845050000  TIP3      29              0.0000000000
     22408       222  TIP3      OH2           -12.2883073731      -33.0044501362       20.1693950000  TIP3      30              0.0000000000
     22409       222  TIP3      H1            -11.8501116332      -33.6306369774       20.7456850000  TIP3      30              0.0000000000
     22410       222  TIP3      H2            -12.6300764497      -32.3331976017       20.7600250000  TIP3      30              0.0000000000
     22411       223  TIP3      OH2            -8.0133754168      -30.5372884852       20.1186950000  TIP3      31              0.0000000000
     22412       223  TIP3      H1             -8.8018357421      -30.1180627532       20.4633850000  TIP3      31              0.0000000000
     22413       223  TIP3      H2             -8.3362075462      -31.1463211827       19.4545350000  TIP3      31              0.0000000000
     22414       224  TIP3      OH2           -14.6574763722      -30.6344402958       19.1378000000  TIP3      32              0.0000000000
     22415       224  TIP3      H1            -14.0240422515      -29.9826712523       19.4381300000  TIP3      32              0.0000000000
     22416       224  TIP3      H2            -14.3569400494      -31.4570131086       19.5241700000  TIP3      32              0.0000000000
     22417       225  TIP3      OH2           -18.6823956778      -32.7775954580       19.3842700000  TIP3      33              0.0000000000
     22418       225  TIP3      H1            -18.3618560155      -31.8811241191       19.4833300000  TIP3      33              0.0000000000
     22419       225  TIP3      H2            -19.5492058222      -32.6803390010       18.9900400000  TIP3      33              0.0000000000
     22420       226  TIP3      OH2           -19.2608246124      -28.7524950918       20.3937600000  TIP3      34              0.0000000000
     22421       226  TIP3      H1            -19.1232657561      -29.2943937862       21.1707100000  TIP3      34              0.0000000000
     22422       226  TIP3      H2            -18.7077095937      -29.1513209573       19.7220100000  TIP3      34              0.0000000000
     22423       227  TIP3      OH2            33.0056943091      -11.9802369936       18.9134100000  TIP3      35              0.0000000000
     22424       227  TIP3      H1             33.6599095869      -12.6430296505       19.1346400000  TIP3      35              0.0000000000
     22425       227  TIP3      H2             33.5170229421      -11.1977733743       18.7071800000  TIP3      35              0.0000000000
     22426       228  TIP3      OH2            35.8195567611      -11.1993400506       20.8040200000  TIP3      36              0.0000000000
     22427       228  TIP3      H1             36.0851983748      -10.6397165711       20.0743100000  TIP3      36              0.0000000000
     22428       228  TIP3      H2             35.5838018313      -12.0318044371       20.3945700000  TIP3      36              0.0000000000
     22429       229  TIP3      OH2           -32.8355357346       14.2249340351       19.6453650000  TIP3      37              0.0000000000
     22430       229  TIP3      H1            -32.2917572075       14.3626098130       20.4209750000  TIP3      37              0.0000000000
     22431       229  TIP3      H2            -33.3500492969       13.4437738154       19.8485650000  TIP3      37              0.0000000000
     22432       230  TIP3      OH2           -22.1428645207       30.0686647260       19.1694550000  TIP3      38              0.0000000000
     22433       230  TIP3      H1            -21.8334276711       30.5657685021       19.9266650000  TIP3      38              0.0000000000
     22434       230  TIP3      H2            -21.3834851584       30.0181452504       18.5889250000  TIP3      38              0.0000000000
     22435       231  TIP3      OH2           -22.6685486486       27.4123959429       19.8219950000  TIP3      39              0.0000000000
     22436       231  TIP3      H1            -21.9954252283       27.0172871039       19.2678850000  TIP3      39              0.0000000000
     22437       231  TIP3      H2            -22.6561272871       28.3408702126       19.5896050000  TIP3      39              0.0000000000
     22438       232  TIP3      OH2           -25.7351104060       27.4560633951       20.3378350000  TIP3      40              0.0000000000
     22439       232  TIP3      H1            -24.8685988295       27.5675572347       19.9467150000  TIP3      40              0.0000000000
     22440       232  TIP3      H2            -25.5598303226       27.2681256702       21.2598950000  TIP3      40              0.0000000000
     22441       233  TIP3      OH2            36.7921643972      -20.6377085836       19.3590850000  TIP3      41              0.0000000000
     22442       233  TIP3      H1             36.1419692924      -21.2724485287       19.0581250000  TIP3      41              0.0000000000
     22443       233  TIP3      H2             37.6193282784      -20.9486931479       18.9912350000  TIP3      41              0.0000000000
     22444       234  TIP3      OH2            32.1194067789      -22.3215442290       19.0844350000  TIP3      42              0.0000000000
     22445       234  TIP3      H1             31.8330638341      -23.2302197872       19.1769450000  TIP3      42              0.0000000000
     22446       234  TIP3      H2             32.9236392620      -22.3747453102       18.5680850000  TIP3      42              0.0000000000
     22447       235  TIP3      OH2           -22.9754531686      -36.1664364170       20.7745850000  TIP3      43              0.0000000000
     22448       235  TIP3      H1            -22.4792261104      -36.4908461074       20.0230950000  TIP3      43              0.0000000000
     22449       235  TIP3      H2            -23.8030538340      -35.8619169616       20.4023150000  TIP3      43              0.0000000000
     22450       236  TIP3      OH2           -32.7129632136       32.2599758707       20.7160950000  TIP3      44              0.0000000000
     22451       236  TIP3      H1            -33.1411784534       33.1105818214       20.6194250000  TIP3      44              0.0000000000
     22452       236  TIP3      H2            -32.9909334862       31.7625694504       19.9469650000  TIP3      44              0.0000000000
     22453       237  TIP3      OH2           -35.4669712052       29.5019536975       20.5212850000  TIP3      45              0.0000000000
     22454       237  TIP3      H1            -35.7519974448       29.4118253510       21.4306150000  TIP3      45              0.0000000000
     22455       237  TIP3      H2            -36.1415117699       29.0519432661       20.0126350000  TIP3      45              0.0000000000
     22456       238  TIP3      OH2           -32.9275828405       28.7694111919       21.5626250000  TIP3      46              0.0000000000
     22457       238  TIP3      H1            -33.0022481063       29.5852172295       21.0675250000  TIP3      46              0.0000000000
     22458       238  TIP3      H2            -33.0245500085       28.0801683878       20.9055250000  TIP3      46              0.0000000000
     22459       239  TIP3      OH2           -36.6493585149      -30.7073925770       19.6975900000  TIP3      47              0.0000000000
     22460       239  TIP3      H1            -35.7354064341      -30.4761048735       19.5319700000  TIP3      47              0.0000000000
     22461       239  TIP3      H2            -36.7461679882      -31.5841632457       19.3259300000  TIP3      47              0.0000000000
     22462       240  TIP3      OH2           -33.5611838846      -26.8235694589       19.4585000000  TIP3      48              0.0000000000
     22463       240  TIP3      H1            -33.3450914433      -25.9647954161       19.0951300000  TIP3      48              0.0000000000
     22464       240  TIP3      H2            -33.4003579567      -26.7340710157       20.3978400000  TIP3      48              0.0000000000
     22465       241  TIP3      OH2           -32.8258922165      -31.0771776369       20.8184700000  TIP3      49              0.0000000000
     22466       241  TIP3      H1            -33.0323979741      -30.5331018566       20.0584900000  TIP3      49              0.0000000000
     22467       241  TIP3      H2            -31.9120395949      -31.3315293130       20.6903200000  TIP3      49              0.0000000000
     22468       242  TIP3      OH2             1.9422483179       -1.5644256091      -18.2362050000  TIP3      50              0.0000000000
     22469       242  TIP3      H1              2.8416142043       -1.2564184322      -18.1242950000  TIP3      50              0.0000000000
     22470       242  TIP3      H2              2.0340087993       -2.4578996730      -18.5671350000  TIP3      50              0.0000000000
     22471       243  TIP3      OH2             0.4325423906       -6.2983360336      -21.1146350000  TIP3      51              0.0000000000
     22472       243  TIP3      H1              0.9562336094       -7.0430812145      -20.8191150000  TIP3      51              0.0000000000
     22473       243  TIP3      H2              0.2456794010       -5.8044822349      -20.3162550000  TIP3      51              0.0000000000
     22474       244  TIP3      OH2            -1.7629056348       -3.7160567856      -20.4154450000  TIP3      52              0.0000000000
     22475       244  TIP3      H1             -2.4259353910       -4.3442394484      -20.1290650000  TIP3      52              0.0000000000
     22476       244  TIP3      H2             -1.0395487346       -3.8330997608      -19.7995750000  TIP3      52              0.0000000000
     22477       245  TIP3      OH2             3.7389297866        8.7608731183      -21.0491600000  TIP3      53              0.0000000000
     22478       245  TIP3      H1              2.9231437653        8.6993255769      -21.5460900000  TIP3      53              0.0000000000
     22479       245  TIP3      H2              3.4755185811        9.1100117584      -20.1977200000  TIP3      53              0.0000000000
     22480       246  TIP3      OH2             1.4533041905       12.0490033723      -19.4314300000  TIP3      54              0.0000000000
     22481       246  TIP3      H1              1.8906362804       12.5295457905      -20.1343200000  TIP3      54              0.0000000000
     22482       246  TIP3      H2              0.6025777343       12.4782043063      -19.3405100000  TIP3      54              0.0000000000
     22483       247  TIP3      OH2            -4.5489368698        8.0695909661      -19.6498300000  TIP3      55              0.0000000000
     22484       247  TIP3      H1             -3.6491073100        7.7495859481      -19.7141400000  TIP3      55              0.0000000000
     22485       247  TIP3      H2             -4.4771111817        8.8920775060      -19.1655000000  TIP3      55              0.0000000000
     22486       248  TIP3      OH2            -6.7685836867       12.5400673225      -20.2670100000  TIP3      56              0.0000000000
     22487       248  TIP3      H1             -7.3621168299       13.0484831515      -19.7143200000  TIP3      56              0.0000000000
     22488       248  TIP3      H2             -7.0396484586       12.7446743701      -21.1619400000  TIP3      56              0.0000000000
     22489       249  TIP3      OH2             3.9021201242       -9.8589459690      -19.3470800000  TIP3      57              0.0000000000
     22490       249  TIP3      H1              3.2989350634       -9.3494071048      -19.8881600000  TIP3      57              0.0000000000
     22491       249  TIP3      H2              3.3878696088      -10.6134278108      -19.0597600000  TIP3      57              0.0000000000
     22492       250  TIP3      OH2             6.9200079833       16.5809708458      -19.4359150000  TIP3      58              0.0000000000
     22493       250  TIP3      H1              6.0323323946       16.3560804714      -19.7146450000  TIP3      58              0.0000000000
     22494       250  TIP3      H2              7.2894862385       15.7554839476      -19.1224050000  TIP3      58              0.0000000000
     22495       251  TIP3      OH2            10.4592484399       15.8224057549      -20.2515350000  TIP3      59              0.0000000000
     22496       251  TIP3      H1             10.1254064870       16.6059397979      -19.8146750000  TIP3      59              0.0000000000
     22497       251  TIP3      H2             10.2188686797       15.1019765527      -19.6689250000  TIP3      59              0.0000000000
     22498       252  TIP3      OH2           -11.7417031130       10.7913034003      -20.1098550000  TIP3      60              0.0000000000
     22499       252  TIP3      H1            -11.3318997435       10.0311107432      -19.6970450000  TIP3      60              0.0000000000
     22500       252  TIP3      H2            -11.6030984646       10.6589265630      -21.0476750000  TIP3      60              0.0000000000
     22501       253  TIP3      OH2            -3.2513462639      -21.2795114155      -20.8472200000  TIP3      61              0.0000000000
     22502       253  TIP3      H1             -4.1147919444      -21.3836158482      -21.2470300000  TIP3      61              0.0000000000
     22503       253  TIP3      H2             -2.9333819772      -22.1742219540      -20.7263600000  TIP3      61              0.0000000000
     22504       254  TIP3      OH2             0.1095184735      -18.2732459995      -19.1273800000  TIP3      62              0.0000000000
     22505       254  TIP3      H1              0.2132902996      -19.1515324608      -19.4935400000  TIP3      62              0.0000000000
     22506       254  TIP3      H2             -0.7761222430      -18.2677286242      -18.7642600000  TIP3      62              0.0000000000
     22507       255  TIP3      OH2            -1.8740067920      -19.0275582748      -21.8068000000  TIP3      63              0.0000000000
     22508       255  TIP3      H1             -2.0697355762      -19.9389898601      -21.5895000000  TIP3      63              0.0000000000
     22509       255  TIP3      H2             -2.2051316487      -18.5266857703      -21.0613400000  TIP3      63              0.0000000000
     22510       256  TIP3      OH2            17.7917967205        8.3858359228      -20.4064400000  TIP3      64              0.0000000000
     22511       256  TIP3      H1             18.1128138226        8.3085664841      -21.3048900000  TIP3      64              0.0000000000
     22512       256  TIP3      H2             17.2314807433        9.1618213051      -20.4177000000  TIP3      64              0.0000000000
     22513       257  TIP3      OH2            -8.1702749762       21.6968542692      -19.0886550000  TIP3      65              0.0000000000
     22514       257  TIP3      H1             -9.1048009193       21.5245894767      -18.9736250000  TIP3      65              0.0000000000
     22515       257  TIP3      H2             -7.7408480791       21.1265101194      -18.4510550000  TIP3      65              0.0000000000
     22516       258  TIP3      OH2            -5.3522955420       19.2707119829      -20.8559850000  TIP3      66              0.0000000000
     22517       258  TIP3      H1             -4.9189459920       18.4386386042      -21.0459450000  TIP3      66              0.0000000000
     22518       258  TIP3      H2             -5.2248123819       19.7938552223      -21.6473750000  TIP3      66              0.0000000000
     22519       259  TIP3      OH2             8.0656007954       22.2939093792      -19.6849000000  TIP3      67              0.0000000000
     22520       259  TIP3      H1              7.2685779013       22.5391757875      -19.2149900000  TIP3      67              0.0000000000
     22521       259  TIP3      H2              8.5216704169       23.1224135330      -19.8326400000  TIP3      67              0.0000000000
     22522       260  TIP3      OH2            21.3543863477       -9.7204235759      -20.0310750000  TIP3      68              0.0000000000
     22523       260  TIP3      H1             20.9219982886       -8.8671638565      -19.9963350000  TIP3      68              0.0000000000
     22524       260  TIP3      H2             22.2442891138       -9.5266972483      -20.3256250000  TIP3      68              0.0000000000
     22525       261  TIP3      OH2            25.8107895911       -8.5769173951      -19.4603650000  TIP3      69              0.0000000000
     22526       261  TIP3      H1             24.9668779112       -8.2114007371      -19.1949750000  TIP3      69              0.0000000000
     22527       261  TIP3      H2             25.8254542555       -8.4801515741      -20.4125550000  TIP3      69              0.0000000000
     22528       262  TIP3      OH2            22.5914452505       -4.0455322534      -18.7740050000  TIP3      70              0.0000000000
     22529       262  TIP3      H1             21.8106139281       -3.5349276060      -18.9880450000  TIP3      70              0.0000000000
     22530       262  TIP3      H2             22.3955715653       -4.9275022645      -19.0902250000  TIP3      70              0.0000000000
     22531       263  TIP3      OH2            16.3212431547       20.6788518537      -19.5928150000  TIP3      71              0.0000000000
     22532       263  TIP3      H1             16.9661119018       20.6946945503      -18.8856150000  TIP3      71              0.0000000000
     22533       263  TIP3      H2             15.5560496719       21.1249117819      -19.2298750000  TIP3      71              0.0000000000
     22534       264  TIP3      OH2            22.9573369446       15.1943698277      -20.0706800000  TIP3      72              0.0000000000
     22535       264  TIP3      H1             23.0443605696       14.2686344472      -19.8433400000  TIP3      72              0.0000000000
     22536       264  TIP3      H2             22.3103493594       15.5335870760      -19.4521500000  TIP3      72              0.0000000000
     22537       265  TIP3      OH2            -8.7577024736       24.1821123793      -18.5762050000  TIP3      73              0.0000000000
     22538       265  TIP3      H1             -9.1531269318       25.0483499972      -18.4786850000  TIP3      73              0.0000000000
     22539       265  TIP3      H2             -8.4502941066       24.1592736202      -19.4824150000  TIP3      73              0.0000000000
     22540       266  TIP3      OH2            20.2572467495       18.5728085042      -20.6488050000  TIP3      74              0.0000000000
     22541       266  TIP3      H1             21.0644031551       18.3587426294      -21.1166750000  TIP3      74              0.0000000000
     22542       266  TIP3      H2             19.5695994819       18.4996115250      -21.3106350000  TIP3      74              0.0000000000
     22543       267  TIP3      OH2           -27.8902563964       16.8250639587      -20.3960600000  TIP3      75              0.0000000000
     22544       267  TIP3      H1            -28.4583310145       16.1948314265      -20.8391500000  TIP3      75              0.0000000000
     22545       267  TIP3      H2            -27.3947241808       16.3006523053      -19.7670400000  TIP3      75              0.0000000000
     22546       268  TIP3      OH2            10.6726447794       28.8576545449      -21.1681550000  TIP3      76              0.0000000000
     22547       268  TIP3      H1             10.7937576472       28.9068389963      -20.2199250000  TIP3      76              0.0000000000
     22548       268  TIP3      H2              9.9780848389       29.4893918804      -21.3544750000  TIP3      76              0.0000000000
     22549       269  TIP3      OH2            13.5174397698       27.7585955036      -18.7758850000  TIP3      77              0.0000000000
     22550       269  TIP3      H1             13.1665470061       26.8704547195      -18.7102050000  TIP3      77              0.0000000000
     22551       269  TIP3      H2             12.7986839217       28.3223605906      -18.4898950000  TIP3      77              0.0000000000
     22552       270  TIP3      OH2           -24.5217053188      -19.4371976203      -20.7753250000  TIP3      78              0.0000000000
     22553       270  TIP3      H1            -24.1435885949      -19.6568472812      -19.9238450000  TIP3      78              0.0000000000
     22554       270  TIP3      H2            -23.7959416763      -19.5327927836      -21.3920550000  TIP3      78              0.0000000000
     22555       271  TIP3      OH2           -21.4838093881      -22.3976313190      -20.2304650000  TIP3      79              0.0000000000
     22556       271  TIP3      H1            -22.2425414426      -22.7534712526      -20.6930150000  TIP3      79              0.0000000000
     22557       271  TIP3      H2            -20.9827131060      -21.9416245247      -20.9066250000  TIP3      79              0.0000000000
     22558       272  TIP3      OH2            32.9200364361       -6.7521387702      -20.1424000000  TIP3      80              0.0000000000
     22559       272  TIP3      H1             32.8421125323       -6.6579529850      -21.0917600000  TIP3      80              0.0000000000
     22560       272  TIP3      H2             33.6971803311       -7.2969977638      -20.0182800000  TIP3      80              0.0000000000
     22561       273  TIP3      OH2            18.6210734631       38.3652829870      -19.9251800000  TIP3      81              0.0000000000
     22562       273  TIP3      H1             18.1391951599       39.1546036455      -20.1721300000  TIP3      81              0.0000000000
     22563       273  TIP3      H2             19.4649863180       38.4506829556      -20.3687400000  TIP3      81              0.0000000000
     22564       274  TIP3      OH2           -22.5551402943       30.9629051080      -19.7207550000  TIP3      82              0.0000000000
     22565       274  TIP3      H1            -23.2201563674       30.5087082307      -19.2033550000  TIP3      82              0.0000000000
     22566       274  TIP3      H2            -22.5448039475       30.4994998309      -20.5582350000  TIP3      82              0.0000000000
     22567       275  TIP3      OH2            30.8104820597      -30.7445591257      -19.3470800000  TIP3      83              0.0000000000
     22568       275  TIP3      H1             31.5566348803      -30.4862607711      -19.8881600000  TIP3      83              0.0000000000
     22569       275  TIP3      H2             30.4245192357      -29.9170755062      -19.0597600000  TIP3      83              0.0000000000
     22570       276  TIP3      OH2           -19.1150679793      -33.9411666735      -20.5254900000  TIP3      84              0.0000000000
     22571       276  TIP3      H1            -18.9165079890      -33.0435296408      -20.2589300000  TIP3      84              0.0000000000
     22572       276  TIP3      H2            -19.9680741220      -33.8806615280      -20.9555500000  TIP3      84              0.0000000000
     22573       277  TIP3      OH2           -34.3588689332       30.7282564142      -19.8604250000  TIP3      85              0.0000000000
     22574       277  TIP3      H1            -35.2906655056       30.8029078582      -20.0664050000  TIP3      85              0.0000000000
     22575       277  TIP3      H2            -34.0407639445       31.6310458326      -19.8570150000  TIP3      85              0.0000000000
     22576       278  TIP3      OH2           -31.4415691128       30.2256980034      -21.2622950000  TIP3      86              0.0000000000
     22577       278  TIP3      H1            -30.5626022674       29.8468301887      -21.2524550000  TIP3      86              0.0000000000
     22578       278  TIP3      H2            -32.0278063408       29.4706536926      -21.3119950000  TIP3      86              0.0000000000
     22579       279  TIP3      OH2           -34.1970235811       28.9991674371      -21.9395350000  TIP3      87              0.0000000000
     22580       279  TIP3      H1            -35.0476558062       28.6796858593      -22.2405250000  TIP3      87              0.0000000000
     22581       279  TIP3      H2            -34.4048501425       29.5882332531      -21.2142550000  TIP3      87              0.0000000000
     22582       280  TIP3      OH2            36.1782815342       31.8551321413      -19.4604900000  TIP3      88              0.0000000000
     22583       280  TIP3      H1             36.1965250544       31.5359584731      -20.3627200000  TIP3      88              0.0000000000
     22584       280  TIP3      H2             36.4933232851       32.7571260763      -19.5186000000  TIP3      88              0.0000000000
     22585       281  TIP3      OH2            32.4121632298       30.1509082617      -21.2214200000  TIP3      89              0.0000000000
     22586       281  TIP3      H1             32.0952783431       29.2540945053      -21.1140200000  TIP3      89              0.0000000000
     22587       281  TIP3      H2             32.5348652631       30.4707381787      -20.3276200000  TIP3      89              0.0000000000
